Title
81352
    1CHL1    C3    1   2.023   3.341  10.219  0.2214  0.0003  0.6283
    1CHL1    H3    2   2.108   3.277  10.185  0.4486 -0.0407  1.2589
    1CHL1    O3    3   2.002   3.333  10.358  0.3754 -0.5192 -0.1162
    1CHL1   H3'    4   1.908   3.336  10.376  0.2279 -4.0388  0.0060
    1CHL1    C4    5   2.061   3.482  10.177  0.9273 -0.3114 -0.0517
    1CHL1   H4A    6   1.993   3.555  10.226  4.4000  1.0272  2.9997
    1CHL1   H4B    7   2.155   3.498  10.233 -0.1550  1.1708  1.3864
    1CHL1    C5    8   2.070   3.498  10.026  0.3592  0.1101 -0.5520
    1CHL1    C6    9   2.175   3.538   9.961 -0.3170 -0.8582  0.4087
    1CHL1    H6   10   2.270   3.563  10.009 -0.4683  0.4738  0.0243
    1CHL1    C7   11   2.183   3.568   9.813 -0.5856  0.2987  0.4042
    1CHL1   H7A   12   2.232   3.666   9.801 -2.4026  1.1288 -0.4301
    1CHL1   H7B   13   2.247   3.494   9.760 -1.7556 -0.5078  0.0950
    1CHL1    C8   14   2.038   3.577   9.758 -0.2628 -1.3689 -0.1334
    1CHL1    H8   15   1.987   3.671   9.789 -2.4563 -2.5422 -0.0954
    1CHL1   C14   16   2.059   3.572   9.606  0.2401  0.3923  0.1121
    1CHL1   H14   17   2.105   3.473   9.588  0.4328  0.4674  0.1995
    1CHL1   C15   18   2.154   3.677   9.545  0.3072 -0.4424  0.1881
    1CHL1  H15A   19   2.137   3.772   9.599  0.8791 -0.1129 -0.2001
    1CHL1  H15B   20   2.259   3.641   9.554 -0.2890 -3.0267 -2.3880
    1CHL1   C16   21   2.113   3.683   9.395 -1.2023  0.5116 -0.2191
    1CHL1  H16A   22   2.094   3.789   9.366 -2.1950  0.5262  0.4717
    1CHL1  H16B   23   2.194   3.647   9.328 -2.5732 -1.2345 -0.9822
    1CHL1   C17   24   1.988   3.595   9.380 -0.2749  0.9213  0.4571
    1CHL1   H17   25   2.029   3.494   9.355  2.0860  1.6641  1.2402
    1CHL1   C13   26   1.929   3.581   9.527  0.1408  0.0606  0.1269
    1CHL1   C18   27   1.848   3.708   9.555 -0.1342 -1.0270 -0.4549
    1CHL1  H18A   28   1.910   3.795   9.526 -0.8766 -0.4152 -0.2290
    1CHL1  H18B   29   1.751   3.715   9.500 -1.1067 -1.1420  1.2225
    1CHL1  H18C   30   1.824   3.710   9.663 -0.4047 -0.9282 -0.5157
    1CHL1   C12   31   1.855   3.448   9.566 -0.2786 -0.0918 -0.2591
    1CHL1  H12A   32   1.759   3.431   9.513  0.2155 -0.8223 -0.9461
    1CHL1  H12B   33   1.928   3.370   9.534  2.0007  1.8557  0.0337
    1CHL1   C11   34   1.830   3.433   9.720  0.2510 -0.3902  0.2909
    1CHL1  H11A   35   1.755   3.510   9.749  0.3525  1.0130 -2.9622
    1CHL1  H11B   36   1.788   3.331   9.738 -1.2302 -0.0312 -1.0109
    1CHL1    C9   37   1.959   3.455   9.804  0.6200  0.0765  0.5143
    1CHL1    H9   38   2.022   3.368   9.775 -3.9837 -3.0940 -0.6547
    1CHL1   C10   39   1.941   3.454   9.956 -0.6355 -0.9878  0.0786
    1CHL1   C19   40   1.832   3.553  10.000 -0.2164 -0.5256 -1.0387
    1CHL1  H19A   41   1.811   3.547  10.109  0.1501 -1.2475 -1.0089
    1CHL1  H19B   42   1.854   3.660   9.981  0.4158 -0.1532  1.5948
    1CHL1  H19C   43   1.730   3.525   9.964 -0.7178 -1.7099  1.1892
    1CHL1    C1   44   1.906   3.311   9.993 -0.0800 -0.5689 -0.2405
    1CHL1   H1A   45   1.803   3.290   9.957 -0.1875 -0.3840 -0.0457
    1CHL1   H1B   46   1.972   3.236   9.944 -2.1182 -2.0549 -0.7889
    1CHL1    C2   47   1.905   3.277  10.143 -0.5424  0.4194 -0.3926
    1CHL1   H2A   48   1.912   3.167  10.155 -1.9133  0.4836  1.3300
    1CHL1   H2B   49   1.818   3.321  10.197 -0.7495 -1.4583  0.8655
    1CHL1   C20   50   1.881   3.629   9.268  0.4244  0.3175 -0.0016
    1CHL1   H20   51   1.795   3.691   9.302  0.5091  1.7483 -2.2303
    1CHL1   C21   52   1.815   3.501   9.222  0.3567 -0.0706 -0.1629
    1CHL1  H21A   53   1.744   3.466   9.300 -0.2001 -1.7301 -1.3799
    1CHL1  H21B   54   1.883   3.417   9.195 -1.4789 -0.6473 -3.2183
    1CHL1  H21C   55   1.755   3.521   9.131  0.5317 -2.3449 -0.8220
    1CHL1   C22   56   1.935   3.715   9.152 -0.2545  0.1134 -0.5017
    1CHL1  H22A   57   1.846   3.736   9.089 -1.3533  1.8857  1.5742
    1CHL1  H22B   58   1.982   3.811   9.183  1.8089 -0.7232 -0.9871
    1CHL1   C23   59   2.038   3.638   9.058 -0.0854  0.0472 -0.1432
    1CHL1  H23A   60   2.114   3.594   9.125 -1.4401  0.3414  1.6352
    1CHL1  H23B   61   1.985   3.549   9.017  1.5338 -0.8484 -0.3172
    1CHL1   C24   62   2.109   3.726   8.945 -0.8301  0.1688 -0.3207
    1CHL1  H24A   63   2.024   3.775   8.893 -0.5719 -2.2042 -3.1115
    1CHL1  H24B   64   2.176   3.798   8.995  0.0407 -0.7125 -0.2035
    1CHL1   C25   65   2.198   3.647   8.842 -0.2530 -0.3067 -0.5801
    1CHL1   H25   66   2.266   3.585   8.904 -0.9584 -0.4984  0.0178
    1CHL1   C26   67   2.123   3.558   8.743  0.1489 -0.7502 -0.2727
    1CHL1  H26A   68   2.076   3.626   8.668  1.3731  0.3271 -0.0933
    1CHL1  H26B   69   2.187   3.487   8.687  1.1579 -0.9970  1.1801
    1CHL1  H26C   70   2.044   3.501   8.796  0.1145  0.3582  0.9027
    1CHL1   C27   71   2.277   3.750   8.763 -0.3942 -0.4803  0.0333
    1CHL1  H27A   72   2.362   3.797   8.818  0.3092 -0.7140 -0.8529
    1CHL1  H27B   73   2.323   3.702   8.674  2.9494  2.3845  0.1071
    1CHL1  H27C   74   2.207   3.822   8.715 -0.5888 -1.7823 -1.6528
    2CHL1    C3   75   2.446   1.385  10.018  0.2941  0.0390  0.1372
    2CHL1    H3   76   2.546   1.414   9.980  0.8865 -0.3784  1.3882
    2CHL1    O3   77   2.442   1.417  10.156  0.2752 -0.0286  0.0611
    2CHL1   H3'   78   2.354   1.390  10.184 -1.1555 -0.9303 -4.8030
    2CHL1    C4   79   2.327   1.449   9.946  0.0051 -0.5989 -0.6692
    2CHL1   H4A   80   2.233   1.415   9.993 -0.9518  1.7043 -0.8612
    2CHL1   H4B   81   2.322   1.557   9.971  0.9768 -0.8037  0.4447
    2CHL1    C5   82   2.344   1.413   9.798  0.0153 -0.2794 -0.7436
    2CHL1    C6   83   2.360   1.512   9.708  0.7386  0.7612 -0.4791
    2CHL1    H6   84   2.366   1.613   9.752 -0.6559  0.9061 -0.5881
    2CHL1    C7   85   2.358   1.481   9.556 -0.3499 -0.3644 -0.1322
    2CHL1   H7A   86   2.283   1.541   9.501  0.0162  1.1437  0.9674
    2CHL1   H7B   87   2.457   1.511   9.515 -0.2662 -0.3002  0.1178
    2CHL1    C8   88   2.333   1.327   9.523 -0.6511  0.1081 -0.0072
    2CHL1    H8   89   2.222   1.326   9.517 -0.5927  2.2747 -1.8044
    2CHL1   C14   90   2.375   1.294   9.378  0.2444  0.3208  0.2358
    2CHL1   H14   91   2.485   1.302   9.389  0.2515  3.3728 -1.2822
    2CHL1   C15   92   2.331   1.382   9.270 -0.0792 -0.0849  0.3665
    2CHL1  H15A   93   2.226   1.415   9.289 -0.9623 -2.5068 -0.0730
    2CHL1  H15B   94   2.392   1.474   9.261  0.1145 -0.0992  1.5415
    2CHL1   C16   95   2.333   1.302   9.141  0.1448  0.0193  0.5889
    2CHL1  H16A   96   2.229   1.301   9.101 -0.2566  2.3405  1.4534
    2CHL1  H16B   97   2.408   1.351   9.076  1.3036  0.3695  2.1467
    2CHL1   C17   98   2.385   1.157   9.185 -0.1575 -0.2887 -0.2962
    2CHL1   H17   99   2.496   1.159   9.185 -0.1466  2.9124  0.8227
    2CHL1   C13  100   2.347   1.144   9.332 -0.6202 -0.7142  0.6645
    2CHL1   C18  101   2.193   1.117   9.335 -0.5085 -0.1074 -0.4333
    2CHL1  H18A  102   2.162   1.124   9.442 -0.9315  0.0644 -0.5670
    2CHL1  H18B  103   2.128   1.194   9.288 -1.9052 -0.3995  0.9981
    2CHL1  H18C  104   2.170   1.020   9.288 -1.0418  0.0037 -0.4020
    2CHL1   C12  105   2.435   1.054   9.426  0.3945  0.6220  0.1641
    2CHL1  H12A  106   2.414   0.946   9.413  1.2966  0.3610  0.8208
    2CHL1  H12B  107   2.543   1.070   9.405  0.7592 -2.5322 -0.5987
    2CHL1   C11  108   2.404   1.088   9.581  0.9579  0.5449  0.0615
    2CHL1  H11A  109   2.304   1.040   9.589  0.7433  1.0505  0.4311
    2CHL1  H11B  110   2.477   1.026   9.637  0.0924 -0.1729  0.4112
    2CHL1    C9  111   2.403   1.236   9.625  0.1733  0.2626 -0.4037
    2CHL1    H9  112   2.509   1.267   9.614  0.1275  0.3793 -0.5133
    2CHL1   C10  113   2.349   1.260   9.772 -0.4715  0.7950  0.3955
    2CHL1   C19  114   2.202   1.210   9.788 -0.1996 -0.7514  0.6409
    2CHL1  H19A  115   2.132   1.274   9.730  2.4345  1.2305 -0.4493
    2CHL1  H19B  116   2.201   1.099   9.782 -3.6018 -0.6875 -1.8127
    2CHL1  H19C  117   2.167   1.239   9.890 -0.3174 -0.4941  0.5287
    2CHL1    C1  118   2.442   1.185   9.870 -0.4770  0.1378 -0.8186
    2CHL1   H1A  119   2.431   1.074   9.865  1.1495 -0.0147 -1.0539
    2CHL1   H1B  120   2.546   1.216   9.847 -0.7052  0.7308 -1.0577
    2CHL1    C2  121   2.424   1.234  10.016 -0.4822  0.1964 -0.0869
    2CHL1   H2A  122   2.502   1.189  10.081  0.5638  1.5709 -0.3746
    2CHL1   H2B  123   2.323   1.198  10.045  0.6972 -0.2666  3.6830
    2CHL1   C20  124   2.342   1.057   9.077 -0.1029 -0.4246 -0.1201
    2CHL1   H20  125   2.232   1.050   9.063 -0.2601 -1.7858  1.6719
    2CHL1   C21  126   2.382   0.920   9.118 -0.2604 -0.0790  0.4546
    2CHL1  H21A  127   2.372   0.836   9.046  4.8663 -1.0305  0.6173
    2CHL1  H21B  128   2.328   0.886   9.209 -0.5723  0.7452  0.5775
    2CHL1  H21C  129   2.491   0.928   9.140 -0.2021  1.6613 -0.4422
    2CHL1   C22  130   2.401   1.079   8.937  0.0878 -0.2875  0.4228
    2CHL1  H22A  131   2.371   1.181   8.905  2.3536  0.2768  0.0760
    2CHL1  H22B  132   2.510   1.075   8.956 -0.1428  0.6827  2.0086
    2CHL1   C23  133   2.353   0.978   8.833 -0.1302  0.0064  0.4032
    2CHL1  H23A  134   2.389   0.878   8.865 -0.2603  0.1279  0.9418
    2CHL1  H23B  135   2.242   0.972   8.830 -0.0879 -0.7451  0.1821
    2CHL1   C24  136   2.409   0.997   8.688 -0.2271  0.0913 -0.5195
    2CHL1  H24A  137   2.420   1.107   8.674 -0.1441  0.4652  2.2647
    2CHL1  H24B  138   2.509   0.949   8.684 -0.6338 -1.3475  3.7586
    2CHL1   C25  139   2.316   0.940   8.577 -0.1641 -0.0501  0.0808
    2CHL1   H25  140   2.215   0.986   8.578  0.2266  0.8059  1.3384
    2CHL1   C26  141   2.373   0.966   8.435  0.4567  0.4125  0.0458
    2CHL1  H26A  142   2.450   0.886   8.427 -2.6543 -2.9941  2.5939
    2CHL1  H26B  143   2.297   0.938   8.359  0.3458  2.4275 -0.6245
    2CHL1  H26C  144   2.411   1.069   8.419  3.3192 -0.5972  0.1005
    2CHL1   C27  145   2.281   0.790   8.600 -0.1164  0.3644  0.9510
    2CHL1  H27A  146   2.222   0.773   8.692 -2.1254  1.2896 -0.1283
    2CHL1  H27B  147   2.224   0.754   8.511  1.5776 -0.2033  0.0719
    2CHL1  H27C  148   2.376   0.733   8.609  0.0895  0.2694 -1.3628
    3CHL1    C3  149   2.747   0.898  10.299 -0.6397 -0.2229  0.0866
    3CHL1    H3  150   2.702   0.798  10.317  0.0816 -0.4844  0.4642
    3CHL1    O3  151   2.744   0.965  10.426  0.2892  0.0239 -0.4590
    3CHL1   H3'  152   2.793   1.046  10.414 -1.5415  1.4112  0.9750
    3CHL1    C4  153   2.893   0.882  10.247 -0.6652 -0.1716  0.5235
    3CHL1   H4A  154   2.955   0.973  10.261  2.1474 -1.7190 -1.5883
    3CHL1   H4B  155   2.934   0.815  10.326  0.2003 -0.4734 -0.1903
    3CHL1    C5  156   2.913   0.833  10.104 -0.0059 -0.2722  0.2950
    3CHL1    C6  157   2.981   0.731  10.072  0.2913 -0.0565  0.2146
    3CHL1    H6  158   3.040   0.677  10.147  2.3226 -0.5092 -1.6760
    3CHL1    C7  159   2.999   0.687   9.933 -0.2322 -0.7522 -0.6232
    3CHL1   H7A  160   3.102   0.645   9.924 -0.8796 -2.3324 -0.9640
    3CHL1   H7B  161   2.933   0.599   9.913 -0.6390 -0.4591 -0.5663
    3CHL1    C8  162   2.972   0.790   9.825 -1.0155 -0.6211 -0.3165
    3CHL1    H8  163   3.051   0.868   9.819 -2.9949  1.3106 -1.5749
    3CHL1   C14  164   2.967   0.723   9.694 -0.7738  0.3835 -0.3613
    3CHL1   H14  165   2.880   0.653   9.700  2.9218 -4.4142  0.7108
    3CHL1   C15  166   3.090   0.645   9.648  0.3493  0.3897  0.0068
    3CHL1  H15A  167   3.184   0.699   9.671 -0.8426  1.1800  3.3361
    3CHL1  H15B  168   3.097   0.542   9.691  1.0949  1.0922  1.6002
    3CHL1   C16  169   3.066   0.634   9.493  0.0391 -0.2738  0.4915
    3CHL1  H16A  170   3.148   0.691   9.446  0.9509 -2.1390 -0.2177
    3CHL1  H16B  171   3.047   0.528   9.467 -2.0820 -0.7208  3.5855
    3CHL1   C17  172   2.936   0.718   9.453  0.4666 -0.2298 -0.6351
    3CHL1   H17  173   2.854   0.644   9.468 -0.2171  0.1694 -2.2069
    3CHL1   C13  174   2.925   0.814   9.576  0.3494 -1.2581 -0.3244
    3CHL1   C18  175   3.023   0.928   9.553 -0.1004 -0.0312  0.7350
    3CHL1  H18A  176   2.997   0.994   9.468 -0.1652 -0.3598  0.4969
    3CHL1  H18B  177   3.040   0.984   9.648 -2.0425 -0.5618  1.4233
    3CHL1  H18C  178   3.123   0.887   9.528  0.7335  3.1922 -1.4034
    3CHL1   C12  179   2.781   0.873   9.602 -0.6461 -0.5093  0.5847
    3CHL1  H12A  180   2.749   0.942   9.521 -3.1853 -0.6025  1.4622
    3CHL1  H12B  181   2.712   0.786   9.603  0.0399 -1.0692 -0.1997
    3CHL1   C11  182   2.772   0.936   9.739 -0.1356  0.6206  0.3069
    3CHL1  H11A  183   2.818   1.037   9.728  0.5886  0.4205  1.4118
    3CHL1  H11B  184   2.664   0.954   9.759 -0.5616  0.3599 -1.6113
    3CHL1    C9  185   2.832   0.851   9.859  0.7225  0.0332 -0.5752
    3CHL1    H9  186   2.775   0.756   9.868  2.5586 -0.8511  2.4722
    3CHL1   C10  187   2.829   0.916  10.005  0.0439  0.0765 -0.1032
    3CHL1   C19  188   2.895   1.060  10.001 -0.1495  0.0106  0.0747
    3CHL1  H19A  189   2.885   1.108  10.101 -0.3163  0.4145 -0.1367
    3CHL1  H19B  190   3.003   1.045   9.984  0.0151 -0.1821  1.2378
    3CHL1  H19C  191   2.849   1.123   9.922 -1.4926 -0.8754  0.1200
    3CHL1    C1  192   2.676   0.918  10.056  0.0299 -0.7722 -0.1490
    3CHL1   H1A  193   2.624   0.990   9.990  2.3351  3.5208  2.4513
    3CHL1   H1B  194   2.650   0.811  10.047  0.1515 -1.0757  2.6504
    3CHL1    C2  195   2.652   0.974  10.205 -0.4536  0.2091  0.6399
    3CHL1   H2A  196   2.543   0.968  10.227 -0.5037 -1.3411 -0.0172
    3CHL1   H2B  197   2.681   1.081  10.200  0.9030 -0.0516  2.6264
    3CHL1   C20  198   2.926   0.771   9.311  0.3364  0.2498  0.1587
    3CHL1   H20  199   3.016   0.834   9.297  0.6759 -0.2704 -0.0318
    3CHL1   C21  200   2.792   0.831   9.279 -0.6277 -0.1170  0.5498
    3CHL1  H21A  201   2.774   0.834   9.170  1.9960  2.8110  0.1211
    3CHL1  H21B  202   2.783   0.936   9.315  0.0947 -0.7448  2.6700
    3CHL1  H21C  203   2.709   0.769   9.321  0.3794 -0.4487  2.1191
    3CHL1   C22  204   2.945   0.654   9.207  0.0721  0.6976 -0.4614
    3CHL1  H22A  205   3.030   0.587   9.232 -0.2998  0.9992  1.6440
    3CHL1  H22B  206   2.854   0.591   9.210  1.1121 -0.7312  2.8109
    3CHL1   C23  207   2.965   0.694   9.061  0.5957 -0.6335  0.2359
    3CHL1  H23A  208   2.981   0.602   9.000  1.8407  0.3295 -0.9333
    3CHL1  H23B  209   2.874   0.739   9.017  0.1485 -1.5608  0.2029
    3CHL1   C24  210   3.075   0.801   9.043  0.4280  0.0192  0.7746
    3CHL1  H24A  211   3.050   0.900   9.086  3.1915  1.2462 -0.3132
    3CHL1  H24B  212   3.161   0.780   9.110 -0.5858  0.1515  2.1441
    3CHL1   C25  213   3.133   0.821   8.900  0.3051 -0.3867  0.2982
    3CHL1   H25  214   3.045   0.847   8.836  0.3908 -1.2401 -0.1789
    3CHL1   C26  215   3.238   0.935   8.891  0.5955 -0.0353  0.1829
    3CHL1  H26A  216   3.294   0.940   8.795  0.1301 -1.9909 -0.2125
    3CHL1  H26B  217   3.193   1.035   8.909  0.3115  0.0901 -1.1148
    3CHL1  H26C  218   3.318   0.919   8.967  0.7221 -1.2620 -0.1954
    3CHL1   C27  219   3.188   0.692   8.834  0.2000  0.8678  0.1781
    3CHL1  H27A  220   3.259   0.642   8.903  0.4249  1.5495  0.4479
    3CHL1  H27B  221   3.099   0.627   8.819 -0.0986  1.0488  1.1381
    3CHL1  H27C  222   3.226   0.713   8.732  2.9814 -0.5046  0.8998
    4CHL1    C3  223   2.955   2.914  10.453  0.4766 -0.9532  0.3126
    4CHL1    H3  224   3.038   2.984  10.428 -0.9345  1.0352  1.0873
    4CHL1    O3  225   2.927   2.900  10.589 -0.7467 -0.3331 -0.1926
    4CHL1   H3'  226   3.007   2.881  10.639 -0.3507  0.9696 -0.3224
    4CHL1    C4  227   2.829   2.957  10.375 -0.2261 -1.3195 -0.0345
    4CHL1   H4A  228   2.738   2.904  10.412 -0.1640  0.0082  2.0710
    4CHL1   H4B  229   2.790   3.058  10.397 -1.4445 -1.4922 -1.2661
    4CHL1    C5  230   2.847   2.958  10.226 -0.0532  0.7593  0.5011
    4CHL1    C6  231   2.851   3.072  10.151  1.0506  0.6061 -0.0215
    4CHL1    H6  232   2.812   3.164  10.197  0.9408  1.6917 -2.2264
    4CHL1    C7  233   2.875   3.077  10.003  0.5248 -0.4805  0.0921
    4CHL1   H7A  234   2.817   3.155   9.950  0.1420 -0.3707  0.6689
    4CHL1   H7B  235   2.983   3.101   9.991  0.8752 -1.5290  1.0268
    4CHL1    C8  236   2.844   2.941   9.935  0.2837  0.0715 -0.1177
    4CHL1    H8  237   2.736   2.920   9.947  0.4654  0.3850  2.2296
    4CHL1   C14  238   2.876   2.944   9.786 -0.4810  0.4353  0.8301
    4CHL1   H14  239   2.983   2.977   9.781  0.0188 -1.2111  0.3269
    4CHL1   C15  240   2.811   3.053   9.684  0.4767  0.2827  0.3790
    4CHL1  H15A  241   2.705   3.076   9.706  0.1321 -2.6123  2.0321
    4CHL1  H15B  242   2.873   3.145   9.692 -1.2110  1.4613  0.0650
    4CHL1   C16  243   2.830   2.986   9.546  0.1572  0.3601  0.1235
    4CHL1  H16A  244   2.730   2.976   9.500  1.4618 -0.7323 -2.6159
    4CHL1  H16B  245   2.901   3.044   9.482  0.8175 -1.5948 -0.9537
    4CHL1   C17  246   2.900   2.849   9.574  0.4900 -0.3793 -0.1609
    4CHL1   H17  247   3.007   2.877   9.569  0.6313 -0.5651  1.6472
    4CHL1   C13  248   2.870   2.809   9.718  0.0361  0.3541  0.1939
    4CHL1   C18  249   2.721   2.770   9.723  0.4595 -0.4196 -0.0918
    4CHL1  H18A  250   2.654   2.851   9.689  0.6103 -0.6094 -0.8413
    4CHL1  H18B  251   2.712   2.675   9.666 -0.5800 -0.7037  0.5307
    4CHL1  H18C  252   2.683   2.759   9.827 -2.8376  1.1934 -1.0881
    4CHL1   C12  253   2.970   2.708   9.781 -0.2159  0.3160  0.2735
    4CHL1  H12A  254   2.960   2.609   9.731 -1.5664  0.9816 -0.8082
    4CHL1  H12B  255   3.077   2.735   9.778  0.0887 -1.0882 -2.2229
    4CHL1   C11  256   2.935   2.694   9.932  0.9559 -0.5519 -0.0820
    4CHL1  H11A  257   2.834   2.646   9.929  0.2067  0.9944 -0.2396
    4CHL1  H11B  258   3.006   2.640   9.997  2.3531  0.9736 -0.3105
    4CHL1    C9  259   2.928   2.831  10.012  0.3663  1.0206 -0.7620
    4CHL1    H9  260   3.032   2.871  10.008  0.9630 -0.7282 -4.4426
    4CHL1   C10  261   2.892   2.824  10.163  0.2261 -0.4933 -0.8788
    4CHL1   C19  262   2.786   2.706  10.181 -0.7682  0.2739  0.3282
    4CHL1  H19A  263   2.766   2.697  10.290 -2.1000  1.5943  0.2177
    4CHL1  H19B  264   2.696   2.736  10.124 -0.2234 -0.2495 -0.8040
    4CHL1  H19C  265   2.828   2.615  10.134 -1.3844 -0.1739  0.6317
    4CHL1    C1  266   3.014   2.780  10.244 -0.6711  0.4318  0.2273
    4CHL1   H1A  267   3.062   2.684  10.216 -0.5693  0.3164  0.7784
    4CHL1   H1B  268   3.090   2.854  10.212  0.0068  0.5666  2.0685
    4CHL1    C2  269   3.009   2.779  10.400 -0.1670 -0.0733  0.2344
    4CHL1   H2A  270   3.113   2.758  10.434 -0.4150 -2.7838 -0.6062
    4CHL1   H2B  271   2.943   2.695  10.431  1.5904 -1.6653 -0.2795
    4CHL1   C20  272   2.877   2.737   9.465  0.4131 -0.1143 -0.3040
    4CHL1   H20  273   2.886   2.643   9.525  0.8619  0.4729  0.5585
    4CHL1   C21  274   2.986   2.735   9.360 -0.9060 -0.9300 -0.9448
    4CHL1  H21A  275   3.086   2.728   9.407 -0.5434 -2.3972 -1.9088
    4CHL1  H21B  276   2.990   2.828   9.299 -0.2127 -0.7951 -0.7009
    4CHL1  H21C  277   2.977   2.642   9.299  0.6133 -1.0527 -1.0072
    4CHL1   C22  278   2.739   2.747   9.390  0.5195  0.0437 -0.6334
    4CHL1  H22A  279   2.658   2.767   9.463 -0.6897 -1.9922 -1.3632
    4CHL1  H22B  280   2.746   2.835   9.324 -2.5861  1.1015  0.3868
    4CHL1   C23  281   2.713   2.624   9.300  0.8188  0.0550 -0.4245
    4CHL1  H23A  282   2.777   2.628   9.209  1.3718  0.7957 -0.0054
    4CHL1  H23B  283   2.721   2.527   9.353 -0.4287 -0.3515 -0.9594
    4CHL1   C24  284   2.563   2.628   9.263  0.0207 -0.7067 -0.0601
    4CHL1  H24A  285   2.492   2.653   9.345 -2.3046  0.0673 -2.2223
    4CHL1  H24B  286   2.549   2.712   9.191  0.1375 -2.2852 -1.9794
    4CHL1   C25  287   2.519   2.502   9.188  0.5384  0.7516  0.1502
    4CHL1   H25  288   2.521   2.418   9.261  0.5479 -1.7992 -2.6971
    4CHL1   C26  289   2.374   2.525   9.139 -0.4854  0.0485  0.0826
    4CHL1  H26A  290   2.327   2.425   9.125 -0.9867  0.1972  0.6675
    4CHL1  H26B  291   2.300   2.577   9.204  0.9120  0.7227  1.1524
    4CHL1  H26C  292   2.376   2.570   9.037  1.0706 -0.1599  0.0097
    4CHL1   C27  293   2.619   2.470   9.078  0.1901  0.0386  0.8403
    4CHL1  H27A  294   2.612   2.557   9.009 -1.9468  0.5002  1.6138
    4CHL1  H27B  295   2.725   2.453   9.104 -0.0095  1.1616  2.4981
    4CHL1  H27C  296   2.584   2.385   9.017  0.0515 -0.7872  2.0580
    5CHL1    C3  297   3.429   0.711  10.261 -0.4210  0.4726  0.0427
    5CHL1    H3  298   3.322   0.691  10.240  0.5545 -1.7239 -3.3515
    5CHL1    O3  299   3.450   0.731  10.397 -0.6144 -0.0556  0.2944
    5CHL1   H3'  300   3.545   0.744  10.408 -0.4843  0.5167 -1.3187
    5CHL1    C4  301   3.504   0.584  10.211 -0.5425 -0.4561 -0.0523
    5CHL1   H4A  302   3.611   0.587  10.241 -0.1827 -0.7606 -1.3122
    5CHL1   H4B  303   3.456   0.494  10.255  2.1520 -1.2930  1.3285
    5CHL1    C5  304   3.486   0.578  10.054 -0.7191 -0.2840 -0.2453
    5CHL1    C6  305   3.456   0.461   9.993  0.0597 -0.5012  0.5455
    5CHL1    H6  306   3.450   0.362  10.041 -0.6071 -0.1854  1.1305
    5CHL1    C7  307   3.454   0.441   9.846 -0.1029  0.2127  0.2305
    5CHL1   H7A  308   3.514   0.351   9.821 -0.9754 -0.7094  1.3690
    5CHL1   H7B  309   3.350   0.429   9.809 -0.6996  0.6431  1.7387
    5CHL1    C8  310   3.510   0.559   9.765  0.4651  0.1429  0.0939
    5CHL1    H8  311   3.620   0.548   9.763  0.4234 -1.0825  2.2096
    5CHL1   C14  312   3.477   0.547   9.617  0.3158 -0.3325  0.2313
    5CHL1   H14  313   3.366   0.541   9.617  0.4456 -3.3141  1.5756
    5CHL1   C15  314   3.514   0.425   9.542 -0.6295  0.2133 -1.2401
    5CHL1  H15A  315   3.618   0.394   9.566  0.2432  2.5332 -1.8556
    5CHL1  H15B  316   3.454   0.336   9.569  0.5101 -0.0574  0.4782
    5CHL1   C16  317   3.519   0.457   9.390 -0.3205  0.8738  0.1874
    5CHL1  H16A  318   3.620   0.443   9.348 -1.3901 -1.1308 -1.8215
    5CHL1  H16B  319   3.445   0.395   9.336  1.5800  0.4016 -1.9171
    5CHL1   C17  320   3.492   0.609   9.391 -0.7915  0.3065 -0.0132
    5CHL1   H17  321   3.382   0.625   9.389 -0.7976  0.2016 -0.6325
    5CHL1   C13  322   3.532   0.659   9.530  0.0833 -0.2604  0.1679
    5CHL1   C18  323   3.693   0.667   9.535  0.4849  0.0374  0.2448
    5CHL1  H18A  324   3.733   0.663   9.639 -0.4284  0.0144  0.6089
    5CHL1  H18B  325   3.737   0.584   9.477  2.7960  1.6709 -0.4120
    5CHL1  H18C  326   3.728   0.761   9.487  0.2175  1.1444  2.1299
    5CHL1   C12  327   3.462   0.781   9.584 -0.3713 -0.6213 -0.2984
    5CHL1  H12A  328   3.508   0.864   9.526  2.0077 -1.3373  0.5047
    5CHL1  H12B  329   3.352   0.787   9.572 -0.2628  0.6107 -0.7350
    5CHL1   C11  330   3.497   0.810   9.731  0.6210  0.1588 -0.0719
    5CHL1  H11A  331   3.607   0.824   9.746  0.5570  0.4523  0.1206
    5CHL1  H11B  332   3.438   0.901   9.755  0.8637 -0.1622  1.9082
    5CHL1    C9  333   3.467   0.694   9.832 -0.1368 -0.5083 -0.2762
    5CHL1    H9  334   3.357   0.698   9.844  0.0840  1.7976  1.1433
    5CHL1   C10  335   3.525   0.709   9.979  1.5043 -0.7731 -0.0576
    5CHL1   C19  336   3.676   0.742   9.974 -0.0910  0.0706 -0.0673
    5CHL1  H19A  337   3.712   0.745  10.079  4.2199  1.2739 -1.4655
    5CHL1  H19B  338   3.730   0.667   9.912 -0.5285 -0.9834  0.8121
    5CHL1  H19C  339   3.698   0.843   9.934  2.3277 -1.0461 -1.6708
    5CHL1    C1  340   3.450   0.825  10.041  0.5739 -0.2134  0.8649
    5CHL1   H1A  341   3.474   0.921   9.990 -2.3017  0.4462  0.6963
    5CHL1   H1B  342   3.343   0.802  10.024  1.2798 -1.2466 -2.4409
    5CHL1    C2  343   3.476   0.836  10.192  0.4938  1.1263 -0.3069
    5CHL1   H2A  344   3.412   0.912  10.241 -0.4209  0.9555 -1.2105
    5CHL1   H2B  345   3.582   0.862  10.215  0.3521  0.3382  1.3230
    5CHL1   C20  346   3.553   0.688   9.275  0.1011  0.0191  0.6458
    5CHL1   H20  347   3.661   0.713   9.281  0.8410 -2.6307 -0.7305
    5CHL1   C21  348   3.478   0.820   9.259  0.1849  0.0450  0.0261
    5CHL1  H21A  349   3.516   0.893   9.333 -0.2970 -0.0665  0.3800
    5CHL1  H21B  350   3.367   0.822   9.263  0.1416 -1.9166  0.6739
    5CHL1  H21C  351   3.524   0.876   9.174 -1.2591  0.2924 -0.5986
    5CHL1   C22  352   3.538   0.611   9.138  0.4512 -0.0255  0.1822
    5CHL1  H22A  353   3.601   0.521   9.155  1.4896  0.6751  0.0840
    5CHL1  H22B  354   3.433   0.575   9.133  0.2054  0.6903  0.1225
    5CHL1   C23  355   3.585   0.671   9.008  1.0179  0.1006  0.0398
    5CHL1  H23A  356   3.514   0.753   8.982 -0.0471 -1.3082 -1.5983
    5CHL1  H23B  357   3.684   0.722   9.003  1.3955 -0.7382 -1.4536
    5CHL1   C24  358   3.585   0.564   8.899  0.3688 -1.0269  0.2347
    5CHL1  H24A  359   3.672   0.496   8.900  0.7988 -0.5216 -1.4271
    5CHL1  H24B  360   3.499   0.499   8.929  0.3313 -0.9414  0.3136
    5CHL1   C25  361   3.561   0.611   8.757 -0.4175  0.5182  0.1776
    5CHL1   H25  362   3.492   0.698   8.762 -1.1115 -0.0304  0.2603
    5CHL1   C26  363   3.699   0.644   8.695  0.0120  0.2982  0.0616
    5CHL1  H26A  364   3.676   0.672   8.590  0.4772 -0.6322 -0.2851
    5CHL1  H26B  365   3.750   0.733   8.737 -0.1286  1.2031 -1.6361
    5CHL1  H26C  366   3.762   0.553   8.694 -0.7591 -0.2437  0.7502
    5CHL1   C27  367   3.486   0.511   8.668 -0.0028 -0.5847  0.2233
    5CHL1  H27A  368   3.379   0.496   8.694  0.3375 -0.4145  1.7702
    5CHL1  H27B  369   3.485   0.543   8.561 -1.0777  0.6251  0.5861
    5CHL1  H27C  370   3.541   0.415   8.678  2.3070  0.9306  2.7927
    6CHL1    C3  371   1.779   4.924  10.286 -0.0658  0.2237  0.2465
    6CHL1    H3  372   1.811   5.027  10.258  0.8338  0.5172  2.2406
    6CHL1    O3  373   1.738   4.930  10.422 -0.1618 -0.1664  0.7050
    6CHL1   H3'  374   1.700   4.845  10.446  0.1616 -0.9416 -1.3971
    6CHL1    C4  375   1.664   4.870  10.207 -0.1688 -0.2154  0.9196
    6CHL1   H4A  376   1.636   4.771  10.249 -0.2436  0.0674  1.5399
    6CHL1   H4B  377   1.575   4.934  10.222 -1.9739 -2.4071 -0.1240
    6CHL1    C5  378   1.692   4.872  10.059  0.6654  0.3270  0.0778
    6CHL1    C6  379   1.630   4.952   9.967 -0.6994  0.0100 -0.0066
    6CHL1    H6  380   1.548   5.017  10.001  2.1593  1.4723  4.7052
    6CHL1    C7  381   1.660   4.946   9.815  0.1726  0.5011  0.2318
    6CHL1   H7A  382   1.558   4.949   9.770  1.6855 -0.6129 -3.4078
    6CHL1   H7B  383   1.719   5.032   9.776 -2.6467  1.7597 -1.4122
    6CHL1    C8  384   1.730   4.815   9.771 -0.5544 -0.0464  0.2312
    6CHL1    H8  385   1.654   4.734   9.778  0.0390 -0.4525  2.1492
    6CHL1   C14  386   1.775   4.824   9.623  0.6145 -0.1652 -0.3827
    6CHL1   H14  387   1.849   4.906   9.612 -1.5788  1.9620  0.2529
    6CHL1   C15  388   1.663   4.845   9.520 -0.7560  0.1839 -0.0920
    6CHL1  H15A  389   1.582   4.770   9.529  0.5697 -1.2993 -0.1011
    6CHL1  H15B  390   1.623   4.948   9.523 -3.6570 -0.8891 -0.8207
    6CHL1   C16  391   1.736   4.818   9.384 -0.4023  0.9908 -0.0269
    6CHL1  H16A  392   1.678   4.740   9.329  1.5626 -1.1180  0.8120
    6CHL1  H16B  393   1.762   4.910   9.327 -0.6626  2.7318  2.6184
    6CHL1   C17  394   1.868   4.740   9.427  0.1776  0.2504  0.6914
    6CHL1   H17  395   1.948   4.817   9.430  0.4261  0.0949 -1.0734
    6CHL1   C13  396   1.853   4.701   9.582  0.5214 -0.0063  0.8833
    6CHL1   C18  397   1.781   4.568   9.584  0.2441 -0.2568 -0.7914
    6CHL1  H18A  398   1.714   4.554   9.672  0.0954 -0.2719 -0.9079
    6CHL1  H18B  399   1.708   4.558   9.501  0.8205  0.6298 -1.4063
    6CHL1  H18C  400   1.857   4.488   9.574  0.8676  0.2426 -0.1718
    6CHL1   C12  401   1.980   4.712   9.664  0.1219  0.1687 -0.1171
    6CHL1  H12A  402   2.061   4.650   9.620  1.4308  1.6498  0.1818
    6CHL1  H12B  403   2.031   4.810   9.650  2.8993 -1.0474  1.1213
    6CHL1   C11  404   1.943   4.683   9.814  0.3492  0.1215 -0.7102
    6CHL1  H11A  405   1.912   4.577   9.831  0.2604  0.1299 -0.8218
    6CHL1  H11B  406   2.036   4.692   9.874  0.9625  3.4736 -2.0784
    6CHL1    C9  407   1.847   4.787   9.868 -0.4068  0.0754  0.5097
    6CHL1    H9  408   1.902   4.883   9.857 -1.2327  0.3979 -0.9228
    6CHL1   C10  409   1.810   4.785  10.017 -0.2906 -0.5361  0.6054
    6CHL1   C19  410   1.784   4.640  10.050 -0.2373  0.3484 -0.1253
    6CHL1  H19A  411   1.700   4.599   9.990 -1.5874  1.9585  0.6210
    6CHL1  H19B  412   1.877   4.579  10.040 -0.6880 -0.3401 -0.1557
    6CHL1  H19C  413   1.755   4.612  10.153  0.7190  2.8774  0.8642
    6CHL1    C1  414   1.936   4.831  10.104  0.0212 -0.0073 -0.2896
    6CHL1   H1A  415   2.014   4.753  10.090 -0.2123 -0.9151  3.1602
    6CHL1   H1B  416   1.974   4.928  10.067  0.6441 -0.0845  0.1379
    6CHL1    C2  417   1.904   4.841  10.256 -0.0446  0.0040 -0.4207
    6CHL1   H2A  418   1.986   4.896  10.308 -0.5992  0.7435 -0.3061
    6CHL1   H2B  419   1.880   4.744  10.303 -0.2491  1.1820  1.9627
    6CHL1   C20  420   1.901   4.630   9.321  0.5016  0.6569 -0.3853
    6CHL1   H20  421   1.827   4.548   9.332  1.4623  0.1496  3.0217
    6CHL1   C21  422   2.035   4.573   9.363 -0.9514 -0.2018 -1.1359
    6CHL1  H21A  423   2.073   4.498   9.290  1.1332 -0.9747  0.6850
    6CHL1  H21B  424   2.022   4.517   9.458 -0.4702 -1.8349 -2.0106
    6CHL1  H21C  425   2.113   4.650   9.374  0.2113 -1.8362  3.0187
    6CHL1   C22  426   1.900   4.687   9.177  0.7372  0.5048  0.1808
    6CHL1  H22A  427   1.794   4.711   9.155  0.9473  0.4264 -0.9407
    6CHL1  H22B  428   1.958   4.780   9.161 -0.8117  1.3904 -0.3697
    6CHL1   C23  429   1.945   4.586   9.069  0.0648 -0.1148 -0.0295
    6CHL1  H23A  430   2.050   4.553   9.085 -0.9147 -1.8659  3.4130
    6CHL1  H23B  431   1.887   4.494   9.092  0.7652 -1.1148 -2.1915
    6CHL1   C24  432   1.932   4.626   8.919  0.2584  0.9287  0.4466
    6CHL1  H24A  433   1.824   4.629   8.894 -0.3914 -1.4425  2.7488
    6CHL1  H24B  434   1.963   4.733   8.917  4.1271 -0.1599 -1.2002
    6CHL1   C25  435   1.992   4.536   8.816  0.1145  0.7385  0.2185
    6CHL1   H25  436   2.103   4.543   8.829  0.4399 -2.5391 -0.4352
    6CHL1   C26  437   1.951   4.390   8.842  0.4139  0.1148  0.2593
    6CHL1  H26A  438   2.015   4.355   8.926 -0.8895 -2.5235  0.1875
    6CHL1  H26B  439   1.844   4.386   8.871  0.7010  0.4150  1.3837
    6CHL1  H26C  440   1.982   4.313   8.768  0.8140  0.0711  0.4733
    6CHL1   C27  441   1.949   4.585   8.681 -0.8113  0.2216 -0.2073
    6CHL1  H27A  442   1.989   4.686   8.658 -0.0322 -0.0979 -0.2542
    6CHL1  H27B  443   1.975   4.519   8.596  1.1280 -1.9718  2.0204
    6CHL1  H27C  444   1.838   4.587   8.689 -0.7352  1.3108  0.6532
    7CHL1    C3  445   4.260   1.386  10.477  0.3733  0.8079 -0.3147
    7CHL1    H3  446   4.287   1.283  10.443  0.4185  0.2199  1.4357
    7CHL1    O3  447   4.262   1.382  10.619 -0.1981  0.3797 -0.3446
    7CHL1   H3'  448   4.219   1.466  10.640 -1.4461 -0.3889  0.2425
    7CHL1    C4  449   4.349   1.493  10.416 -0.0903 -0.3765 -0.2113
    7CHL1   H4A  450   4.323   1.593  10.458 -0.2367 -0.6793  0.4145
    7CHL1   H4B  451   4.456   1.483  10.445  0.3123  1.4180 -0.9641
    7CHL1    C5  452   4.335   1.497  10.263  0.2186  0.1123  0.3710
    7CHL1    C6  453   4.445   1.484  10.189 -0.4590  0.4444  0.3475
    7CHL1    H6  454   4.543   1.470  10.237  0.1452 -0.1916 -1.0654
    7CHL1    C7  455   4.436   1.476  10.042 -0.2923 -0.6938 -0.4452
    7CHL1   H7A  456   4.520   1.527   9.989  2.0231 -2.0206  1.8485
    7CHL1   H7B  457   4.447   1.367  10.024  0.3995 -0.8994  1.1985
    7CHL1    C8  458   4.302   1.521   9.979  0.3842  0.2202  0.2254
    7CHL1    H8  459   4.306   1.632   9.978 -0.5985  0.2565 -0.3642
    7CHL1   C14  460   4.293   1.466   9.836  0.2300 -0.7206 -0.2839
    7CHL1   H14  461   4.273   1.357   9.845 -0.8254 -0.5989 -0.9837
    7CHL1   C15  462   4.410   1.472   9.749  0.1091  0.0312  0.1739
    7CHL1  H15A  463   4.465   1.566   9.730  0.7559  0.3489  3.3072
    7CHL1  H15B  464   4.483   1.395   9.780  0.7439  0.7330  0.4346
    7CHL1   C16  465   4.351   1.437   9.606 -0.0878  0.2515  0.3876
    7CHL1  H16A  466   4.377   1.508   9.524 -2.3231  1.1678  0.4343
    7CHL1  H16B  467   4.384   1.338   9.569 -2.1613 -0.9070  1.5245
    7CHL1   C17  468   4.196   1.432   9.616  0.7012 -0.3488 -0.5196
    7CHL1   H17  469   4.178   1.323   9.626  0.7963 -0.6835 -3.5442
    7CHL1   C13  470   4.169   1.510   9.753 -0.2628 -0.4360 -0.2510
    7CHL1   C18  471   4.169   1.668   9.726 -0.6801 -0.0774  0.0524
    7CHL1  H18A  472   4.261   1.697   9.672 -0.5903 -0.7910 -0.1834
    7CHL1  H18B  473   4.078   1.711   9.679  0.2919  2.6165  0.6096
    7CHL1  H18C  474   4.165   1.714   9.827  1.0509 -0.4543  0.3046
    7CHL1   C12  475   4.043   1.471   9.834  0.5719  0.5952  0.4911
    7CHL1  H12A  476   3.958   1.520   9.782  0.5751 -0.8226 -0.8892
    7CHL1  H12B  477   4.023   1.363   9.817  0.3581  0.4181  1.8148
    7CHL1   C11  478   4.046   1.516   9.986  0.0510 -0.2612 -0.2813
    7CHL1  H11A  479   4.043   1.626  10.001  1.4893 -0.1810 -0.4907
    7CHL1  H11B  480   3.957   1.467  10.030 -0.8487 -0.2883 -2.0988
    7CHL1    C9  481   4.179   1.481  10.060 -0.2261 -0.1180  0.4657
    7CHL1    H9  482   4.196   1.371  10.062 -0.7811 -0.2404 -0.9100
    7CHL1   C10  483   4.189   1.518  10.208 -0.7642  0.1072  0.2041
    7CHL1   C19  484   4.146   1.671  10.225  0.6132 -0.0509  0.2043
    7CHL1  H19A  485   4.037   1.680  10.204  0.8154  3.3494  0.3892
    7CHL1  H19B  486   4.156   1.702  10.331  0.0233  0.7724  0.0220
    7CHL1  H19C  487   4.204   1.739  10.159 -0.2185  0.2258 -0.2628
    7CHL1    C1  488   4.089   1.416  10.286 -0.0935  0.8538  0.7574
    7CHL1   H1A  489   3.984   1.449  10.269  0.0286 -0.1544 -2.2555
    7CHL1   H1B  490   4.102   1.312  10.250 -2.6236  0.1247  1.8953
    7CHL1    C2  491   4.107   1.420  10.441  0.1182  0.0520  0.2687
    7CHL1   H2A  492   4.050   1.344  10.499  1.0254  1.5288  3.2150
    7CHL1   H2B  493   4.089   1.521  10.483  2.1396  1.2535 -1.6341
    7CHL1   C20  494   4.137   1.483   9.487 -0.2033 -0.3024 -0.6863
    7CHL1   H20  495   4.179   1.584   9.468 -0.0603 -0.2063  0.1158
    7CHL1   C21  496   3.982   1.501   9.505 -0.2179 -0.7097  1.0780
    7CHL1  H21A  497   3.967   1.576   9.586 -0.5084 -0.8064  1.1130
    7CHL1  H21B  498   3.938   1.406   9.541 -1.5324  0.8110  3.6342
    7CHL1  H21C  499   3.933   1.537   9.412  0.6668 -2.6052 -0.1545
    7CHL1   C22  500   4.170   1.397   9.360  0.1824  0.5408  0.3906
    7CHL1  H22A  501   4.273   1.358   9.373 -0.5425 -1.8251 -0.5172
    7CHL1  H22B  502   4.099   1.313   9.343 -1.9025  2.4675 -0.6221
    7CHL1   C23  503   4.167   1.475   9.232 -0.0169 -0.5656 -0.1845
    7CHL1  H23A  504   4.064   1.518   9.230 -0.0761 -0.7298 -0.5729
    7CHL1  H23B  505   4.234   1.564   9.236 -0.7424 -0.0114 -0.3046
    7CHL1   C24  506   4.201   1.380   9.110  0.5833  0.0106  0.8877
    7CHL1  H24A  507   4.307   1.348   9.110  0.7035  0.3883 -0.0448
    7CHL1  H24B  508   4.139   1.287   9.112  0.6453  0.0032  3.0639
    7CHL1   C25  509   4.156   1.449   8.978 -0.4343 -0.0729  0.7843
    7CHL1   H25  510   4.051   1.485   8.990  0.2483  2.0513  0.6471
    7CHL1   C26  511   4.238   1.577   8.957 -0.2486  0.5225 -0.1190
    7CHL1  H26A  512   4.227   1.648   9.041 -0.5680  0.5415 -0.1763
    7CHL1  H26B  513   4.344   1.542   8.950 -0.8090 -1.4434  0.7810
    7CHL1  H26C  514   4.209   1.629   8.864  0.8330  2.1245  0.4176
    7CHL1   C27  515   4.179   1.353   8.859 -0.9627  0.2542  0.4894
    7CHL1  H27A  516   4.286   1.322   8.857 -1.0203  0.0637 -2.0314
    7CHL1  H27B  517   4.129   1.255   8.875  0.4085 -0.9756 -2.3812
    7CHL1  H27C  518   4.160   1.396   8.758  1.9425  0.8409  0.1433
    8CHL1    C3  519   4.722   2.987  10.322 -0.0211  0.8671  0.1321
    8CHL1    H3  520   4.831   2.968  10.308  0.2590  0.4160  2.7265
    8CHL1    O3  521   4.696   3.010  10.461 -0.1060 -0.2487 -0.1240
    8CHL1   H3'  522   4.634   3.082  10.471 -1.1844 -1.2045  0.1340
    8CHL1    C4  523   4.683   3.106  10.229  0.3932 -0.5524  0.0204
    8CHL1   H4A  524   4.578   3.114  10.265  0.4135  0.3317 -0.1040
    8CHL1   H4B  525   4.732   3.200  10.262  1.7054 -0.2973 -2.5433
    8CHL1    C5  526   4.696   3.081  10.081 -0.1176  0.0837  0.6244
    8CHL1    C6  527   4.780   3.157  10.013  0.5712  0.6847  0.1243
    8CHL1    H6  528   4.814   3.253  10.055  0.6409  1.5505 -1.8236
    8CHL1    C7  529   4.805   3.139   9.870  0.2139 -0.5775  0.2670
    8CHL1   H7A  530   4.785   3.237   9.822  1.6859 -0.5969 -0.4120
    8CHL1   H7B  531   4.916   3.133   9.868  0.1876 -0.7674 -1.8520
    8CHL1    C8  532   4.736   3.033   9.794 -0.8555  0.0895  0.0908
    8CHL1    H8  533   4.638   3.072   9.760  0.1539  3.3690  0.7002
    8CHL1   C14  534   4.808   2.986   9.659  0.0622  0.0628 -0.7792
    8CHL1   H14  535   4.904   2.940   9.689 -0.3157  0.3207  0.8449
    8CHL1   C15  536   4.847   3.088   9.552 -0.0877  0.3414 -0.6554
    8CHL1  H15A  537   4.762   3.159   9.544 -0.4878 -0.3235 -2.5316
    8CHL1  H15B  538   4.932   3.143   9.599 -2.4162  1.5336  2.3561
    8CHL1   C16  539   4.865   3.005   9.420  0.4617  0.5477 -1.0734
    8CHL1  H16A  540   4.780   3.044   9.360  0.2975 -0.2847 -1.3976
    8CHL1  H16B  541   4.967   3.015   9.378 -0.2461  0.1866 -2.9490
    8CHL1   C17  542   4.829   2.860   9.462  0.0494 -0.6461 -0.5466
    8CHL1   H17  543   4.921   2.810   9.499  1.1447  0.7060 -1.4357
    8CHL1   C13  544   4.734   2.879   9.578 -0.3692  0.0771  0.3530
    8CHL1   C18  545   4.598   2.931   9.531 -0.2135  0.0264  0.6289
    8CHL1  H18A  546   4.605   3.034   9.491  2.4478 -0.2281  0.3624
    8CHL1  H18B  547   4.546   2.869   9.455  0.3504  1.3410 -0.8620
    8CHL1  H18C  548   4.528   2.935   9.618  0.3081 -3.3698  1.2527
    8CHL1   C12  549   4.723   2.757   9.674 -0.5213 -0.5962  0.1067
    8CHL1  H12A  550   4.669   2.668   9.635 -0.2843 -0.8490  0.3493
    8CHL1  H12B  551   4.826   2.720   9.695  0.5660  0.3928 -3.2566
    8CHL1   C11  552   4.657   2.789   9.811  0.5380 -0.8243  0.1383
    8CHL1  H11A  553   4.547   2.791   9.800  0.5462  1.2263  0.3287
    8CHL1  H11B  554   4.681   2.697   9.869  0.5358  0.3351  2.0117
    8CHL1    C9  555   4.717   2.913   9.883 -0.3209  0.8132 -0.0609
    8CHL1    H9  556   4.821   2.884   9.911 -0.1636  1.9530  0.5644
    8CHL1   C10  557   4.642   2.952  10.022  0.4085  0.4102  0.2915
    8CHL1   C19  558   4.488   2.950  10.007  0.6377 -0.8833  1.0137
    8CHL1  H19A  559   4.463   3.016   9.921  2.6110  0.7091  1.6044
    8CHL1  H19B  560   4.447   2.849   9.985 -1.1814  0.0022  0.2360
    8CHL1  H19C  561   4.439   2.970  10.104 -0.0302  0.9432  0.3264
    8CHL1    C1  562   4.677   2.837  10.126 -0.3118  0.0014 -0.4121
    8CHL1   H1A  563   4.634   2.741  10.090  0.2954 -0.3689 -0.1574
    8CHL1   H1B  564   4.786   2.818  10.113 -0.6894 -0.8862 -2.4418
    8CHL1    C2  565   4.649   2.863  10.276  0.2536  1.1086  0.6733
    8CHL1   H2A  566   4.684   2.776  10.336 -0.6927 -0.8265 -1.5104
    8CHL1   H2B  567   4.539   2.859  10.292  0.1132 -0.3348 -0.5936
    8CHL1   C20  568   4.783   2.777   9.343 -0.0257 -0.3853  0.6998
    8CHL1   H20  569   4.682   2.814   9.316  0.4893  1.1954  0.9371
    8CHL1   C21  570   4.783   2.627   9.364  0.4800  0.1274  0.0999
    8CHL1  H21A  571   4.752   2.575   9.271  2.0529 -2.6850  1.0846
    8CHL1  H21B  572   4.705   2.594   9.436 -1.3289  1.7921 -1.0562
    8CHL1  H21C  573   4.879   2.579   9.392 -0.9846 -2.0055  1.6709
    8CHL1   C22  574   4.864   2.802   9.214 -0.2550  0.2040 -0.8689
    8CHL1  H22A  575   4.969   2.830   9.237 -0.3579 -0.7397  0.8735
    8CHL1  H22B  576   4.865   2.704   9.161  2.4374 -1.9623  2.8478
    8CHL1   C23  577   4.805   2.909   9.119  0.0746 -0.8627 -0.1970
    8CHL1  H23A  578   4.783   3.005   9.169  0.7968 -1.6498  1.6706
    8CHL1  H23B  579   4.877   2.927   9.037  0.8949 -0.5015  0.6069
    8CHL1   C24  580   4.659   2.865   9.064  0.3598 -0.0794  1.0748
    8CHL1  H24A  581   4.658   2.756   9.045  0.5270  0.2032 -0.6364
    8CHL1  H24B  582   4.585   2.885   9.144 -0.2317  1.7469  0.1186
    8CHL1   C25  583   4.619   2.954   8.947 -0.4170  1.0812  0.6752
    8CHL1   H25  584   4.705   2.941   8.878 -2.6742 -0.8393 -1.8437
    8CHL1   C26  585   4.494   2.913   8.871  0.1796  0.2824 -0.1586
    8CHL1  H26A  586   4.475   2.986   8.790 -2.6008 -2.9615 -2.5895
    8CHL1  H26B  587   4.508   2.822   8.808 -0.6837 -0.5151  0.7757
    8CHL1  H26C  588   4.406   2.893   8.937  0.5271  0.2573  0.2989
    8CHL1   C27  589   4.627   3.104   8.977 -0.2928  0.1805 -0.0460
    8CHL1  H27A  590   4.586   3.112   9.080  0.5235 -0.3197  0.3270
    8CHL1  H27B  591   4.728   3.151   8.982 -0.3183  0.3846 -1.3051
    8CHL1  H27C  592   4.555   3.165   8.920 -3.2671 -2.9765  0.1420
    9CHL1    C3  593   0.902   6.260  10.149 -0.4687  0.2583  0.8797
    9CHL1    H3  594   0.947   6.161  10.125  1.1131  1.0750  0.4131
    9CHL1    O3  595   0.922   6.292  10.285  0.6224  0.0548  0.1284
    9CHL1   H3'  596   0.999   6.348  10.296 -0.5978  2.3063 -2.4223
    9CHL1    C4  597   0.958   6.377  10.066  0.1496 -0.8201 -0.0272
    9CHL1   H4A  598   0.916   6.473  10.103 -0.2845 -0.2235 -2.0229
    9CHL1   H4B  599   1.066   6.389  10.089  0.5580  1.7806 -2.9672
    9CHL1    C5  600   0.933   6.339   9.917  0.2417 -0.2728 -0.0683
    9CHL1    C6  601   1.041   6.329   9.835  0.5294  0.3719 -0.3495
    9CHL1    H6  602   1.141   6.338   9.880 -0.6883 -0.3102  2.6305
    9CHL1    C7  603   1.034   6.311   9.686 -0.0818  0.0436 -0.5905
    9CHL1   H7A  604   1.089   6.386   9.625  0.0565  0.4976  0.0839
    9CHL1   H7B  605   1.069   6.209   9.662  1.8329 -0.1780  2.6963
    9CHL1    C8  606   0.880   6.307   9.632 -0.6462 -1.0712  0.6195
    9CHL1    H8  607   0.847   6.412   9.622  1.5802 -0.5582 -1.4539
    9CHL1   C14  608   0.882   6.225   9.501 -0.1607 -0.3781  0.9172
    9CHL1   H14  609   0.916   6.122   9.522  1.6193 -0.2093 -0.9480
    9CHL1   C15  610   0.975   6.272   9.384  0.8213  0.4771 -0.5742
    9CHL1  H15A  611   0.951   6.378   9.367 -0.2812  0.0158 -1.8909
    9CHL1  H15B  612   1.083   6.255   9.407  1.0995  3.0422  0.1609
    9CHL1   C16  613   0.916   6.194   9.273  0.3882  0.4429 -0.4010
    9CHL1  H16A  614   0.900   6.264   9.189  1.0755  1.6782  0.4838
    9CHL1  H16B  615   0.986   6.113   9.243 -1.0767 -1.7242  1.8229
    9CHL1   C17  616   0.776   6.129   9.305  0.1974 -0.5990 -0.2542
    9CHL1   H17  617   0.796   6.022   9.329  1.7212 -0.1184  0.6328
    9CHL1   C13  618   0.743   6.206   9.439 -0.4518 -0.1847  0.0298
    9CHL1   C18  619   0.682   6.345   9.402 -0.0987 -0.9665  0.0775
    9CHL1  H18A  620   0.588   6.334   9.344  1.8180  2.1582 -3.8779
    9CHL1  H18B  621   0.658   6.410   9.489 -0.3314 -0.8175 -0.0971
    9CHL1  H18C  622   0.744   6.401   9.329 -0.0553  1.1379  1.6834
    9CHL1   C12  623   0.656   6.135   9.541  0.0042 -0.1937 -0.0146
    9CHL1  H12A  624   0.554   6.121   9.498 -0.9473  0.8604  1.8098
    9CHL1  H12B  625   0.699   6.035   9.562 -0.5871 -0.7308 -1.3072
    9CHL1   C11  626   0.646   6.208   9.677  0.2972 -0.4409 -0.2149
    9CHL1  H11A  627   0.575   6.293   9.662 -0.4466 -1.0365 -0.0776
    9CHL1  H11B  628   0.594   6.141   9.748  0.6560 -0.5735 -0.0745
    9CHL1    C9  629   0.793   6.235   9.737  0.2115  0.7353 -0.4631
    9CHL1    H9  630   0.845   6.138   9.745  1.8230  1.6754  0.7483
    9CHL1   C10  631   0.788   6.299   9.881  0.2844 -0.6069 -0.9043
    9CHL1   C19  632   0.693   6.428   9.892  0.1473  0.3836 -0.1014
    9CHL1  H19A  633   0.587   6.398   9.881  0.2121  0.2118 -0.2493
    9CHL1  H19B  634   0.707   6.479   9.990  1.9381 -0.9697  0.3732
    9CHL1  H19C  635   0.716   6.499   9.809 -1.5536 -1.0806 -1.8755
    9CHL1    C1  636   0.733   6.192   9.984  0.0832  0.0059  0.2607
    9CHL1   H1A  637   0.625   6.169   9.972  0.2708 -0.1158 -1.2217
    9CHL1   H1B  638   0.783   6.098   9.954 -0.8959 -0.4676  0.1166
    9CHL1    C2  639   0.755   6.237  10.126  1.2156 -0.0147  0.5603
    9CHL1   H2A  640   0.719   6.161  10.200 -2.1154  1.5292  0.6055
    9CHL1   H2B  641   0.692   6.327  10.145 -0.7136 -0.3871 -3.6357
    9CHL1   C20  642   0.681   6.127   9.183  0.4293 -0.0887  0.4066
    9CHL1   H20  643   0.674   6.230   9.142  1.5037  0.4636  1.5583
    9CHL1   C21  644   0.551   6.062   9.235 -0.6669 -0.4869 -0.4825
    9CHL1  H21A  645   0.516   6.119   9.324  1.2461  0.0727 -0.0585
    9CHL1  H21B  646   0.571   5.962   9.279 -2.6015 -0.2674  0.9427
    9CHL1  H21C  647   0.472   6.061   9.157 -0.3552 -1.7606 -0.7933
    9CHL1   C22  648   0.747   6.043   9.069 -0.5258 -0.3023 -0.2281
    9CHL1  H22A  649   0.826   5.972   9.098 -0.3615 -0.9680 -2.2424
    9CHL1  H22B  650   0.663   5.986   9.023 -2.4329  2.2728 -0.0666
    9CHL1   C23  651   0.817   6.127   8.956  0.7820  0.3686 -0.1069
    9CHL1  H23A  652   0.748   6.181   8.888  1.5979  0.0751 -1.1740
    9CHL1  H23B  653   0.876   6.208   9.004 -0.7320  0.4359  1.7250
    9CHL1   C24  654   0.912   6.041   8.873 -0.5091  0.3972 -0.2755
    9CHL1  H24A  655   1.003   6.006   8.926  0.3150  2.1231 -0.5160
    9CHL1  H24B  656   0.856   5.953   8.834  1.9720 -0.8473 -1.1083
    9CHL1   C25  657   0.977   6.122   8.754 -0.1535  1.1918  0.5075
    9CHL1   H25  658   1.005   6.214   8.810 -0.8312  0.9992  1.1614
    9CHL1   C26  659   1.102   6.051   8.697 -0.3955  0.2483  1.2259
    9CHL1  H26A  660   1.153   6.123   8.630 -1.6721 -1.4172 -1.6148
    9CHL1  H26B  661   1.174   6.025   8.778  1.6743 -0.0996 -0.6669
    9CHL1  H26C  662   1.081   5.964   8.631  2.0098 -0.4310  1.2826
    9CHL1   C27  663   0.883   6.154   8.637  0.4428 -0.4767 -0.2098
    9CHL1  H27A  664   0.858   6.054   8.594 -1.0899 -0.8079  1.4007
    9CHL1  H27B  665   0.789   6.202   8.671  0.9530 -0.0983  0.6825
    9CHL1  H27C  666   0.928   6.215   8.555 -2.6763  0.9855 -0.9029
   10CHL1    C3  667   6.637   2.922  10.254  0.3013  0.0993 -0.0278
   10CHL1    H3  668   6.542   2.872  10.226 -0.1765  0.9787  0.0235
   10CHL1    O3  669   6.652   2.909  10.393  0.1595  0.0224  0.1117
   10CHL1   H3'  670   6.684   2.821  10.414 -1.7040 -0.6577  0.1871
   10CHL1    C4  671   6.751   2.844  10.186 -0.0671  0.4194  0.3373
   10CHL1   H4A  672   6.841   2.896  10.224 -0.4645  2.1992 -1.1288
   10CHL1   H4B  673   6.748   2.735  10.210  1.0998  0.1218 -0.8166
   10CHL1    C5  674   6.743   2.863  10.032  0.0023 -0.6696 -0.6992
   10CHL1    C6  675   6.737   2.757   9.950  0.2266  0.1577  0.1674
   10CHL1    H6  676   6.757   2.656   9.989  0.6223  0.4527  0.7456
   10CHL1    C7  677   6.745   2.773   9.804  0.3610  0.4362  0.1664
   10CHL1   H7A  678   6.833   2.715   9.770 -0.5399 -0.1527 -1.2196
   10CHL1   H7B  679   6.655   2.730   9.754 -0.0574 -0.3524  1.5729
   10CHL1    C8  680   6.759   2.923   9.749 -0.0635  0.1938  0.0927
   10CHL1    H8  681   6.868   2.943   9.756  0.2014 -0.3246 -2.2907
   10CHL1   C14  682   6.716   2.931   9.600 -0.1681  0.3380 -0.0755
   10CHL1   H14  683   6.606   2.913   9.607 -0.0436 -0.4771 -0.1213
   10CHL1   C15  684   6.771   2.821   9.501  0.0322 -1.2636  0.2640
   10CHL1  H15A  685   6.876   2.794   9.525 -0.6970 -2.3108  2.4390
   10CHL1  H15B  686   6.710   2.728   9.503  1.6323 -2.3187  3.5486
   10CHL1   C16  687   6.742   2.883   9.363  0.2567 -0.3017 -0.9087
   10CHL1  H16A  688   6.835   2.871   9.303  2.7207 -4.0269  3.3544
   10CHL1  H16B  689   6.661   2.831   9.307  2.1486 -3.4899 -0.8116
   10CHL1   C17  690   6.696   3.029   9.386  0.6072  0.4389  0.1065
   10CHL1   H17  691   6.585   3.030   9.388  0.6201  1.0440  0.8080
   10CHL1   C13  692   6.733   3.064   9.538 -0.1520 -0.5695  0.5236
   10CHL1   C18  693   6.890   3.098   9.535 -0.5640  0.4915 -0.0951
   10CHL1  H18A  694   6.936   3.087   9.636  2.1392  1.8094 -1.1396
   10CHL1  H18B  695   6.937   3.026   9.464  0.2356 -2.7758  3.5739
   10CHL1  H18C  696   6.901   3.203   9.503  0.6526  0.0452 -1.1525
   10CHL1   C12  697   6.643   3.163   9.620 -0.0537 -0.1317  0.3077
   10CHL1  H12A  698   6.651   3.269   9.587 -1.4007 -1.0572 -3.2332
   10CHL1  H12B  699   6.537   3.135   9.606  0.1289 -0.4887 -0.3927
   10CHL1   C11  700   6.674   3.166   9.773 -0.5731  1.0444 -0.8086
   10CHL1  H11A  701   6.772   3.218   9.783  1.3422 -2.3037 -1.4252
   10CHL1  H11B  702   6.599   3.230   9.825 -0.3154 -0.2966  1.2726
   10CHL1    C9  703   6.687   3.022   9.834 -0.0575 -0.2567 -0.5071
   10CHL1    H9  704   6.582   2.986   9.835 -0.2170  0.2620  1.2222
   10CHL1   C10  705   6.726   3.009   9.981  0.1130 -0.3286  0.0273
   10CHL1   C19  706   6.852   3.096  10.002 -0.5518 -0.3305 -0.6136
   10CHL1  H19A  707   6.891   3.076  10.104 -1.9646 -1.9444 -0.3694
   10CHL1  H19B  708   6.928   3.073   9.924 -3.1189  0.2239 -3.3942
   10CHL1  H19C  709   6.828   3.205  10.003 -1.2363 -0.4756 -0.4475
   10CHL1    C1  710   6.608   3.071  10.054 -0.3748  0.1954 -0.3698
   10CHL1   H1A  711   6.606   3.178  10.026 -0.0131  0.0869 -0.8216
   10CHL1   H1B  712   6.509   3.026  10.027 -1.6588  1.9600  1.3219
   10CHL1    C2  713   6.628   3.068  10.210  0.0590 -0.1727  0.4384
   10CHL1   H2A  714   6.533   3.112  10.248 -0.0201  1.1315 -1.2021
   10CHL1   H2B  715   6.710   3.136  10.242  0.5075  0.9577 -2.9813
   10CHL1   C20  716   6.733   3.127   9.275  0.1696 -0.3279 -0.1219
   10CHL1   H20  717   6.843   3.134   9.266  0.0748  4.0855  1.0996
   10CHL1   C21  718   6.663   3.257   9.309 -0.0255 -0.4256 -0.3192
   10CHL1  H21A  719   6.679   3.324   9.221 -1.4863  0.2581 -0.0853
   10CHL1  H21B  720   6.727   3.301   9.388 -0.4734  0.1164 -0.2521
   10CHL1  H21C  721   6.562   3.236   9.350  1.1200 -0.7076  2.4685
   10CHL1   C22  722   6.666   3.082   9.143  0.4713 -0.1008 -0.2331
   10CHL1  H22A  723   6.561   3.053   9.167  0.2487 -0.1787 -1.3072
   10CHL1  H22B  724   6.671   3.158   9.063  3.1237 -0.0423 -0.0417
   10CHL1   C23  725   6.733   2.966   9.067  0.7823 -0.3248  0.4621
   10CHL1  H23A  726   6.841   2.984   9.049  0.7824  0.1141  0.9112
   10CHL1  H23B  727   6.730   2.870   9.122 -1.4537  0.4846  1.8095
   10CHL1   C24  728   6.661   2.911   8.940  0.7575 -1.2862  0.0786
   10CHL1  H24A  729   6.557   2.896   8.976  1.1905 -0.4290  1.7141
   10CHL1  H24B  730   6.663   2.992   8.863  0.1566 -3.1526 -1.9442
   10CHL1   C25  731   6.718   2.780   8.876 -0.1153  0.9716 -0.3573
   10CHL1   H25  732   6.721   2.704   8.956 -1.5092  0.3263 -0.9134
   10CHL1   C26  733   6.634   2.731   8.757 -0.0303  0.4079 -0.7756
   10CHL1  H26A  734   6.629   2.801   8.671  1.2794 -0.3250 -1.4694
   10CHL1  H26B  735   6.683   2.639   8.719  1.3728  0.4738  0.8023
   10CHL1  H26C  736   6.531   2.702   8.788  0.3433  1.0671  1.1738
   10CHL1   C27  737   6.863   2.797   8.827 -0.0119  0.2258 -0.5240
   10CHL1  H27A  738   6.862   2.881   8.753  2.2106  0.0631 -0.7939
   10CHL1  H27B  739   6.939   2.827   8.902 -0.1865 -0.3568 -0.1141
   10CHL1  H27C  740   6.897   2.705   8.775 -0.2011  0.2183 -0.6359
   11CHL1    C3  741   2.630   6.307   9.851  0.4363 -0.4764  0.0843
   11CHL1    H3  742   2.614   6.399   9.791  1.5694 -1.3721 -1.6398
   11CHL1    O3  743   2.647   6.333   9.986  0.4056  0.1516  0.1383
   11CHL1   H3'  744   2.734   6.293   9.996 -0.8809 -2.4334  1.5291
   11CHL1    C4  745   2.502   6.232   9.817  0.5366 -0.1301  0.3280
   11CHL1   H4A  746   2.511   6.136   9.871  0.1694  0.8431  2.1468
   11CHL1   H4B  747   2.430   6.292   9.876  1.7877  1.5699  0.1733
   11CHL1    C5  748   2.482   6.205   9.665  0.6289  0.1312 -0.2457
   11CHL1    C6  749   2.364   6.229   9.603  0.9269 -0.1245  0.5993
   11CHL1    H6  750   2.288   6.273   9.670  1.5838 -0.3244  1.4956
   11CHL1    C7  751   2.326   6.183   9.461 -0.7826  0.3186 -0.0418
   11CHL1   H7A  752   2.241   6.112   9.464 -0.6880  0.2018 -0.1241
   11CHL1   H7B  753   2.299   6.267   9.394  1.9312  0.0390 -1.5512
   11CHL1    C8  754   2.449   6.105   9.390 -0.0613  0.0820 -0.7874
   11CHL1    H8  755   2.445   6.000   9.427 -0.3888  0.4188  0.1290
   11CHL1   C14  756   2.440   6.103   9.243 -0.1497  0.0904  0.4126
   11CHL1   H14  757   2.453   6.210   9.215 -0.8731 -0.2016 -1.0820
   11CHL1   C15  758   2.317   6.055   9.169 -0.1145 -0.2980 -0.1437
   11CHL1  H15A  759   2.296   5.957   9.216 -1.2389 -0.2011 -0.4214
   11CHL1  H15B  760   2.222   6.112   9.185 -0.9742 -2.0820  1.2802
   11CHL1   C16  761   2.368   6.035   9.021  0.0585  0.4831 -0.4504
   11CHL1  H16A  762   2.366   5.925   9.006  0.8625  0.0339  2.4812
   11CHL1  H16B  763   2.315   6.100   8.948  0.1957  2.9845  1.5933
   11CHL1   C17  764   2.522   6.061   9.032  1.1113  0.4461 -0.1969
   11CHL1   H17  765   2.542   6.170   9.024  2.6091  0.2990  1.1355
   11CHL1   C13  766   2.563   6.037   9.178 -0.2268  0.0579  0.3280
   11CHL1   C18  767   2.574   5.883   9.210 -0.9324 -0.1159  0.8400
   11CHL1  H18A  768   2.473   5.839   9.195 -0.0577 -1.6119 -1.0062
   11CHL1  H18B  769   2.649   5.842   9.138 -1.5464 -3.2977  1.9205
   11CHL1  H18C  770   2.602   5.861   9.315 -2.2767 -0.4423  1.1371
   11CHL1   C12  771   2.688   6.109   9.219  0.2621 -0.6771 -0.0976
   11CHL1  H12A  772   2.785   6.068   9.183  0.7959  0.3455  0.1539
   11CHL1  H12B  773   2.676   6.214   9.185 -0.4386 -0.4712  0.7928
   11CHL1   C11  774   2.702   6.104   9.373 -0.6228 -0.7707 -0.3089
   11CHL1  H11A  775   2.724   5.999   9.402 -3.4570 -1.5100 -0.6927
   11CHL1  H11B  776   2.794   6.161   9.397 -1.4213  0.1983  0.5323
   11CHL1    C9  777   2.582   6.161   9.444  0.3621  0.7196 -1.2319
   11CHL1    H9  778   2.577   6.269   9.419  1.9653  1.5658  1.9169
   11CHL1   C10  779   2.605   6.145   9.596 -0.0231 -0.3320 -0.0244
   11CHL1   C19  780   2.613   6.002   9.641  0.6429 -0.5174  0.2273
   11CHL1  H19A  781   2.655   6.009   9.744 -0.9172  1.5692  0.7550
   11CHL1  H19B  782   2.511   5.964   9.663 -0.5629  1.1875 -2.1842
   11CHL1  H19C  783   2.681   5.933   9.588  2.3300 -0.3892  2.1546
   11CHL1    C1  784   2.734   6.215   9.639 -0.4611 -0.4078  0.0782
   11CHL1   H1A  785   2.829   6.173   9.599 -0.9818 -2.0168  0.5210
   11CHL1   H1B  786   2.726   6.318   9.598 -3.7795 -0.3325  0.7676
   11CHL1    C2  787   2.751   6.238   9.797 -0.6707  0.2655  0.4009
   11CHL1   H2A  788   2.845   6.294   9.816 -0.3185  1.5798 -4.4835
   11CHL1   H2B  789   2.767   6.136   9.836  0.5353  1.3779  2.9126
   11CHL1   C20  790   2.597   5.991   8.913  0.6658 -0.1325 -0.4472
   11CHL1   H20  791   2.579   5.882   8.906  1.4897 -0.1357 -3.1121
   11CHL1   C21  792   2.745   6.017   8.908  0.0138  0.0393 -0.7601
   11CHL1  H21A  793   2.773   6.125   8.909  1.0233 -0.2132 -0.7153
   11CHL1  H21B  794   2.789   5.979   8.813 -0.9024  0.2368 -1.2736
   11CHL1  H21C  795   2.795   5.959   8.988  2.5277  2.7409 -0.2612
   11CHL1   C22  796   2.542   6.039   8.777 -0.4128 -0.3339 -0.1866
   11CHL1  H22A  797   2.499   6.141   8.787 -0.4362 -0.4111  0.5708
   11CHL1  H22B  798   2.621   6.043   8.699  0.4280  2.5161  0.7379
   11CHL1   C23  799   2.433   5.948   8.720 -0.2242  0.2172  0.3023
   11CHL1  H23A  800   2.477   5.852   8.687  0.6769  1.4269 -2.2060
   11CHL1  H23B  801   2.363   5.918   8.800  0.4679  0.2285  0.9226
   11CHL1   C24  802   2.382   6.000   8.584  0.2103  0.1301 -0.5320
   11CHL1  H24A  803   2.364   6.109   8.596  0.9734  0.1363  0.6321
   11CHL1  H24B  804   2.461   5.993   8.506  0.1077  3.3528 -0.9847
   11CHL1   C25  805   2.253   5.925   8.538 -0.3720 -0.9882  0.1033
   11CHL1   H25  806   2.267   5.815   8.546 -2.9374 -1.2868  1.2449
   11CHL1   C26  807   2.132   5.963   8.628  0.4850  0.3016 -0.2827
   11CHL1  H26A  808   2.063   5.878   8.608  1.4444 -0.0089 -2.4344
   11CHL1  H26B  809   2.154   5.965   8.736  0.8474 -0.5782 -0.3300
   11CHL1  H26C  810   2.085   6.061   8.606 -1.8458 -0.7188 -0.0090
   11CHL1   C27  811   2.221   5.961   8.391  0.0360 -0.1028 -0.1546
   11CHL1  H27A  812   2.308   5.949   8.323 -0.8745 -0.0269 -1.3343
   11CHL1  H27B  813   2.133   5.906   8.352 -0.8361  0.9811  0.2363
   11CHL1  H27C  814   2.192   6.068   8.396 -1.2576 -0.3532 -1.9761
   12CHL1    C3  815   5.831   2.576  10.330 -0.4613 -0.4426  0.3571
   12CHL1    H3  816   5.882   2.674  10.317 -0.3596 -0.3832  1.2065
   12CHL1    O3  817   5.809   2.544  10.464 -0.3849 -0.0054 -0.1877
   12CHL1   H3'  818   5.749   2.470  10.456  1.2777 -1.5094  0.7870
   12CHL1    C4  819   5.686   2.609  10.280 -0.1216 -0.2035 -0.4585
   12CHL1   H4A  820   5.621   2.521  10.297  0.7394 -0.5892  0.9087
   12CHL1   H4B  821   5.635   2.684  10.345 -0.7216  0.0175 -1.1828
   12CHL1    C5  822   5.683   2.654  10.134  0.2699  0.6060 -0.3046
   12CHL1    C6  823   5.642   2.769  10.083 -0.0911 -0.1726  0.8401
   12CHL1    H6  824   5.606   2.850  10.148  1.1223  0.5442  0.6291
   12CHL1    C7  825   5.636   2.794   9.938  0.1197 -0.1711 -0.2917
   12CHL1   H7A  826   5.543   2.852   9.919  1.3332  2.8052  2.4255
   12CHL1   H7B  827   5.717   2.861   9.901  0.5475  1.5855  3.5530
   12CHL1    C8  828   5.642   2.673   9.842  0.1510  0.1852 -0.0063
   12CHL1    H8  829   5.545   2.619   9.835 -0.4506  1.2132  0.1996
   12CHL1   C14  830   5.683   2.710   9.701  0.9295  0.0409  0.3200
   12CHL1   H14  831   5.783   2.759   9.693  0.7614  0.0430 -2.1791
   12CHL1   C15  832   5.584   2.807   9.627 -0.1788 -0.4125 -0.1390
   12CHL1  H15A  833   5.477   2.777   9.638 -0.4512 -0.3207 -2.2955
   12CHL1  H15B  834   5.596   2.911   9.664  1.9155 -0.9241  0.6539
   12CHL1   C16  835   5.625   2.787   9.477  0.0549  0.5474  0.0231
   12CHL1  H16A  836   5.538   2.772   9.410  0.5556  0.7981 -0.6856
   12CHL1  H16B  837   5.677   2.878   9.443  0.9312 -0.3465 -1.0523
   12CHL1   C17  838   5.715   2.664   9.474 -0.1995  0.5706  0.6892
   12CHL1   H17  839   5.819   2.701   9.487  1.4862 -2.7022 -2.3473
   12CHL1   C13  840   5.694   2.589   9.609  0.6836 -0.7053  0.5763
   12CHL1   C18  841   5.566   2.502   9.600 -0.5191  0.3301  0.0687
   12CHL1  H18A  842   5.532   2.478   9.703 -0.4081 -1.0756 -0.2175
   12CHL1  H18B  843   5.482   2.558   9.555  0.2571  2.7207  1.4758
   12CHL1  H18C  844   5.573   2.407   9.544  1.3414  1.6735 -2.0657
   12CHL1   C12  845   5.818   2.514   9.658 -0.6662  0.5833 -0.3552
   12CHL1  H12A  846   5.830   2.425   9.593  1.7699 -1.7901  3.1335
   12CHL1  H12B  847   5.908   2.579   9.661  0.7736 -1.3666 -0.1187
   12CHL1   C11  848   5.789   2.464   9.798  0.6250  0.2361  0.4442
   12CHL1  H11A  849   5.711   2.385   9.805  0.8086  0.0252  0.1007
   12CHL1  H11B  850   5.882   2.409   9.826  0.9727  0.2610 -0.6324
   12CHL1    C9  851   5.747   2.578   9.897 -0.1229 -0.1106 -0.1128
   12CHL1    H9  852   5.836   2.644   9.895 -0.7247  0.7174  0.2411
   12CHL1   C10  853   5.734   2.538  10.050 -0.1119  0.2018 -0.2683
   12CHL1   C19  854   5.626   2.427  10.053  0.3177  0.1214  0.0485
   12CHL1  H19A  855   5.530   2.452  10.002 -0.7753 -2.8724  0.4793
   12CHL1  H19B  856   5.669   2.333  10.012  1.6466  0.7140  0.0705
   12CHL1  H19C  857   5.592   2.397  10.155 -2.3024 -0.6869 -0.9986
   12CHL1    C1  858   5.877   2.486  10.092 -0.6440  0.3038 -0.3895
   12CHL1   H1A  859   5.902   2.392  10.039 -0.6958  0.2045 -0.2351
   12CHL1   H1B  860   5.962   2.552  10.066  1.8112 -3.2669 -1.7792
   12CHL1    C2  861   5.896   2.462  10.249 -0.0708 -0.4190  0.1420
   12CHL1   H2A  862   6.001   2.437  10.277  0.8115  1.1731 -1.6199
   12CHL1   H2B  863   5.828   2.376  10.270 -0.2421 -0.4656 -0.5807
   12CHL1   C20  864   5.707   2.585   9.343  0.0371  0.1220  0.1319
   12CHL1   H20  865   5.613   2.526   9.336  0.6325 -0.9129  0.5937
   12CHL1   C21  866   5.823   2.480   9.329 -1.0641  0.2887  0.2520
   12CHL1  H21A  867   5.806   2.435   9.229  0.4702 -2.8031  1.3063
   12CHL1  H21B  868   5.828   2.396   9.402  0.4088 -1.0309 -1.3465
   12CHL1  H21C  869   5.916   2.540   9.327 -1.3875  0.8159  0.7338
   12CHL1   C22  870   5.706   2.678   9.222  0.4060 -0.1230 -0.4215
   12CHL1  H22A  871   5.617   2.745   9.222  0.8257  0.4787  1.4479
   12CHL1  H22B  872   5.795   2.744   9.218 -0.2917  0.8799  0.1943
   12CHL1   C23  873   5.700   2.604   9.083  0.5949 -0.7125 -1.1800
   12CHL1  H23A  874   5.797   2.559   9.052  3.8517  4.3395  0.8916
   12CHL1  H23B  875   5.623   2.525   9.093 -0.7363  0.8196  1.1649
   12CHL1   C24  876   5.655   2.697   8.972 -0.1880  0.6978  0.4139
   12CHL1  H24A  877   5.553   2.736   8.991 -0.8793 -1.1090  0.5006
   12CHL1  H24B  878   5.718   2.788   8.977 -0.5727  0.9965 -0.1243
   12CHL1   C25  879   5.651   2.622   8.841 -0.1469  0.5411 -0.6388
   12CHL1   H25  880   5.755   2.584   8.836 -0.4830 -0.2114 -2.3439
   12CHL1   C26  881   5.545   2.521   8.831  0.2176  0.2503 -0.0983
   12CHL1  H26A  882   5.523   2.480   8.730  0.3805 -1.5326  0.5702
   12CHL1  H26B  883   5.558   2.437   8.903 -1.7801  0.1674  0.2073
   12CHL1  H26C  884   5.448   2.570   8.854  0.5900 -0.2871  2.8232
   12CHL1   C27  885   5.648   2.721   8.718 -0.4641  0.0696 -0.5807
   12CHL1  H27A  886   5.731   2.796   8.719 -0.9401  0.6034  0.3538
   12CHL1  H27B  887   5.671   2.661   8.628 -0.5355  1.0513 -1.2583
   12CHL1  H27C  888   5.546   2.758   8.697 -0.5683  0.7165  1.0129
   13CHL1    C3  889   4.626   4.974   9.782 -0.2284  0.6720 -0.6367
   13CHL1    H3  890   4.517   4.955   9.777 -0.0985 -0.4914  0.8036
   13CHL1    O3  891   4.671   4.933   9.911 -0.0388  0.1988  0.8293
   13CHL1   H3'  892   4.675   4.837   9.906 -1.0597  0.2725 -2.2260
   13CHL1    C4  893   4.710   4.890   9.681 -0.4850  0.1063  0.1198
   13CHL1   H4A  894   4.814   4.915   9.711  0.1072  0.0901 -1.8095
   13CHL1   H4B  895   4.699   4.780   9.696 -1.7527  0.1058 -0.7454
   13CHL1    C5  896   4.690   4.929   9.531 -0.4866  0.1614  0.0079
   13CHL1    C6  897   4.665   4.832   9.436 -0.0807  0.2088  0.0740
   13CHL1    H6  898   4.658   4.725   9.459 -0.4937  0.3685  0.7342
   13CHL1    C7  899   4.654   4.863   9.286  0.0990 -0.2247 -0.1948
   13CHL1   H7A  900   4.711   4.788   9.228  3.1646  0.7264  1.4598
   13CHL1   H7B  901   4.544   4.858   9.268  0.7184 -1.1520 -4.1571
   13CHL1    C8  902   4.708   5.004   9.246  0.0918  0.1773 -0.0877
   13CHL1    H8  903   4.819   5.008   9.245  0.1142  0.5925  1.7227
   13CHL1   C14  904   4.653   5.041   9.110  0.3615 -0.1935 -0.2365
   13CHL1   H14  905   4.544   5.029   9.124  0.3471 -0.3580 -0.4813
   13CHL1   C15  906   4.695   4.951   8.996 -0.1173  0.1295  0.5813
   13CHL1  H15A  907   4.804   4.933   9.008 -0.5879 -2.8380  0.6819
   13CHL1  H15B  908   4.640   4.855   9.002 -1.9010  1.2988  4.2886
   13CHL1   C16  909   4.661   5.032   8.870  0.7031 -0.1251  0.3576
   13CHL1  H16A  910   4.753   5.031   8.808  0.5839 -0.2872  0.1806
   13CHL1  H16B  911   4.577   4.990   8.809 -1.9662  2.3252  2.1970
   13CHL1   C17  912   4.632   5.178   8.916 -0.3898  0.2090  0.1872
   13CHL1   H17  913   4.522   5.174   8.930 -0.4293 -0.0735 -0.2040
   13CHL1   C13  914   4.686   5.190   9.057  0.1942 -0.2191 -0.1763
   13CHL1   C18  915   4.839   5.204   9.058 -0.4790 -0.0484 -0.1154
   13CHL1  H18A  916   4.868   5.310   9.070 -1.0382 -0.0734  1.5862
   13CHL1  H18B  917   4.887   5.176   9.154  0.1580 -1.3551 -0.7979
   13CHL1  H18C  918   4.883   5.176   8.960  1.1006 -2.0811  1.1199
   13CHL1   C12  919   4.621   5.288   9.164 -0.6511  1.3185  0.0640
   13CHL1  H12A  920   4.642   5.394   9.138 -1.4354  1.1235 -1.5080
   13CHL1  H12B  921   4.511   5.272   9.170 -0.6059  1.2594  0.6935
   13CHL1   C11  922   4.676   5.258   9.303  0.0844  0.2215  0.1771
   13CHL1  H11A  923   4.784   5.287   9.301  0.6169 -1.5064  2.1350
   13CHL1  H11B  924   4.626   5.317   9.382 -2.7797  0.6678 -1.8861
   13CHL1    C9  925   4.652   5.106   9.349 -0.1691  0.6448  0.0187
   13CHL1    H9  926   4.541   5.094   9.355 -0.0081 -1.3086 -0.5935
   13CHL1   C10  927   4.698   5.074   9.499 -0.2532 -0.2766  0.2689
   13CHL1   C19  928   4.846   5.104   9.508  0.5967  0.0631  0.8531
   13CHL1  H19A  929   4.900   5.031   9.444 -1.0756  0.1631 -0.7318
   13CHL1  H19B  930   4.865   5.209   9.475 -0.6061 -0.7170 -2.5810
   13CHL1  H19C  931   4.894   5.088   9.606 -1.8334  0.9948  2.2381
   13CHL1    C1  932   4.627   5.153   9.612 -0.4385  0.2814  0.2191
   13CHL1   H1A  933   4.665   5.256   9.595  3.4528 -0.7434  2.1427
   13CHL1   H1B  934   4.519   5.156   9.584 -0.8807  1.1177  1.9418
   13CHL1    C2  935   4.655   5.122   9.757 -0.5816 -0.3438 -0.9606
   13CHL1   H2A  936   4.598   5.187   9.827  0.1417 -2.0629  1.2847
   13CHL1   H2B  937   4.764   5.131   9.777 -0.7091 -1.1940  0.1420
   13CHL1   C20  938   4.667   5.290   8.809  0.0731  0.2838  0.0220
   13CHL1   H20  939   4.778   5.301   8.811 -0.1908  3.0719  0.8873
   13CHL1   C21  940   4.613   5.426   8.851  0.1136  0.4276 -0.1078
   13CHL1  H21A  941   4.665   5.462   8.942 -1.2448  2.6788 -0.1769
   13CHL1  H21B  942   4.510   5.394   8.880 -1.0107  3.1654 -0.9054
   13CHL1  H21C  943   4.613   5.498   8.767 -1.3279  0.9036  0.2780
   13CHL1   C22  944   4.623   5.263   8.664  0.1126  0.3346  0.0264
   13CHL1  H22A  945   4.678   5.352   8.626  0.9100 -0.4482 -0.6638
   13CHL1  H22B  946   4.666   5.168   8.624  0.3990  0.0898  0.9022
   13CHL1   C23  947   4.473   5.276   8.636 -0.0101  0.0492  0.2255
   13CHL1  H23A  948   4.404   5.241   8.716  2.4423 -1.9697  1.5325
   13CHL1  H23B  949   4.435   5.380   8.625 -0.7338 -0.1324  0.9810
   13CHL1   C24  950   4.448   5.210   8.496 -0.0150 -0.6238  0.0751
   13CHL1  H24A  951   4.483   5.280   8.417  0.3082  0.8052  1.4662
   13CHL1  H24B  952   4.517   5.124   8.490  0.5719 -0.2174  0.9623
   13CHL1   C25  953   4.300   5.175   8.477 -0.0863  0.3216 -0.1467
   13CHL1   H25  954   4.279   5.111   8.565 -2.5592 -0.7706 -1.4861
   13CHL1   C26  955   4.209   5.299   8.476 -0.4838 -0.5894 -0.0088
   13CHL1  H26A  956   4.268   5.386   8.440  2.9091 -2.1645  1.4879
   13CHL1  H26B  957   4.118   5.287   8.414 -0.1934  2.6007 -1.1445
   13CHL1  H26C  958   4.176   5.326   8.578  0.3309 -1.2940  0.4521
   13CHL1   C27  959   4.295   5.103   8.344  0.4286 -0.2586  0.8026
   13CHL1  H27A  960   4.194   5.074   8.308  0.5191 -0.8584  1.0164
   13CHL1  H27B  961   4.345   5.170   8.271  1.2302 -0.7600  0.8888
   13CHL1  H27C  962   4.361   5.013   8.345 -0.4505 -0.9681 -1.5127
   14CHL1    C3  963   4.277   0.874  10.211 -0.2836 -0.1663  0.0345
   14CHL1    H3  964   4.365   0.938  10.188 -0.4750 -0.8472 -2.6859
   14CHL1    O3  965   4.263   0.874  10.352 -0.2271  0.0215  0.3350
   14CHL1   H3'  966   4.175   0.860  10.387  0.7495 -1.5634  2.3166
   14CHL1    C4  967   4.169   0.946  10.139 -0.2780 -0.1410  1.0104
   14CHL1   H4A  968   4.076   0.894  10.168  0.3485  0.0224  3.4482
   14CHL1   H4B  969   4.156   1.050  10.178 -0.3651  0.4208 -0.4954
   14CHL1    C5  970   4.197   0.955   9.988  0.0120  0.6502 -0.3025
   14CHL1    C6  971   4.207   1.067   9.925 -0.0476 -0.5950 -0.0645
   14CHL1    H6  972   4.173   1.156   9.979  0.3137  0.1883 -1.1056
   14CHL1    C7  973   4.241   1.079   9.778 -0.0868  0.2609 -0.3052
   14CHL1   H7A  974   4.175   1.163   9.746 -2.0676 -0.2855  2.2522
   14CHL1   H7B  975   4.345   1.108   9.752  1.4425 -3.5967  1.1739
   14CHL1    C8  976   4.202   0.952   9.704  0.4748 -0.6751 -0.1848
   14CHL1    H8  977   4.092   0.936   9.707  0.4514 -0.6495 -0.7232
   14CHL1   C14  978   4.249   0.950   9.565  0.6260 -0.6618  0.3157
   14CHL1   H14  979   4.359   0.961   9.563  0.6982 -1.5023 -1.0969
   14CHL1   C15  980   4.194   1.060   9.479  0.2149 -0.3096 -0.6597
   14CHL1  H15A  981   4.085   1.073   9.497  0.1140 -1.3485 -0.4618
   14CHL1  H15B  982   4.236   1.161   9.501 -1.3093 -0.2873  2.5022
   14CHL1   C16  983   4.229   1.017   9.340 -0.0279  0.3923 -0.5929
   14CHL1  H16A  984   4.136   1.031   9.281 -0.5476 -0.4785  0.0073
   14CHL1  H16B  985   4.317   1.075   9.306  0.0411  0.9068  0.4652
   14CHL1   C17  986   4.279   0.867   9.343 -0.2661 -0.3283 -0.3553
   14CHL1   H17  987   4.390   0.865   9.344 -0.1790  0.5396 -3.2049
   14CHL1   C13  988   4.228   0.822   9.484 -0.0678  0.2164 -0.4853
   14CHL1   C18  989   4.079   0.791   9.472 -0.1132 -0.3439  0.1920
   14CHL1  H18A  990   4.027   0.875   9.422  0.5996 -0.2606 -0.4152
   14CHL1  H18B  991   4.070   0.693   9.419 -1.3513 -1.0778  1.7271
   14CHL1  H18C  992   4.033   0.776   9.572 -2.3417  1.2253 -0.5650
   14CHL1   C12  993   4.315   0.714   9.550 -0.2099 -1.1454  0.1505
   14CHL1  H12A  994   4.297   0.616   9.500 -1.6686 -1.1071  0.5918
   14CHL1  H12B  995   4.424   0.736   9.545 -0.6189  0.9797  0.1076
   14CHL1   C11  996   4.264   0.699   9.697  0.5850  0.1131  0.9951
   14CHL1  H11A  997   4.166   0.648   9.697 -0.0152  1.2504  2.0672
   14CHL1  H11B  998   4.324   0.626   9.755  0.3501  0.2997  1.4786
   14CHL1    C9  999   4.267   0.837   9.775 -0.2420 -0.6787 -0.3757
   14CHL1    H9 1000   4.374   0.865   9.779 -0.0747 -1.2391 -0.8417
   14CHL1   C10 1001   4.230   0.819   9.925 -0.0466  0.1530 -0.0548
   14CHL1   C19 1002   4.099   0.745   9.938 -0.6845 -0.1644  0.3243
   14CHL1  H19A 1003   4.091   0.638   9.909  0.5684 -0.0877 -0.3134
   14CHL1  H19B 1004   4.070   0.736  10.045 -0.8505 -0.0039  0.2933
   14CHL1  H19C 1005   4.017   0.798   9.887 -0.9153 -0.7098  0.1261
   14CHL1    C1 1006   4.340   0.735  10.003  0.2333  0.1532  0.2033
   14CHL1   H1A 1007   4.347   0.631   9.966 -0.1031 -0.0488  0.7207
   14CHL1   H1B 1008   4.435   0.791   9.987 -0.7785  2.1045  0.8924
   14CHL1    C2 1009   4.302   0.735  10.150 -0.1806 -0.3826  0.2325
   14CHL1   H2A 1010   4.391   0.697  10.204 -1.0988 -0.9962  1.3380
   14CHL1   H2B 1011   4.213   0.674  10.178 -1.1142  0.7422 -0.2328
   14CHL1   C20 1012   4.232   0.789   9.221 -0.9402  0.0275 -0.0654
   14CHL1   H20 1013   4.123   0.769   9.224 -1.3391  1.8149 -1.5569
   14CHL1   C21 1014   4.311   0.652   9.213 -0.3277  0.2636  0.3788
   14CHL1  H21A 1015   4.287   0.600   9.309 -0.8981 -3.9152 -1.9295
   14CHL1  H21B 1016   4.420   0.673   9.211 -0.4438  0.7449 -1.4932
   14CHL1  H21C 1017   4.276   0.590   9.128 -1.1714  1.0969  0.1083
   14CHL1   C22 1018   4.269   0.864   9.094 -0.0698  0.4021  0.2700
   14CHL1  H22A 1019   4.219   0.963   9.089  2.2453  1.4928 -5.8862
   14CHL1  H22B 1020   4.375   0.882   9.066  0.4425 -1.0077  1.2462
   14CHL1   C23 1021   4.206   0.789   8.970 -0.0477  0.2437 -0.5714
   14CHL1  H23A 1022   4.271   0.702   8.947 -1.0797 -0.5033 -0.7150
   14CHL1  H23B 1023   4.101   0.756   8.985  0.1815 -1.5542 -2.5595
   14CHL1   C24 1024   4.210   0.887   8.858 -0.4079  0.4558  0.0117
   14CHL1  H24A 1025   4.146   0.975   8.883 -1.3493 -0.2420  0.0999
   14CHL1  H24B 1026   4.310   0.929   8.834 -1.3769  1.1987 -2.9532
   14CHL1   C25 1027   4.140   0.839   8.739 -0.6139 -0.3414  0.1075
   14CHL1   H25 1028   4.033   0.840   8.770 -1.2644  0.3672 -2.0527
   14CHL1   C26 1029   4.149   0.940   8.621  0.4469 -0.6629 -0.3046
   14CHL1  H26A 1030   4.125   1.044   8.653  0.1186 -0.4331 -1.2874
   14CHL1  H26B 1031   4.254   0.952   8.587 -0.3066  1.7478 -1.9068
   14CHL1  H26C 1032   4.084   0.907   8.538  0.2017 -0.6625 -0.1140
   14CHL1   C27 1033   4.173   0.698   8.686 -0.4178  0.4920 -0.1702
   14CHL1  H27A 1034   4.148   0.606   8.743 -0.1784 -0.8162 -2.1292
   14CHL1  H27B 1035   4.127   0.694   8.585  3.3218 -0.6228 -1.9152
   14CHL1  H27C 1036   4.282   0.702   8.663 -0.3789  3.7541  0.3309
   15CHL1    C3 1037   4.144   6.518  10.046 -0.4464 -0.4386 -0.0719
   15CHL1    H3 1038   4.139   6.414  10.009 -2.2573 -0.5766  0.5105
   15CHL1    O3 1039   4.142   6.517  10.189  0.3942  0.5300  0.1939
   15CHL1   H3' 1040   4.159   6.605  10.223  0.6702  0.6491 -0.2424
   15CHL1    C4 1041   4.266   6.599   9.987 -0.8181  0.5200 -0.5361
   15CHL1   H4A 1042   4.277   6.701  10.029  1.0003  0.2917 -0.4126
   15CHL1   H4B 1043   4.354   6.549  10.033 -0.1879  1.2141 -0.9774
   15CHL1    C5 1044   4.297   6.598   9.840  0.4441  0.3902 -0.3252
   15CHL1    C6 1045   4.401   6.535   9.775 -0.1887 -0.0343 -0.3027
   15CHL1    H6 1046   4.483   6.501   9.840  0.4994 -3.3219 -2.7530
   15CHL1    C7 1047   4.418   6.540   9.627  0.3593 -0.3513 -0.1479
   15CHL1   H7A 1048   4.516   6.583   9.596 -0.4902  1.3261 -0.5811
   15CHL1   H7B 1049   4.421   6.432   9.599  0.6527  0.5783 -3.9851
   15CHL1    C8 1050   4.300   6.614   9.543  0.0667  0.0511 -0.1055
   15CHL1    H8 1051   4.342   6.717   9.541 -0.3113  0.3025  2.9361
   15CHL1   C14 1052   4.289   6.555   9.394 -0.5749 -0.2017 -0.4406
   15CHL1   H14 1053   4.237   6.457   9.393 -2.2972  0.6896 -0.9827
   15CHL1   C15 1054   4.416   6.549   9.315 -0.2326 -0.3144 -0.8145
   15CHL1  H15A 1055   4.490   6.623   9.352 -1.3800  1.7434 -2.5197
   15CHL1  H15B 1056   4.452   6.446   9.334 -0.8639 -0.5661 -0.9669
   15CHL1   C16 1057   4.377   6.560   9.167  0.1016  0.5181 -0.3067
   15CHL1  H16A 1058   4.437   6.642   9.122  2.1508 -0.2176  1.0414
   15CHL1  H16B 1059   4.408   6.469   9.112 -4.2613 -1.2532  0.0154
   15CHL1   C17 1060   4.222   6.588   9.166 -0.9436  0.3586  0.3562
   15CHL1   H17 1061   4.170   6.490   9.164 -2.4073  1.1241 -1.8834
   15CHL1   C13 1062   4.192   6.643   9.309 -0.6867 -0.6077  0.1399
   15CHL1   C18 1063   4.239   6.797   9.296  0.3297  0.5768  0.4593
   15CHL1  H18A 1064   4.158   6.869   9.273 -0.5812 -0.1664  1.3177
   15CHL1  H18B 1065   4.293   6.835   9.385  2.4540  0.1404 -0.6164
   15CHL1  H18C 1066   4.302   6.803   9.204 -0.3633 -0.4058 -0.0850
   15CHL1   C12 1067   4.054   6.629   9.370 -0.0247  0.5078  0.3835
   15CHL1  H12A 1068   3.982   6.699   9.321  1.0616 -0.0058 -2.0089
   15CHL1  H12B 1069   4.014   6.525   9.368  2.5461 -0.4765 -1.0477
   15CHL1   C11 1070   4.056   6.671   9.519  0.1742  0.1907  0.1119
   15CHL1  H11A 1071   4.081   6.779   9.517  2.3505 -0.2699  1.2023
   15CHL1  H11B 1072   3.957   6.653   9.566  0.2363  1.0432  0.5805
   15CHL1    C9 1073   4.165   6.601   9.607 -0.1650  0.7054 -0.1863
   15CHL1    H9 1074   4.140   6.492   9.600 -1.8297  0.8870  2.2231
   15CHL1   C10 1075   4.163   6.635   9.759 -0.0720  0.3830  0.1829
   15CHL1   C19 1076   4.147   6.787   9.770  0.3250  0.3913 -0.5691
   15CHL1  H19A 1077   4.172   6.831   9.869  1.5985 -0.3806 -0.5399
   15CHL1  H19B 1078   4.211   6.836   9.694 -1.0295  0.3627 -1.7457
   15CHL1  H19C 1079   4.044   6.820   9.743 -0.3595  0.2380  1.7249
   15CHL1    C1 1080   4.036   6.567   9.830  0.5491 -0.3966 -0.1282
   15CHL1   H1A 1081   3.947   6.617   9.786 -1.3227 -1.5718  2.2443
   15CHL1   H1B 1082   4.031   6.457   9.812  2.3274 -0.5706  0.3341
   15CHL1    C2 1083   4.022   6.584   9.981  0.2627  0.3225 -0.4610
   15CHL1   H2A 1084   3.938   6.527  10.026  1.6450 -0.5877  1.0223
   15CHL1   H2B 1085   4.018   6.691  10.009  0.3518 -0.1012  1.2708
   15CHL1   C20 1086   4.173   6.668   9.039 -0.1488 -0.6065  1.3899
   15CHL1   H20 1087   4.228   6.762   9.018  0.8715 -1.5625 -0.3559
   15CHL1   C21 1088   4.019   6.701   9.045  0.8985 -0.1886 -0.2603
   15CHL1  H21A 1089   3.959   6.614   9.079 -0.8258  0.6619 -1.0697
   15CHL1  H21B 1090   3.974   6.735   8.950 -0.7081  2.2505  1.3136
   15CHL1  H21C 1091   4.005   6.784   9.117 -0.1096 -1.8019  1.4616
   15CHL1   C22 1092   4.194   6.582   8.911  0.1481 -0.0098 -0.5623
   15CHL1  H22A 1093   4.293   6.533   8.927  1.3732  1.7160 -2.5929
   15CHL1  H22B 1094   4.121   6.499   8.922  0.6188 -0.6817 -2.3275
   15CHL1   C23 1095   4.194   6.655   8.783 -0.2137  0.1748 -0.5747
   15CHL1  H23A 1096   4.097   6.707   8.766 -0.0965  0.1040 -1.4853
   15CHL1  H23B 1097   4.276   6.730   8.787 -0.2376  0.1776 -0.1159
   15CHL1   C24 1098   4.222   6.558   8.670 -0.2790  0.2063  0.7361
   15CHL1  H24A 1099   4.326   6.518   8.667 -0.8228 -1.2015  0.3331
   15CHL1  H24B 1100   4.152   6.475   8.693 -0.9040  1.5608  4.0181
   15CHL1   C25 1101   4.182   6.595   8.528  0.0566 -0.1915 -0.2823
   15CHL1   H25 1102   4.072   6.608   8.540 -0.0231  0.7515 -1.8624
   15CHL1   C26 1103   4.242   6.721   8.474 -0.4755 -0.9418  0.3812
   15CHL1  H26A 1104   4.182   6.801   8.521  1.9034  0.1014  1.7353
   15CHL1  H26B 1105   4.351   6.716   8.495 -0.1201  2.4151 -0.3915
   15CHL1  H26C 1106   4.230   6.725   8.363  1.0461 -0.7255  0.2090
   15CHL1   C27 1107   4.215   6.477   8.431 -0.0604 -0.1686  0.4419
   15CHL1  H27A 1108   4.139   6.399   8.448  1.6772 -1.5559  2.0783
   15CHL1  H27B 1109   4.191   6.516   8.329 -0.3510  0.0671  0.6022
   15CHL1  H27C 1110   4.321   6.441   8.430  0.1835  0.5383  0.1381
   16CHL1    C3 1111   5.253   0.520  10.399 -0.1458  0.1829 -0.1760
   16CHL1    H3 1112   5.334   0.589  10.366  0.5570 -0.8876 -0.7127
   16CHL1    O3 1113   5.243   0.531  10.539  0.3791 -0.1507 -0.2668
   16CHL1   H3' 1114   5.194   0.450  10.559 -0.8871  0.4053 -1.0670
   16CHL1    C4 1115   5.118   0.568  10.344  0.4147  0.0692  0.2366
   16CHL1   H4A 1116   5.042   0.506  10.395  0.7354 -1.9278 -1.5913
   16CHL1   H4B 1117   5.099   0.673  10.374  0.0216  0.1055 -0.1215
   16CHL1    C5 1118   5.120   0.540  10.199 -0.4993 -0.1958  0.5489
   16CHL1    C6 1119   5.091   0.643  10.112 -0.3568  0.1364 -0.2660
   16CHL1    H6 1120   5.067   0.741  10.156 -0.1680  0.0613  0.0073
   16CHL1    C7 1121   5.087   0.630   9.959 -0.4304 -0.3506 -0.2562
   16CHL1   H7A 1122   4.996   0.673   9.912  2.1126  2.9146 -2.4733
   16CHL1   H7B 1123   5.174   0.682   9.915  0.7969 -0.9104  1.4477
   16CHL1    C8 1124   5.086   0.485   9.917  0.6041  0.0500 -1.0523
   16CHL1    H8 1125   4.983   0.449   9.936  0.3735  2.1542  2.1025
   16CHL1   C14 1126   5.123   0.477   9.767 -0.1282  0.0865 -0.0993
   16CHL1   H14 1127   5.223   0.525   9.761 -0.9532  1.8865  0.1095
   16CHL1   C15 1128   5.042   0.564   9.661 -0.1988  0.2559 -0.4257
   16CHL1  H15A 1129   4.933   0.549   9.668 -0.0035 -0.3854  1.6561
   16CHL1  H15B 1130   5.064   0.673   9.669  0.2121  0.1216  0.3397
   16CHL1   C16 1131   5.084   0.500   9.531  0.4420  0.6824  0.1701
   16CHL1  H16A 1132   5.001   0.494   9.458  1.5731 -0.3402 -1.0448
   16CHL1  H16B 1133   5.143   0.578   9.478  0.0899 -0.1062 -1.4236
   16CHL1   C17 1134   5.163   0.372   9.556  0.1460  0.0182 -0.0044
   16CHL1   H17 1135   5.268   0.405   9.548 -0.1906  1.2778  0.6977
   16CHL1   C13 1136   5.131   0.339   9.707 -0.2003  0.2024 -0.6641
   16CHL1   C18 1137   4.981   0.286   9.702  0.7867  0.6065  0.6286
   16CHL1  H18A 1138   4.918   0.336   9.626  1.0960  1.9207  1.2263
   16CHL1  H18B 1139   4.987   0.177   9.681  1.1165  0.8215 -0.4197
   16CHL1  H18C 1140   4.932   0.303   9.801  1.9850  1.8236  1.0205
   16CHL1   C12 1141   5.225   0.259   9.792  0.3391 -0.2507 -0.9211
   16CHL1  H12A 1142   5.224   0.151   9.766  0.0950 -0.5530  0.3055
   16CHL1  H12B 1143   5.329   0.298   9.794  0.8562 -1.6477 -0.3174
   16CHL1   C11 1144   5.173   0.256   9.940  0.1398  0.4460  0.3980
   16CHL1  H11A 1145   5.071   0.213   9.941 -0.7476  2.4757  1.4609
   16CHL1  H11B 1146   5.231   0.187  10.005  1.0870  1.2468  0.4085
   16CHL1    C9 1147   5.180   0.399  10.001 -0.5229  0.7139  0.5938
   16CHL1    H9 1148   5.286   0.426   9.981 -0.5212 -1.0793 -2.0392
   16CHL1   C10 1149   5.157   0.401  10.152 -0.7147 -0.1117  0.9828
   16CHL1   C19 1150   5.031   0.312  10.194  0.5216  0.0305 -0.5745
   16CHL1  H19A 1151   5.028   0.301  10.304  0.3980 -2.0841 -0.7815
   16CHL1  H19B 1152   4.935   0.359  10.161  0.9542 -0.7739 -3.0298
   16CHL1  H19C 1153   5.035   0.208  10.157  0.3331 -0.4527  0.7634
   16CHL1    C1 1154   5.295   0.361  10.219  0.6331 -0.2984 -0.0877
   16CHL1   H1A 1155   5.316   0.255  10.193 -2.7204 -0.8301 -0.8815
   16CHL1   H1B 1156   5.378   0.426  10.184 -0.5444  1.2678 -0.0404
   16CHL1    C2 1157   5.293   0.377  10.372 -0.0736 -0.2747  0.2920
   16CHL1   H2A 1158   5.389   0.352  10.421  0.6542 -0.5236 -1.2125
   16CHL1   H2B 1159   5.226   0.299  10.414  0.3996 -0.3701  0.8713
   16CHL1   C20 1160   5.144   0.269   9.445 -0.2292  0.0410 -0.2106
   16CHL1   H20 1161   5.037   0.240   9.452 -0.1392  0.3477  3.2362
   16CHL1   C21 1162   5.223   0.137   9.473 -0.1796  0.5153  0.0169
   16CHL1  H21A 1163   5.198   0.054   9.404 -0.3784 -0.2329  0.9754
   16CHL1  H21B 1164   5.204   0.086   9.570 -0.4442  1.3048  0.3825
   16CHL1  H21C 1165   5.333   0.157   9.468  0.0022 -0.6753 -1.1159
   16CHL1   C22 1166   5.172   0.322   9.301  0.4290 -0.3629 -0.3589
   16CHL1  H22A 1167   5.116   0.417   9.286  3.4578  1.8926  2.0205
   16CHL1  H22B 1168   5.278   0.353   9.291  0.3600 -0.1842 -0.5383
   16CHL1   C23 1169   5.130   0.220   9.189  0.2182  0.3310 -0.3493
   16CHL1  H23A 1170   5.196   0.131   9.192 -0.5912 -0.2269  0.8124
   16CHL1  H23B 1171   5.025   0.194   9.212  0.8872 -1.3284  0.8729
   16CHL1   C24 1172   5.137   0.284   9.047  0.4738 -0.4750  0.3335
   16CHL1  H24A 1173   5.071   0.374   9.041  1.5814  0.2586 -1.1114
   16CHL1  H24B 1174   5.238   0.324   9.023  0.2019  0.1230  0.1553
   16CHL1   C25 1175   5.097   0.195   8.931  0.3460 -0.3525 -0.2614
   16CHL1   H25 1176   5.009   0.143   8.975 -0.8248  0.8168 -1.1735
   16CHL1   C26 1177   5.046   0.267   8.807 -0.3056 -0.2271  0.8914
   16CHL1  H26A 1178   5.132   0.319   8.759 -0.0195 -0.6745  0.9143
   16CHL1  H26B 1179   5.008   0.187   8.741  0.1533 -0.3567  0.7861
   16CHL1  H26C 1180   4.959   0.331   8.836 -3.0281 -2.0650 -2.8952
   16CHL1   C27 1181   5.207   0.094   8.897 -0.4581 -0.9693 -0.0006
   16CHL1  H27A 1182   5.231   0.038   8.990  0.2117  0.3363  0.6339
   16CHL1  H27B 1183   5.173   0.023   8.819  0.3512 -0.5545 -0.7452
   16CHL1  H27C 1184   5.299   0.147   8.864 -0.6003 -1.6844 -1.5677
   17CHL1    C3 1185   1.117   4.143  10.349  0.0352 -0.8341  0.2783
   17CHL1    H3 1186   1.197   4.218  10.331 -0.8932  0.6022  1.8484
   17CHL1    O3 1187   1.105   4.124  10.493  0.2259 -0.2115 -0.4114
   17CHL1   H3' 1188   1.021   4.077  10.500  0.4825 -0.5445  0.4336
   17CHL1    C4 1189   0.981   4.201  10.294  0.4527 -0.4319  0.3700
   17CHL1   H4A 1190   0.904   4.124  10.318 -0.2279  0.3528  0.7035
   17CHL1   H4B 1191   0.961   4.292  10.354 -0.6374 -1.9240  2.3265
   17CHL1    C5 1192   0.998   4.231  10.143 -0.4341 -0.1856 -0.1765
   17CHL1    C6 1193   0.980   4.356  10.097 -0.7111 -0.5902 -0.3801
   17CHL1    H6 1194   0.937   4.433  10.163  0.1323  0.4577 -1.0292
   17CHL1    C7 1195   0.986   4.393   9.952 -0.0251  0.0007  0.0656
   17CHL1   H7A 1196   0.903   4.466   9.935  0.6883  0.9137  0.4947
   17CHL1   H7B 1197   1.084   4.438   9.925 -1.1554  1.8354 -1.1679
   17CHL1    C8 1198   0.967   4.264   9.868  0.2108  0.3753 -0.1323
   17CHL1    H8 1199   0.861   4.233   9.882 -0.2171  2.3846  1.2863
   17CHL1   C14 1200   0.993   4.295   9.722 -0.3436  0.6864 -0.1830
   17CHL1   H14 1201   1.096   4.334   9.713 -0.2493 -0.0777 -2.7159
   17CHL1   C15 1202   0.912   4.417   9.664 -0.8420 -0.0518  1.0119
   17CHL1  H15A 1203   0.803   4.409   9.684 -0.9312 -1.7713  0.0267
   17CHL1  H15B 1204   0.942   4.517   9.700  1.8711  0.1033 -1.5167
   17CHL1   C16 1205   0.943   4.394   9.515 -0.2727  0.8160 -0.1646
   17CHL1  H16A 1206   0.851   4.382   9.453 -0.3904  1.9139 -0.2014
   17CHL1  H16B 1207   0.996   4.483   9.475  0.8303 -0.0215 -0.5831
   17CHL1   C17 1208   1.021   4.260   9.499  0.4729 -0.7482  0.6340
   17CHL1   H17 1209   1.125   4.299   9.511  0.4326 -0.2451 -0.6086
   17CHL1   C13 1210   0.989   4.178   9.622 -0.3694 -0.0623  0.3108
   17CHL1   C18 1211   0.853   4.110   9.616 -0.2469 -0.1242 -0.7013
   17CHL1  H18A 1212   0.774   4.173   9.569  1.0672  0.6100 -1.9403
   17CHL1  H18B 1213   0.868   4.023   9.548 -0.3547  2.1175 -3.6940
   17CHL1  H18C 1214   0.822   4.071   9.716  1.5658  0.4605  0.1090
   17CHL1   C12 1215   1.107   4.081   9.672  0.5307 -0.0069 -0.4108
   17CHL1  H12A 1216   1.110   3.991   9.606  0.0422  0.2745 -0.8183
   17CHL1  H12B 1217   1.200   4.135   9.644  0.9342 -0.8563 -0.7351
   17CHL1   C11 1218   1.088   4.044   9.820 -0.1298  0.1616  0.4535
   17CHL1  H11A 1219   0.990   3.992   9.808  0.2060  0.0710 -2.1453
   17CHL1  H11B 1220   1.164   3.971   9.854  2.2719  1.6534 -1.5396
   17CHL1    C9 1221   1.064   4.157   9.922  0.5856  0.3269  0.4582
   17CHL1    H9 1222   1.165   4.202   9.920  1.4815 -1.6585 -0.0750
   17CHL1   C10 1223   1.038   4.105  10.062  0.0300 -0.6727  0.4227
   17CHL1   C19 1224   0.919   4.006  10.055  0.5532  0.4028 -0.6343
   17CHL1  H19A 1225   0.827   4.043  10.005 -0.2626 -1.8563 -0.8689
   17CHL1  H19B 1226   0.953   3.912  10.007 -2.4979 -1.7299  1.1930
   17CHL1  H19C 1227   0.900   3.974  10.160  1.4098 -4.1987 -1.7926
   17CHL1    C1 1228   1.160   4.034  10.126 -1.1352 -0.2751 -0.6419
   17CHL1   H1A 1229   1.177   3.932  10.085 -0.1494 -0.7647  0.9171
   17CHL1   H1B 1230   1.254   4.092  10.115  0.6120 -2.8207  0.3837
   17CHL1    C2 1231   1.139   4.011  10.275 -0.5385  0.0660  0.1295
   17CHL1   H2A 1232   1.218   3.941  10.309 -0.1726 -0.9632 -2.7170
   17CHL1   H2B 1233   1.041   3.960  10.287 -0.9664  1.1923  1.5435
   17CHL1   C20 1234   0.998   4.198   9.361 -0.7569 -0.1682 -0.1043
   17CHL1   H20 1235   0.891   4.182   9.335  0.0309 -2.6885 -1.9433
   17CHL1   C21 1236   1.064   4.066   9.351 -0.6580 -0.2428 -0.1665
   17CHL1  H21A 1237   1.043   3.986   9.426  0.1081 -0.0080  0.3023
   17CHL1  H21B 1238   1.172   4.089   9.358 -0.7075 -0.4214  1.6046
   17CHL1  H21C 1239   1.039   4.007   9.260 -2.4713  0.5763 -0.2124
   17CHL1   C22 1240   1.054   4.291   9.243  0.1331 -0.5411 -0.6078
   17CHL1  H22A 1241   0.998   4.385   9.262  1.1817 -0.1340  0.6026
   17CHL1  H22B 1242   1.157   4.332   9.251  1.2812 -3.3772 -0.1347
   17CHL1   C23 1243   1.035   4.241   9.102  0.4624 -0.1023 -0.0201
   17CHL1  H23A 1244   1.081   4.142   9.084  0.9339 -0.2307  1.8672
   17CHL1  H23B 1245   0.927   4.221   9.082  0.6453 -1.7597  0.5307
   17CHL1   C24 1246   1.080   4.341   8.991  0.0730 -0.2745  0.8638
   17CHL1  H24A 1247   1.050   4.442   9.027  0.3399  0.1042  0.0460
   17CHL1  H24B 1248   1.191   4.341   8.988  0.0773  1.4510  0.8015
   17CHL1   C25 1249   1.014   4.303   8.854  0.3493 -0.3842 -0.4519
   17CHL1   H25 1250   0.913   4.265   8.879  0.0670  1.9453  2.2125
   17CHL1   C26 1251   1.014   4.424   8.765 -0.2587 -0.0428 -0.0191
   17CHL1  H26A 1252   1.117   4.450   8.732 -0.0303 -0.5483  0.2830
   17CHL1  H26B 1253   0.956   4.399   8.673  3.1468  1.7165 -2.7549
   17CHL1  H26C 1254   0.968   4.515   8.809 -3.1974 -1.2262 -0.5565
   17CHL1   C27 1255   1.079   4.176   8.789  0.4133 -0.4556 -0.7597
   17CHL1  H27A 1256   1.188   4.191   8.780  0.7803 -1.8863  0.8563
   17CHL1  H27B 1257   1.057   4.092   8.859  2.7978  0.2579  0.9097
   17CHL1  H27C 1258   1.035   4.161   8.688  0.6823  3.1523 -1.4625
   18CHL1    C3 1259   0.169   2.418  10.280 -0.3802  0.4382 -0.1686
   18CHL1    H3 1260   0.066   2.458  10.267 -1.5669 -1.8424  1.7397
   18CHL1    O3 1261   0.207   2.418  10.419  0.1132 -0.7641 -0.5674
   18CHL1   H3' 1262   0.293   2.375  10.422  0.7619  0.5937  1.3714
   18CHL1    C4 1263   0.161   2.269  10.234  0.1845 -0.1114  0.2361
   18CHL1   H4A 1264   0.262   2.226  10.252  0.2475 -0.8836 -1.8099
   18CHL1   H4B 1265   0.084   2.205  10.283 -0.5278 -1.5668 -2.6604
   18CHL1    C5 1266   0.147   2.258  10.084 -0.2193 -0.0935  0.2049
   18CHL1    C6 1267   0.047   2.198  10.026  1.0348  0.3603  0.0163
   18CHL1    H6 1268  -0.030   2.151  10.090  2.0411  0.7187  1.5118
   18CHL1    C7 1269   0.024   2.172   9.881 -0.6598  0.0168 -0.5950
   18CHL1   H7A 1270   0.002   2.063   9.876  1.1615 -0.4696  1.1155
   18CHL1   H7B 1271  -0.055   2.242   9.846 -1.4329 -0.2877  0.4972
   18CHL1    C8 1272   0.144   2.210   9.799  0.9430  0.0632 -0.0656
   18CHL1    H8 1273   0.222   2.132   9.806  2.2605  1.3615 -0.0911
   18CHL1   C14 1274   0.110   2.247   9.652 -0.4800  0.0028 -0.6727
   18CHL1   H14 1275   0.048   2.338   9.659  1.5008  1.5291 -2.2593
   18CHL1   C15 1276   0.025   2.149   9.570 -0.0130  0.1383  0.9067
   18CHL1  H15A 1277   0.062   2.044   9.582  0.5929  0.5475  2.8146
   18CHL1  H15B 1278  -0.079   2.156   9.606 -0.4804  2.6154 -0.8250
   18CHL1   C16 1279   0.045   2.189   9.429 -0.4315  0.0939 -0.1331
   18CHL1  H16A 1280   0.100   2.118   9.363 -0.4882  0.7271 -0.8637
   18CHL1  H16B 1281  -0.044   2.225   9.372  0.7995 -1.1354 -2.9754
   18CHL1   C17 1282   0.141   2.314   9.434  0.1754  0.0162  0.2461
   18CHL1   H17 1283   0.075   2.401   9.459 -1.8080 -1.8059  1.5499
   18CHL1   C13 1284   0.226   2.292   9.563  0.1805  0.1458  0.5221
   18CHL1   C18 1285   0.325   2.178   9.544  0.3877  0.2965 -0.0703
   18CHL1  H18A 1286   0.359   2.135   9.641  1.8738 -1.5394 -1.3531
   18CHL1  H18B 1287   0.279   2.089   9.495 -1.5782  1.8725 -1.1404
   18CHL1  H18C 1288   0.414   2.216   9.489  0.0211  0.7237 -0.3622
   18CHL1   C12 1289   0.289   2.418   9.623 -0.2642  0.3026  0.4894
   18CHL1  H12A 1290   0.388   2.438   9.575 -0.4499 -0.9567 -0.4495
   18CHL1  H12B 1291   0.243   2.519   9.610  0.3445  0.3474 -1.5563
   18CHL1   C11 1292   0.324   2.389   9.762  0.1529  0.6100  0.2113
   18CHL1  H11A 1293   0.402   2.310   9.754  3.5208  3.7468  0.6726
   18CHL1  H11B 1294   0.365   2.486   9.796 -1.5548  0.9802  1.2703
   18CHL1    C9 1295   0.210   2.343   9.851  0.1301  0.5001 -0.0797
   18CHL1    H9 1296   0.137   2.426   9.841  0.9657  1.7277  3.3831
   18CHL1   C10 1297   0.245   2.341  10.003 -0.5606  0.0000  0.5282
   18CHL1   C19 1298   0.378   2.265  10.015 -0.0647  0.3898 -0.2742
   18CHL1  H19A 1299   0.382   2.167   9.962  0.8893 -0.1278  0.7259
   18CHL1  H19B 1300   0.462   2.321   9.968  1.2982 -1.5997 -0.2938
   18CHL1  H19C 1301   0.423   2.254  10.116 -1.5207 -0.6121  0.2652
   18CHL1    C1 1302   0.267   2.492  10.053  0.5157 -0.0375 -0.4477
   18CHL1   H1A 1303   0.358   2.529  10.000  1.0628 -0.0123  0.4955
   18CHL1   H1B 1304   0.176   2.546  10.019  1.3341  1.0279 -0.9995
   18CHL1    C2 1305   0.276   2.499  10.202  0.1785 -0.4270 -0.3221
   18CHL1   H2A 1306   0.261   2.607  10.225  0.2820 -0.3633 -0.5586
   18CHL1   H2B 1307   0.376   2.469  10.237 -0.1660 -1.9803 -0.6312
   18CHL1   C20 1308   0.211   2.349   9.302  0.7337  0.4003  0.3866
   18CHL1   H20 1309   0.307   2.405   9.317  1.4079 -0.5827 -0.2391
   18CHL1   C21 1310   0.112   2.432   9.210  1.0609  0.2544 -0.2602
   18CHL1  H21A 1311   0.073   2.526   9.256  0.6520  0.2404 -0.5787
   18CHL1  H21B 1312   0.031   2.378   9.157 -1.1051  2.7159  0.3873
   18CHL1  H21C 1313   0.174   2.460   9.122  1.5975 -2.0175 -0.6293
   18CHL1   C22 1314   0.269   2.233   9.222  0.6608  0.2472 -0.2488
   18CHL1  H22A 1315   0.328   2.167   9.289  3.8280  2.1662 -1.0003
   18CHL1  H22B 1316   0.196   2.167   9.171  1.9197 -0.8972 -0.6016
   18CHL1   C23 1317   0.386   2.273   9.133  0.0725 -0.3186 -0.6898
   18CHL1  H23A 1318   0.355   2.348   9.058 -1.4326 -1.7755 -1.5575
   18CHL1  H23B 1319   0.464   2.310   9.202 -0.7648 -1.0096  0.6542
   18CHL1   C24 1320   0.456   2.162   9.054 -0.4320 -0.3340 -0.3821
   18CHL1  H24A 1321   0.516   2.112   9.133  0.3009 -1.5444 -1.6890
   18CHL1  H24B 1322   0.383   2.092   9.010  0.3093 -0.7206 -1.0187
   18CHL1   C25 1323   0.564   2.192   8.945  0.2180  0.3582  0.3218
   18CHL1   H25 1324   0.633   2.261   8.998 -1.2356  2.9539 -1.0489
   18CHL1   C26 1325   0.647   2.056   8.912  0.8632 -0.1668  0.0002
   18CHL1  H26A 1326   0.686   2.009   9.004 -0.2056  1.1660  1.1604
   18CHL1  H26B 1327   0.588   1.986   8.849 -0.3015 -0.1843  1.0907
   18CHL1  H26C 1328   0.738   2.072   8.851  0.5962 -1.0066 -0.6240
   18CHL1   C27 1329   0.506   2.267   8.826  0.2224  0.0684  0.8016
   18CHL1  H27A 1330   0.451   2.201   8.755  1.4959 -0.3652  0.2095
   18CHL1  H27B 1331   0.445   2.355   8.857  0.5269  0.8315 -0.7724
   18CHL1  H27C 1332   0.587   2.322   8.774  0.0373 -0.6606 -0.2851
   19CHL1    C3 1333   3.599   6.221  10.109 -0.0517  0.6129  0.4487
   19CHL1    H3 1334   3.512   6.290  10.101  1.5654  2.5470 -0.8889
   19CHL1    O3 1335   3.636   6.177  10.232  0.4208  0.1513 -0.0816
   19CHL1   H3' 1336   3.580   6.105  10.262 -0.3698  0.6486 -0.3763
   19CHL1    C4 1337   3.588   6.097  10.027  0.2085  0.2800  0.6712
   19CHL1   H4A 1338   3.678   6.032  10.036  0.4245  0.5464  0.4447
   19CHL1   H4B 1339   3.501   6.038  10.062  0.5802  0.3987  1.7986
   19CHL1    C5 1340   3.579   6.127   9.877  0.8951  0.3759 -0.4506
   19CHL1    C6 1341   3.484   6.066   9.800 -0.0638  0.1830 -0.0775
   19CHL1    H6 1342   3.421   5.991   9.850  0.0121  0.8732  1.0770
   19CHL1    C7 1343   3.476   6.079   9.657  0.0667  0.1354  0.2944
   19CHL1   H7A 1344   3.483   5.978   9.612  0.6156 -0.0461  0.7706
   19CHL1   H7B 1345   3.377   6.121   9.631  0.2038  0.6570  0.5979
   19CHL1    C8 1346   3.595   6.153   9.589 -0.0777 -0.2292  0.2665
   19CHL1    H8 1347   3.672   6.074   9.582  0.0824 -0.1747  1.3161
   19CHL1   C14 1348   3.545   6.211   9.454  0.0605 -0.5984  0.8105
   19CHL1   H14 1349   3.468   6.286   9.484  0.2978  0.0185 -0.0979
   19CHL1   C15 1350   3.483   6.112   9.363 -0.1421 -0.3790  0.3448
   19CHL1  H15A 1351   3.534   6.013   9.358 -0.5206 -0.5011 -1.4230
   19CHL1  H15B 1352   3.381   6.087   9.400  0.0469  1.9727  2.5286
   19CHL1   C16 1353   3.486   6.183   9.224  0.2282 -0.0457  0.1920
   19CHL1  H16A 1354   3.537   6.118   9.150  0.3431 -0.8989  1.0120
   19CHL1  H16B 1355   3.389   6.212   9.179  0.8263  1.1091 -0.3911
   19CHL1   C17 1356   3.570   6.317   9.252  1.0816 -0.1999 -1.0388
   19CHL1   H17 1357   3.488   6.385   9.284  0.6115 -1.6129  0.8847
   19CHL1   C13 1358   3.649   6.299   9.379 -0.2552 -0.2127 -0.5646
   19CHL1   C18 1359   3.768   6.211   9.336  0.9671 -0.3127 -0.3480
   19CHL1  H18A 1360   3.817   6.158   9.421  0.9616  1.0855  0.5472
   19CHL1  H18B 1361   3.728   6.131   9.270 -0.4668 -0.2558  0.4194
   19CHL1  H18C 1362   3.853   6.254   9.278  0.0719  0.6600 -0.9638
   19CHL1   C12 1363   3.700   6.408   9.470  0.5135 -0.1492 -0.1117
   19CHL1  H12A 1364   3.779   6.475   9.430  0.2919  0.3048  0.2017
   19CHL1  H12B 1365   3.627   6.488   9.492 -0.0695 -0.0267 -2.3785
   19CHL1   C11 1366   3.752   6.356   9.607 -0.0188 -0.0691  0.2433
   19CHL1  H11A 1367   3.845   6.297   9.588 -0.1563 -0.3381  0.4083
   19CHL1  H11B 1368   3.783   6.449   9.659 -0.0182  1.2105 -1.9538
   19CHL1    C9 1369   3.650   6.263   9.683  0.3995  0.4309  0.2858
   19CHL1    H9 1370   3.565   6.334   9.691  0.7568  1.0902 -1.6878
   19CHL1   C10 1371   3.689   6.230   9.823 -0.6951 -0.4832 -0.4829
   19CHL1   C19 1372   3.833   6.168   9.812 -0.0766  0.4742  0.2173
   19CHL1  H19A 1373   3.843   6.110   9.718  1.9920 -3.5365  2.8083
   19CHL1  H19B 1374   3.904   6.253   9.808  0.7323 -0.2679 -1.6353
   19CHL1  H19C 1375   3.854   6.094   9.892  1.0370  2.8485  2.1996
   19CHL1    C1 1376   3.695   6.359   9.913  0.6584  0.1515 -0.3871
   19CHL1   H1A 1377   3.788   6.415   9.888  1.9167 -1.8555 -0.3032
   19CHL1   H1B 1378   3.608   6.428   9.913  0.1338 -0.4975  0.5262
   19CHL1    C2 1379   3.716   6.317  10.055  0.2664 -0.1373 -0.4798
   19CHL1   H2A 1380   3.717   6.405  10.122  0.6651 -1.1815  0.9271
   19CHL1   H2B 1381   3.817   6.270  10.059  0.3635  0.1599  0.8836
   19CHL1   C20 1382   3.639   6.360   9.127  0.4048 -0.3139  0.5312
   19CHL1   H20 1383   3.711   6.279   9.101 -0.8366 -0.1229 -3.9622
   19CHL1   C21 1384   3.716   6.492   9.144 -0.0591  0.0469 -0.1158
   19CHL1  H21A 1385   3.647   6.569   9.184 -0.2250  1.2293 -2.5771
   19CHL1  H21B 1386   3.760   6.538   9.053 -2.2718  2.3297 -0.1015
   19CHL1  H21C 1387   3.797   6.479   9.218 -0.1218 -0.0688 -0.0668
   19CHL1   C22 1388   3.545   6.384   9.009 -0.3741 -0.3471  0.1160
   19CHL1  H22A 1389   3.474   6.299   9.004  1.1861 -1.5616 -1.9337
   19CHL1  H22B 1390   3.485   6.477   9.018 -1.0581 -0.8546  0.9443
   19CHL1   C23 1391   3.620   6.358   8.875 -0.5525  0.7337  0.7302
   19CHL1  H23A 1392   3.708   6.425   8.864  0.4298 -0.7393 -0.4606
   19CHL1  H23B 1393   3.657   6.253   8.875 -1.1029  0.5308  2.0470
   19CHL1   C24 1394   3.532   6.386   8.745 -0.3957  0.1662 -0.4691
   19CHL1  H24A 1395   3.558   6.319   8.660  1.4967  1.6086 -1.0633
   19CHL1  H24B 1396   3.428   6.363   8.777 -1.1840  1.8196 -1.7781
   19CHL1   C25 1397   3.532   6.537   8.706 -0.1302 -0.2396 -0.3126
   19CHL1   H25 1398   3.594   6.599   8.774 -1.8315  1.0143  0.1139
   19CHL1   C26 1399   3.600   6.555   8.572 -0.1071 -0.2029  1.0917
   19CHL1  H26A 1400   3.575   6.655   8.531 -0.1834 -0.9482 -0.7574
   19CHL1  H26B 1401   3.708   6.528   8.571 -0.0889 -0.1133  0.6249
   19CHL1  H26C 1402   3.541   6.487   8.506  0.0492 -0.1774  0.9265
   19CHL1   C27 1403   3.387   6.585   8.707 -0.0536 -0.4628 -0.3939
   19CHL1  H27A 1404   3.330   6.564   8.800 -0.2609  1.6628 -0.0059
   19CHL1  H27B 1405   3.388   6.695   8.689 -2.0282 -0.0395  1.7285
   19CHL1  H27C 1406   3.323   6.536   8.631 -0.7984 -0.6101  0.3169
   20CHL1    C3 1407   6.418   6.539  10.433 -0.1793 -0.4628  0.2635
   20CHL1    H3 1408   6.324   6.484  10.410 -1.2722  1.2191  0.6677
   20CHL1    O3 1409   6.414   6.525  10.577 -0.1350  0.4391 -0.0214
   20CHL1   H3' 1410   6.394   6.608  10.618  1.4771  0.2040  1.3061
   20CHL1    C4 1411   6.553   6.488  10.387 -0.0780  0.5352 -0.5813
   20CHL1   H4A 1412   6.638   6.540  10.435 -0.2872  0.6080 -0.2907
   20CHL1   H4B 1413   6.553   6.382  10.419 -0.4064  0.4816 -0.7486
   20CHL1    C5 1414   6.553   6.491  10.236  0.0770  0.5666 -0.1577
   20CHL1    C6 1415   6.573   6.381  10.162  0.7628  0.0556 -0.4058
   20CHL1    H6 1416   6.586   6.290  10.222  0.6670  0.7238  0.6558
   20CHL1    C7 1417   6.602   6.373  10.018  0.0831  0.2177  0.1618
   20CHL1   H7A 1418   6.699   6.323   9.996 -0.3472 -1.6990  2.3934
   20CHL1   H7B 1419   6.528   6.309   9.967  1.7582 -0.6040 -1.3068
   20CHL1    C8 1420   6.597   6.510   9.945 -0.6581  0.2011  0.5497
   20CHL1    H8 1421   6.703   6.542   9.942 -0.9577  1.1562 -1.3863
   20CHL1   C14 1422   6.557   6.496   9.803  0.7757 -0.5568 -0.2476
   20CHL1   H14 1423   6.454   6.458   9.816  0.2840  1.2102  1.2632
   20CHL1   C15 1424   6.619   6.384   9.710  0.0002 -0.4787  0.4390
   20CHL1  H15A 1425   6.730   6.386   9.717 -0.2037 -0.9536  6.6507
   20CHL1  H15B 1426   6.585   6.279   9.724 -0.4906 -0.2675  0.8393
   20CHL1   C16 1427   6.573   6.433   9.564  0.9468  0.5662  0.0406
   20CHL1  H16A 1428   6.668   6.444   9.508 -0.1058 -3.6878 -2.7892
   20CHL1  H16B 1429   6.513   6.354   9.516 -0.3831  1.6670 -0.1329
   20CHL1   C17 1430   6.494   6.569   9.589  0.8052  0.0604 -0.0163
   20CHL1   H17 1431   6.391   6.536   9.612  0.7535 -2.1931 -3.2706
   20CHL1   C13 1432   6.550   6.628   9.725 -0.5489  0.3611 -0.3913
   20CHL1   C18 1433   6.696   6.692   9.704 -0.2296  0.4057 -0.7180
   20CHL1  H18A 1434   6.774   6.626   9.659 -0.8974  0.2107 -1.5934
   20CHL1  H18B 1435   6.693   6.779   9.636  2.3700 -1.0773 -2.8209
   20CHL1  H18C 1436   6.736   6.726   9.803 -1.8192 -1.0016  0.4455
   20CHL1   C12 1437   6.459   6.727   9.795 -0.4708 -1.2395  0.4594
   20CHL1  H12A 1438   6.445   6.824   9.742 -0.4562 -1.9761 -0.9064
   20CHL1  H12B 1439   6.354   6.693   9.807 -2.2377  3.3549 -0.8239
   20CHL1   C11 1440   6.487   6.741   9.944  0.3635 -0.2267  0.3644
   20CHL1  H11A 1441   6.586   6.790   9.946  1.5628 -2.6454  1.4135
   20CHL1  H11B 1442   6.422   6.814   9.998 -0.7534 -0.3981 -0.7156
   20CHL1    C9 1443   6.506   6.611  10.019  0.4592 -0.0115 -0.0615
   20CHL1    H9 1444   6.407   6.562  10.016 -0.2754  1.1634  3.1353
   20CHL1   C10 1445   6.540   6.629  10.172  0.3554  0.4886  0.0528
   20CHL1   C19 1446   6.663   6.720  10.196 -0.2161  0.3235 -0.6209
   20CHL1  H19A 1447   6.654   6.824  10.159 -1.0984  0.5957  0.3386
   20CHL1  H19B 1448   6.695   6.726  10.302  0.7786  2.5273 -1.0094
   20CHL1  H19C 1449   6.754   6.673  10.151 -0.9443 -1.8458  0.1112
   20CHL1    C1 1450   6.422   6.700  10.238  0.7645  0.6282  0.2711
   20CHL1   H1A 1451   6.424   6.808  10.209  0.3218  1.3705  2.9385
   20CHL1   H1B 1452   6.333   6.647  10.198  0.9180  2.1493 -2.2518
   20CHL1    C2 1453   6.410   6.688  10.396  0.6356 -0.1553 -0.2534
   20CHL1   H2A 1454   6.314   6.730  10.434  1.1040 -1.1165  2.1111
   20CHL1   H2B 1455   6.481   6.746  10.458  2.1379 -2.3323  0.0965
   20CHL1   C20 1456   6.481   6.662   9.465  0.4314  0.0277  0.7031
   20CHL1   H20 1457   6.527   6.761   9.487  1.0921 -0.2620  0.6289
   20CHL1   C21 1458   6.332   6.669   9.430  0.6203  0.1731 -0.2043
   20CHL1  H21A 1459   6.324   6.746   9.350  1.9417  2.0919  1.4702
   20CHL1  H21B 1460   6.265   6.698   9.513  0.6776 -1.4747  0.4435
   20CHL1  H21C 1461   6.302   6.570   9.388  0.5417 -0.4984  1.4114
   20CHL1   C22 1462   6.569   6.618   9.348 -0.0390 -0.4030  0.2981
   20CHL1  H22A 1463   6.677   6.620   9.373  0.2432 -0.0975 -0.9094
   20CHL1  H22B 1464   6.543   6.512   9.324 -0.6393 -1.4885  5.1666
   20CHL1   C23 1465   6.561   6.702   9.223 -0.6547 -0.4799  0.6028
   20CHL1  H23A 1466   6.456   6.720   9.194 -0.4187 -1.8640 -1.1713
   20CHL1  H23B 1467   6.606   6.801   9.245  0.1351 -1.1686  2.2161
   20CHL1   C24 1468   6.654   6.641   9.119 -0.1045 -0.4839 -0.2177
   20CHL1  H24A 1469   6.757   6.655   9.158  0.8881  0.0283 -2.9298
   20CHL1  H24B 1470   6.652   6.530   9.112 -0.3779 -0.4238 -1.1650
   20CHL1   C25 1471   6.669   6.721   8.985  0.3258 -0.1243  0.3960
   20CHL1   H25 1472   6.693   6.827   9.008 -2.3575  0.7400 -0.6238
   20CHL1   C26 1473   6.787   6.667   8.907 -0.8033 -0.1491  0.4746
   20CHL1  H26A 1474   6.882   6.674   8.964 -0.5048 -2.4889  0.3106
   20CHL1  H26B 1475   6.774   6.559   8.884 -1.1026  0.1907 -1.0002
   20CHL1  H26C 1476   6.797   6.724   8.812  1.0984 -1.3492 -0.0681
   20CHL1   C27 1477   6.541   6.706   8.905 -0.7656 -0.4562 -0.4973
   20CHL1  H27A 1478   6.563   6.731   8.799  2.7385  2.0929  0.7351
   20CHL1  H27B 1479   6.505   6.601   8.907 -0.3183 -0.5843  1.1806
   20CHL1  H27C 1480   6.466   6.777   8.948  0.8065  0.6129  0.5131
   21CHL1    C3 1481   6.222   3.013  10.241  0.5200 -0.2914  0.0575
   21CHL1    H3 1482   6.329   3.029  10.216  0.0846  1.1965 -0.9539
   21CHL1    O3 1483   6.198   3.047  10.371 -0.2202 -0.2972  0.4460
   21CHL1   H3' 1484   6.104   3.035  10.389 -0.3639 -0.6085 -0.4572
   21CHL1    C4 1485   6.140   3.105  10.156  0.3031 -0.4520 -0.1861
   21CHL1   H4A 1486   6.034   3.103  10.191  0.3022 -0.2412 -0.1754
   21CHL1   H4B 1487   6.160   3.211  10.183  3.1237 -1.2569  1.0121
   21CHL1    C5 1488   6.164   3.078  10.011  0.5056  0.1856  0.5681
   21CHL1    C6 1489   6.210   3.175   9.938  0.7328 -0.1411 -0.0878
   21CHL1    H6 1490   6.218   3.277   9.980 -2.5771 -1.0253  2.8859
   21CHL1    C7 1491   6.249   3.167   9.793  0.1451  0.2738 -0.5379
   21CHL1   H7A 1492   6.220   3.262   9.743 -0.9040  1.1923  1.7372
   21CHL1   H7B 1493   6.360   3.162   9.785  0.0872 -1.7682 -0.3663
   21CHL1    C8 1494   6.192   3.039   9.731  0.2732 -0.3448  0.2032
   21CHL1    H8 1495   6.084   3.066   9.728  0.5044  0.6694  0.6925
   21CHL1   C14 1496   6.249   3.005   9.593 -0.0787 -0.0665 -0.1077
   21CHL1   H14 1497   6.349   2.966   9.622 -0.2325  1.4054  2.6028
   21CHL1   C15 1498   6.260   3.118   9.489 -0.2434 -0.3023  0.0841
   21CHL1  H15A 1499   6.169   3.179   9.506 -1.6902 -1.7161 -2.2569
   21CHL1  H15B 1500   6.348   3.176   9.523  0.1566 -1.0789  0.3724
   21CHL1   C16 1501   6.286   3.053   9.350  0.1976 -0.0438 -0.0723
   21CHL1  H16A 1502   6.224   3.089   9.265  0.6570  3.2523  0.8897
   21CHL1  H16B 1503   6.391   3.054   9.316  0.6013  0.3277  1.1680
   21CHL1   C17 1504   6.255   2.898   9.385  0.3195  0.2479  0.1792
   21CHL1   H17 1505   6.356   2.851   9.391  0.5814  0.5647 -1.3979
   21CHL1   C13 1506   6.181   2.894   9.517 -0.3217  0.1610  0.3746
   21CHL1   C18 1507   6.032   2.921   9.496  0.1634 -0.2987  0.0643
   21CHL1  H18A 1508   6.012   3.006   9.427 -0.5984 -0.4701  0.0669
   21CHL1  H18B 1509   5.985   2.828   9.456  1.2056 -0.6298 -0.4069
   21CHL1  H18C 1510   5.963   2.943   9.580  0.3940  0.5806  0.0271
   21CHL1   C12 1511   6.206   2.764   9.606 -0.7000  0.1154  0.1013
   21CHL1  H12A 1512   6.164   2.668   9.569 -1.6924  0.2810  0.7793
   21CHL1  H12B 1513   6.316   2.752   9.608 -0.3174  3.0343 -0.2728
   21CHL1   C11 1514   6.149   2.783   9.749 -0.6033  0.1274  0.3219
   21CHL1  H11A 1515   6.040   2.804   9.741 -0.4487  0.4650 -0.9884
   21CHL1  H11B 1516   6.182   2.702   9.817  2.1133  0.2760 -0.7674
   21CHL1    C9 1517   6.195   2.915   9.822 -0.7281  0.8770 -0.6855
   21CHL1    H9 1518   6.303   2.891   9.830 -1.3337 -1.1846  1.8248
   21CHL1   C10 1519   6.140   2.936   9.969  0.0780  0.4306  0.1766
   21CHL1   C19 1520   5.987   2.911   9.976 -0.0128  0.1980 -0.1905
   21CHL1  H19A 1521   5.944   2.949   9.881 -0.3790 -1.4092 -0.6830
   21CHL1  H19B 1522   5.965   2.803   9.989  1.8670 -0.2436 -0.5850
   21CHL1  H19C 1523   5.940   2.963  10.063 -0.1296  2.8133 -1.7627
   21CHL1    C1 1524   6.226   2.833  10.055 -0.3799  0.7184  0.2533
   21CHL1   H1A 1525   6.195   2.730  10.027  1.1883  0.5830 -1.0160
   21CHL1   H1B 1526   6.333   2.847  10.032 -0.7679 -0.7573 -2.7320
   21CHL1    C2 1527   6.206   2.861  10.205  0.0821  0.0409  0.6696
   21CHL1   H2A 1528   6.282   2.810  10.269  0.6351 -0.3204 -0.2629
   21CHL1   H2B 1529   6.108   2.820  10.235  0.1926 -0.6941  0.0415
   21CHL1   C20 1530   6.204   2.824   9.254 -0.3763  0.0163  0.3383
   21CHL1   H20 1531   6.105   2.866   9.225 -1.0086  0.0203  2.3831
   21CHL1   C21 1532   6.176   2.676   9.287  0.0745  0.8658 -0.2368
   21CHL1  H21A 1533   6.109   2.663   9.374  0.3445 -1.5972 -0.3524
   21CHL1  H21B 1534   6.273   2.639   9.326  0.3172  0.8014 -0.8865
   21CHL1  H21C 1535   6.134   2.610   9.208 -0.8380  1.2955 -0.1122
   21CHL1   C22 1536   6.309   2.827   9.138  0.3634  0.0522  0.2381
   21CHL1  H22A 1537   6.342   2.930   9.112 -0.9798  0.5137  0.3596
   21CHL1  H22B 1538   6.401   2.767   9.159 -2.4039 -3.9164  1.5314
   21CHL1   C23 1539   6.249   2.772   9.006 -0.1083  0.0934 -0.1903
   21CHL1  H23A 1540   6.329   2.788   8.931  1.6354 -0.2498  1.5704
   21CHL1  H23B 1541   6.238   2.661   9.007  0.1206  0.0851  2.5890
   21CHL1   C24 1542   6.118   2.842   8.954 -0.0619 -0.4713 -0.1100
   21CHL1  H24A 1543   6.030   2.824   9.020 -0.1271  1.3043  0.3112
   21CHL1  H24B 1544   6.138   2.951   8.953  1.2073 -0.6708 -3.2555
   21CHL1   C25 1545   6.076   2.798   8.808  0.2252  0.2640  0.4490
   21CHL1   H25 1546   5.974   2.840   8.793  0.3869  0.0671 -1.3108
   21CHL1   C26 1547   6.164   2.845   8.694  0.2138 -0.1973 -0.7120
   21CHL1  H26A 1548   6.267   2.842   8.735 -0.8512  0.1349  2.1632
   21CHL1  H26B 1549   6.159   2.791   8.598  1.4333  1.3141 -1.6452
   21CHL1  H26C 1550   6.162   2.954   8.675 -0.6858 -0.2595 -1.0168
   21CHL1   C27 1551   6.052   2.643   8.803 -0.0524  0.3480  0.0420
   21CHL1  H27A 1552   6.147   2.588   8.789 -0.1978 -0.5903  2.5269
   21CHL1  H27B 1553   6.001   2.600   8.892 -0.7902  2.1490  0.5199
   21CHL1  H27C 1554   5.983   2.622   8.719  1.0289 -0.4442 -0.6598
   22CHL1    C3 1555   5.222   3.702  10.093 -0.1208 -0.3374  0.2209
   22CHL1    H3 1556   5.147   3.624  10.068 -0.4846 -0.4241  1.5464
   22CHL1    O3 1557   5.235   3.695  10.233 -0.2500 -0.3296 -0.3067
   22CHL1   H3' 1558   5.303   3.758  10.256 -1.2733  0.9829 -0.8453
   22CHL1    C4 1559   5.358   3.655  10.025 -0.2705 -0.3452  0.3505
   22CHL1   H4A 1560   5.436   3.728  10.053 -0.2046  0.3550 -1.5910
   22CHL1   H4B 1561   5.377   3.551  10.061  0.7339 -0.6077 -0.8958
   22CHL1    C5 1562   5.365   3.658   9.878 -0.5799 -0.1810 -0.1453
   22CHL1    C6 1563   5.404   3.551   9.803  0.5770 -0.0368 -0.5070
   22CHL1    H6 1564   5.432   3.457   9.853  1.0349  0.9743  1.1674
   22CHL1    C7 1565   5.415   3.561   9.654 -0.0183  0.2017  0.4686
   22CHL1   H7A 1566   5.518   3.536   9.622 -0.5881 -0.1487 -1.1339
   22CHL1   H7B 1567   5.356   3.476   9.613  2.9539 -1.9153  0.4202
   22CHL1    C8 1568   5.375   3.693   9.583 -0.4305  0.4027 -0.5610
   22CHL1    H8 1569   5.469   3.747   9.607 -0.1741 -0.7634  1.1830
   22CHL1   C14 1570   5.335   3.674   9.437 -0.4997 -0.6118  0.0478
   22CHL1   H14 1571   5.244   3.610   9.440 -0.4889 -0.6149  0.2618
   22CHL1   C15 1572   5.433   3.589   9.351 -0.6239 -0.3831  0.6977
   22CHL1  H15A 1573   5.537   3.628   9.358 -1.4510  2.2239 -0.9132
   22CHL1  H15B 1574   5.424   3.486   9.392 -0.0244 -0.9107 -0.4666
   22CHL1   C16 1575   5.386   3.614   9.208  0.7648  0.4314 -0.4232
   22CHL1  H16A 1576   5.467   3.660   9.147  2.3264 -0.1676  1.1557
   22CHL1  H16B 1577   5.341   3.525   9.159  0.4949  1.2285 -1.6564
   22CHL1   C17 1578   5.272   3.721   9.229 -0.7067 -0.1362 -1.1884
   22CHL1   H17 1579   5.178   3.664   9.240  0.3900 -1.8850 -0.8089
   22CHL1   C13 1580   5.298   3.792   9.365 -0.1427  0.4318  0.5188
   22CHL1   C18 1581   5.415   3.891   9.345  0.2060  0.3465  0.1557
   22CHL1  H18A 1582   5.388   3.997   9.324  0.7530  0.3336 -0.6153
   22CHL1  H18B 1583   5.471   3.897   9.441  2.5608 -2.8472 -0.9615
   22CHL1  H18C 1584   5.488   3.859   9.268 -0.1937 -0.6933  0.1951
   22CHL1   C12 1585   5.182   3.859   9.450 -0.7722 -0.5401  0.1849
   22CHL1  H12A 1586   5.149   3.953   9.400  0.2507  0.6468  1.6911
   22CHL1  H12B 1587   5.097   3.788   9.436  0.9730 -2.7582  0.5690
   22CHL1   C11 1588   5.218   3.892   9.593  0.1473 -0.0933 -0.3751
   22CHL1  H11A 1589   5.285   3.980   9.600  2.1046 -1.7254  2.7123
   22CHL1  H11B 1590   5.119   3.924   9.634 -0.5610 -1.1224 -1.2593
   22CHL1    C9 1591   5.266   3.768   9.665 -0.4542  0.7620 -0.3379
   22CHL1    H9 1592   5.184   3.693   9.666  0.1173  0.0857  3.1207
   22CHL1   C10 1593   5.305   3.792   9.817  0.1517 -0.2074 -0.0675
   22CHL1   C19 1594   5.405   3.908   9.829 -0.1078 -0.2882  0.2161
   22CHL1  H19A 1595   5.510   3.883   9.801  0.2547 -0.3688  1.5836
   22CHL1  H19B 1596   5.368   4.005   9.789 -1.7281 -0.2169  1.7986
   22CHL1  H19C 1597   5.417   3.931   9.937 -1.3392  0.2584  0.2438
   22CHL1    C1 1598   5.178   3.844   9.887  0.5062 -0.5995  0.4946
   22CHL1   H1A 1599   5.161   3.942   9.838  0.7755 -0.6891  0.2176
   22CHL1   H1B 1600   5.092   3.780   9.855 -0.5533  1.9867 -2.0504
   22CHL1    C2 1601   5.176   3.838  10.043 -0.1112 -0.3317  0.2447
   22CHL1   H2A 1602   5.070   3.858  10.065  0.2746 -1.5827  3.5189
   22CHL1   H2B 1603   5.240   3.920  10.083  0.5297 -0.9836  0.5770
   22CHL1   C20 1604   5.251   3.798   9.098 -0.1825  0.1628 -0.6685
   22CHL1   H20 1605   5.344   3.830   9.046  1.2953 -1.6565  0.7610
   22CHL1   C21 1606   5.150   3.913   9.118 -0.4224  0.7429 -0.2726
   22CHL1  H21A 1607   5.157   3.974   9.025 -1.1195  0.9123 -0.2132
   22CHL1  H21B 1608   5.170   3.987   9.199  0.5936  0.3334 -0.1362
   22CHL1  H21C 1609   5.047   3.874   9.133 -0.4507  0.5072 -1.0578
   22CHL1   C22 1610   5.196   3.709   8.990 -0.1713 -0.1428  0.5396
   22CHL1  H22A 1611   5.252   3.613   9.000  0.4101  0.0857 -0.4550
   22CHL1  H22B 1612   5.088   3.687   9.006 -0.6775  2.0770  0.2268
   22CHL1   C23 1613   5.197   3.764   8.844  0.2127  0.5938  0.1388
   22CHL1  H23A 1614   5.129   3.849   8.820  0.0272  0.5286  0.4239
   22CHL1  H23B 1615   5.298   3.811   8.843  0.9791 -1.0051  0.8592
   22CHL1   C24 1616   5.209   3.646   8.741 -0.2702  0.4064 -0.3493
   22CHL1  H24A 1617   5.284   3.669   8.662  0.1372 -2.2127 -0.7659
   22CHL1  H24B 1618   5.235   3.548   8.787 -0.3546  0.6193  0.1553
   22CHL1   C25 1619   5.084   3.621   8.660  0.0872  0.2521 -0.0736
   22CHL1   H25 1620   5.056   3.724   8.628  1.9255  0.4777 -1.0237
   22CHL1   C26 1621   5.115   3.531   8.544 -0.3458  0.1442  0.0091
   22CHL1  H26A 1622   5.024   3.531   8.480  1.2575  0.3174 -2.3291
   22CHL1  H26B 1623   5.207   3.564   8.490 -0.7984  0.4514 -0.5820
   22CHL1  H26C 1624   5.140   3.430   8.583 -3.2363 -0.9873 -0.9298
   22CHL1   C27 1625   4.969   3.552   8.739  0.3313 -0.6118  0.1319
   22CHL1  H27A 1626   4.962   3.606   8.836 -2.3458 -1.6016  0.5132
   22CHL1  H27B 1627   4.873   3.559   8.684  0.0873  0.4059  0.6666
   22CHL1  H27C 1628   4.984   3.445   8.765 -0.3114 -0.1018  2.7580
   23CHL1    C3 1629   2.172   5.435  10.150 -0.2702  0.4662 -0.4841
   23CHL1    H3 1630   2.245   5.500  10.098 -0.3115  0.4336 -0.5816
   23CHL1    O3 1631   2.181   5.454  10.292  0.4717 -0.2107  0.7214
   23CHL1   H3' 1632   2.108   5.410  10.336  0.9254 -1.1654  0.5296
   23CHL1    C4 1633   2.029   5.486  10.106  0.1979 -0.6786 -0.4509
   23CHL1   H4A 1634   1.954   5.427  10.163  0.1950  0.1682  0.4261
   23CHL1   H4B 1635   2.017   5.593  10.134 -1.2489 -0.9564  0.0049
   23CHL1    C5 1636   1.998   5.462   9.960  0.5156 -0.3644  0.0001
   23CHL1    C6 1637   1.958   5.557   9.885  0.6321  0.3301 -0.2453
   23CHL1    H6 1638   1.964   5.663   9.914 -0.3399  0.3037  0.1053
   23CHL1    C7 1639   1.909   5.544   9.742  0.0634  0.3120 -0.0978
   23CHL1   H7A 1640   1.807   5.585   9.725  1.2302  2.8763 -1.2791
   23CHL1   H7B 1641   1.970   5.611   9.678  0.8468  0.2878  0.6187
   23CHL1    C8 1642   1.896   5.397   9.694 -0.5365 -0.1020 -0.5840
   23CHL1    H8 1643   1.800   5.348   9.721 -0.8298  0.5003 -0.5277
   23CHL1   C14 1644   1.904   5.390   9.537 -0.8807  0.1333 -0.1308
   23CHL1   H14 1645   1.998   5.438   9.502 -0.4776 -1.3754 -1.1780
   23CHL1   C15 1646   1.806   5.477   9.455  0.7821  0.0877 -0.1353
   23CHL1  H15A 1647   1.701   5.468   9.490  0.8432  2.9763  0.9467
   23CHL1  H15B 1648   1.819   5.587   9.460 -1.5513  0.3126  1.7332
   23CHL1   C16 1649   1.822   5.411   9.316 -0.3584  0.4323 -0.1506
   23CHL1  H16A 1650   1.736   5.372   9.259 -0.4285  0.2100  0.1062
   23CHL1  H16B 1651   1.862   5.493   9.252  3.7039 -1.9150 -0.8289
   23CHL1   C17 1652   1.935   5.307   9.329 -0.8402  0.6981 -0.0990
   23CHL1   H17 1653   2.040   5.343   9.314 -0.7105 -0.8493 -3.4000
   23CHL1   C13 1654   1.920   5.254   9.476  0.0791 -0.4560  0.1870
   23CHL1   C18 1655   1.780   5.175   9.489  0.2372  1.2465 -0.5761
   23CHL1  H18A 1656   1.796   5.078   9.438 -2.8952 -0.8763  2.2396
   23CHL1  H18B 1657   1.735   5.159   9.590 -1.3458  2.6692 -1.0247
   23CHL1  H18C 1658   1.704   5.218   9.420 -0.4285  0.7764 -0.1420
   23CHL1   C12 1659   2.028   5.179   9.543 -0.2853 -0.9903  0.7243
   23CHL1  H12A 1660   2.033   5.069   9.524  1.4480 -0.6319 -1.0719
   23CHL1  H12B 1661   2.120   5.229   9.507 -1.6611  0.7249 -0.4601
   23CHL1   C11 1662   2.025   5.175   9.699  0.1157 -0.2978 -0.0362
   23CHL1  H11A 1663   1.934   5.118   9.727 -0.5620  1.6037  1.7935
   23CHL1  H11B 1664   2.115   5.124   9.738  0.5105  0.6122  0.2659
   23CHL1    C9 1665   2.019   5.321   9.759 -0.5295 -0.2679 -0.8843
   23CHL1    H9 1666   2.109   5.373   9.720  0.8261 -2.3382 -0.5875
   23CHL1   C10 1667   2.020   5.321   9.909  1.0869 -0.1084 -0.2696
   23CHL1   C19 1668   1.902   5.226   9.963  0.0126  0.2370 -0.2978
   23CHL1  H19A 1669   1.922   5.116   9.960 -0.3791  0.1911 -1.1227
   23CHL1  H19B 1670   1.888   5.256  10.069  1.6621 -0.4253  0.1323
   23CHL1  H19C 1671   1.808   5.245   9.907 -0.9571  1.6208  1.7581
   23CHL1    C1 1672   2.156   5.260   9.963  0.0983 -0.3385  0.2970
   23CHL1   H1A 1673   2.144   5.152   9.939  2.8473 -0.6384  0.0321
   23CHL1   H1B 1674   2.248   5.286   9.906  0.5159 -0.6694  0.8144
   23CHL1    C2 1675   2.181   5.288  10.117  0.2486  0.3572 -0.4973
   23CHL1   H2A 1676   2.279   5.242  10.143  0.1112  1.2854  1.8226
   23CHL1   H2B 1677   2.107   5.231  10.177 -0.0081  1.3597  0.1529
   23CHL1   C20 1678   1.925   5.203   9.225 -0.2080  0.5121 -0.4417
   23CHL1   H20 1679   1.823   5.161   9.221  0.2135 -0.5279 -0.6070
   23CHL1   C21 1680   2.022   5.082   9.248  0.5213  0.3523  0.1035
   23CHL1  H21A 1681   2.043   5.035   9.149 -0.3149 -0.8369  0.4855
   23CHL1  H21B 1682   1.978   5.009   9.319  1.8463  2.3015  3.0601
   23CHL1  H21C 1683   2.118   5.124   9.285 -0.3049 -0.7391  3.6879
   23CHL1   C22 1684   1.949   5.257   9.081 -0.0675 -0.4152 -0.4167
   23CHL1  H22A 1685   1.910   5.361   9.075 -1.5248 -0.9282 -0.0895
   23CHL1  H22B 1686   2.057   5.257   9.055  0.0073 -0.4129 -0.1050
   23CHL1   C23 1687   1.873   5.184   8.969  0.2544 -0.1652 -0.7340
   23CHL1  H23A 1688   1.891   5.075   8.982 -1.2013 -0.4997 -1.4732
   23CHL1  H23B 1689   1.765   5.191   8.990  0.1867 -2.5782 -0.0599
   23CHL1   C24 1690   1.909   5.222   8.830 -0.3537  0.5203 -0.1184
   23CHL1  H24A 1691   1.883   5.329   8.818 -3.4477 -0.1019  0.7652
   23CHL1  H24B 1692   2.018   5.229   8.808 -0.7277  0.6763 -1.9334
   23CHL1   C25 1693   1.829   5.132   8.735 -0.0019  0.7944  0.5672
   23CHL1   H25 1694   1.727   5.127   8.777 -0.0207  0.8753  0.5300
   23CHL1   C26 1695   1.813   5.193   8.599 -0.5836  0.2008  0.1244
   23CHL1  H26A 1696   1.744   5.124   8.546 -0.5273 -1.2205  1.8722
   23CHL1  H26B 1697   1.787   5.301   8.608 -0.2626  0.3369 -0.5182
   23CHL1  H26C 1698   1.914   5.191   8.552 -1.5739 -2.2820 -1.9866
   23CHL1   C27 1699   1.872   4.987   8.733  0.1224 -0.0151  0.4365
   23CHL1  H27A 1700   1.910   4.944   8.828 -0.3585 -3.5427 -0.8787
   23CHL1  H27B 1701   1.786   4.928   8.693 -1.7006  0.1053  3.9836
   23CHL1  H27C 1702   1.956   4.971   8.662  0.2536 -0.3393  0.6646
   24CHL1    C3 1703   3.186   6.571  10.032 -0.1837  0.3858  0.5096
   24CHL1    H3 1704   3.192   6.682  10.022  2.3788 -0.0374 -3.5777
   24CHL1    O3 1705   3.206   6.532  10.167 -0.0409  0.8436 -0.4536
   24CHL1   H3' 1706   3.280   6.585  10.199 -0.6699  0.4719  1.6771
   24CHL1    C4 1707   3.050   6.516   9.982 -0.7467  0.3541 -1.2894
   24CHL1   H4A 1708   3.029   6.410  10.009 -1.7681  0.7186 -0.6203
   24CHL1   H4B 1709   2.978   6.569  10.049 -0.4318 -1.0497  0.1817
   24CHL1    C5 1710   3.035   6.538   9.832  0.2753  0.9541  0.1032
   24CHL1    C6 1711   2.920   6.593   9.779 -0.3558  0.6610  0.2180
   24CHL1    H6 1712   2.846   6.640   9.846  0.4168  1.5166  0.4866
   24CHL1    C7 1713   2.888   6.591   9.632 -0.2773  0.2686  0.1929
   24CHL1   H7A 1714   2.789   6.548   9.606  0.0352  0.7381 -1.8659
   24CHL1   H7B 1715   2.892   6.698   9.605 -0.2150  0.1456 -0.2902
   24CHL1    C8 1716   2.991   6.509   9.552 -0.1132 -0.2921 -0.3351
   24CHL1    H8 1717   2.962   6.403   9.565  1.7434 -0.5348  2.1195
   24CHL1   C14 1718   2.973   6.545   9.404 -0.8031  0.4956  0.0794
   24CHL1   H14 1719   2.998   6.653   9.395  1.0612 -0.1202 -2.9378
   24CHL1   C15 1720   2.836   6.523   9.348  0.0224 -0.1024 -0.3945
   24CHL1  H15A 1721   2.798   6.425   9.386 -1.1899  0.7536  0.6340
   24CHL1  H15B 1722   2.764   6.603   9.372 -0.2854 -0.3473 -0.4897
   24CHL1   C16 1723   2.856   6.522   9.196 -0.6808 -0.3581 -0.4565
   24CHL1  H16A 1724   2.803   6.430   9.163 -0.9942  0.0606 -1.1538
   24CHL1  H16B 1725   2.803   6.615   9.164  0.6258  0.9206  1.0192
   24CHL1   C17 1726   3.011   6.526   9.177 -0.7313 -0.3032 -0.7852
   24CHL1   H17 1727   3.047   6.629   9.160  1.8333 -0.4171  3.4635
   24CHL1   C13 1728   3.069   6.472   9.313 -0.1177 -0.6694 -0.2881
   24CHL1   C18 1729   3.045   6.317   9.325  0.0352 -0.0381  0.2194
   24CHL1  H18A 1730   2.939   6.290   9.308  0.2219  0.9724 -3.0200
   24CHL1  H18B 1731   3.108   6.252   9.260  0.2073  1.7948 -1.4937
   24CHL1  H18C 1732   3.079   6.287   9.426 -0.0101  0.3946  0.3616
   24CHL1   C12 1733   3.213   6.512   9.354  0.4415 -0.1649  0.1116
   24CHL1  H12A 1734   3.285   6.454   9.293 -1.2042 -1.0916 -0.9962
   24CHL1  H12B 1735   3.238   6.620   9.347 -1.9931  0.3671 -0.8557
   24CHL1   C11 1736   3.235   6.473   9.506  0.1408  0.8904  0.1997
   24CHL1  H11A 1737   3.241   6.363   9.510 -0.1295  0.7848 -1.8268
   24CHL1  H11B 1738   3.338   6.503   9.537  0.8436  0.0622 -1.2460
   24CHL1    C9 1739   3.129   6.536   9.604  0.4314 -0.3635  0.4114
   24CHL1    H9 1740   3.144   6.647   9.603  0.7034 -0.3988  0.5739
   24CHL1   C10 1741   3.154   6.480   9.749 -0.3573  0.4588  0.0985
   24CHL1   C19 1742   3.149   6.326   9.752  0.6419  0.3655  0.1355
   24CHL1  H19A 1743   3.246   6.288   9.711  1.5541  4.7105 -2.0165
   24CHL1  H19B 1744   3.146   6.280   9.853  1.4136  0.3517  0.1552
   24CHL1  H19C 1745   3.068   6.285   9.688  1.2821 -0.1283 -0.3680
   24CHL1    C1 1746   3.293   6.531   9.807  0.2234  0.6862  0.2006
   24CHL1   H1A 1747   3.372   6.479   9.748 -2.4306 -2.4603 -0.7171
   24CHL1   H1B 1748   3.289   6.642   9.803  1.7571  0.7701  0.7262
   24CHL1    C2 1749   3.307   6.503   9.955  0.3756 -0.0169 -0.7364
   24CHL1   H2A 1750   3.398   6.554   9.994 -0.5625  0.8679  0.3638
   24CHL1   H2B 1751   3.313   6.394   9.978  2.7564 -0.0921 -1.6708
   24CHL1   C20 1752   3.046   6.447   9.046 -0.7385 -0.1401 -0.1736
   24CHL1   H20 1753   3.012   6.343   9.062  0.6621 -0.3982  1.3164
   24CHL1   C21 1754   3.202   6.441   9.022  0.0035  0.0747 -0.2236
   24CHL1  H21A 1755   3.264   6.523   9.063  0.8466  0.6170 -2.4835
   24CHL1  H21B 1756   3.212   6.429   8.912 -1.3293 -2.0974 -0.1276
   24CHL1  H21C 1757   3.225   6.343   9.068 -0.8716  0.6415  1.4779
   24CHL1   C22 1758   2.964   6.490   8.921 -0.1145 -0.1570 -0.4502
   24CHL1  H22A 1759   2.855   6.501   8.943  0.1082  0.9891  0.0982
   24CHL1  H22B 1760   3.002   6.589   8.889 -1.3755  0.1287 -1.1221
   24CHL1   C23 1761   2.973   6.391   8.801  0.0468 -0.4729  0.0851
   24CHL1  H23A 1762   3.082   6.374   8.790  0.1251 -0.3540  0.6701
   24CHL1  H23B 1763   2.920   6.296   8.826  0.9814 -1.1836 -0.6191
   24CHL1   C24 1764   2.924   6.451   8.671 -0.1564  0.1788  0.5686
   24CHL1  H24A 1765   2.814   6.460   8.680 -0.1567  1.8713 -0.8793
   24CHL1  H24B 1766   2.961   6.549   8.634 -1.1733 -0.5814 -2.6406
   24CHL1   C25 1767   2.947   6.360   8.548  0.9550  0.4833 -0.5724
   24CHL1   H25 1768   2.897   6.406   8.460  1.3193  2.1055  0.0490
   24CHL1   C26 1769   3.096   6.345   8.512  0.2195 -0.1601 -0.4458
   24CHL1  H26A 1770   3.146   6.311   8.606 -0.0415  0.3122 -0.1335
   24CHL1  H26B 1771   3.112   6.275   8.428  0.6063 -1.4287  0.6583
   24CHL1  H26C 1772   3.126   6.446   8.478  0.3056  0.3904  1.2303
   24CHL1   C27 1773   2.873   6.225   8.557 -1.2345 -0.5827 -0.2420
   24CHL1  H27A 1774   2.762   6.231   8.555 -1.1812  0.0552 -2.1401
   24CHL1  H27B 1775   2.897   6.155   8.474  2.6733  0.6452 -0.2397
   24CHL1  H27C 1776   2.897   6.172   8.652 -2.6821 -1.9779 -0.6185
   25CHL1    C3 1777   4.675   0.923  10.325 -0.1132  0.3759  0.7118
   25CHL1    H3 1778   4.568   0.898  10.308  0.2136  0.1015 -0.9899
   25CHL1    O3 1779   4.709   0.919  10.468  0.0062  0.0719  0.0825
   25CHL1   H3' 1780   4.803   0.938  10.466  0.0595  0.0127  1.7377
   25CHL1    C4 1781   4.752   0.812  10.241 -0.1385 -0.6121  0.2252
   25CHL1   H4A 1782   4.858   0.796  10.270 -0.3039 -2.1539  0.0535
   25CHL1   H4B 1783   4.711   0.713  10.271 -1.0302 -0.7840 -1.5054
   25CHL1    C5 1784   4.737   0.832  10.089  0.3889 -0.1345 -0.5574
   25CHL1    C6 1785   4.718   0.726  10.011  0.3898  0.4604 -0.6098
   25CHL1    H6 1786   4.719   0.627  10.060  0.7165  0.7415 -0.0431
   25CHL1    C7 1787   4.710   0.730   9.860  0.0373  0.3900  0.7810
   25CHL1   H7A 1788   4.745   0.635   9.814  2.7762 -0.8029  5.0166
   25CHL1   H7B 1789   4.605   0.729   9.823  0.3968  0.1000 -0.2416
   25CHL1    C8 1790   4.764   0.868   9.810  0.4481 -0.1720 -0.4566
   25CHL1    H8 1791   4.875   0.866   9.811  0.4210 -1.6274 -0.0935
   25CHL1   C14 1792   4.717   0.887   9.675  0.1716 -0.1408  0.4089
   25CHL1   H14 1793   4.606   0.884   9.686  0.2373 -2.6318  0.8478
   25CHL1   C15 1794   4.742   0.771   9.573 -0.2273  0.1975 -0.1202
   25CHL1  H15A 1795   4.849   0.741   9.574 -0.1658  0.3467 -1.1833
   25CHL1  H15B 1796   4.677   0.684   9.591  2.7230 -1.9207  0.7276
   25CHL1   C16 1797   4.713   0.837   9.436  0.0778 -0.0737  0.2425
   25CHL1  H16A 1798   4.805   0.814   9.378 -1.1886  1.8141 -2.6181
   25CHL1  H16B 1799   4.619   0.788   9.402  0.0394 -0.2455  0.5901
   25CHL1   C17 1800   4.693   0.987   9.464 -0.1715  0.0267  0.1531
   25CHL1   H17 1801   4.585   0.995   9.489 -0.8448 -2.1839 -1.7955
   25CHL1   C13 1802   4.754   1.017   9.602 -0.3834 -0.1465 -0.0898
   25CHL1   C18 1803   4.912   1.023   9.583  0.5306 -0.9605  0.8495
   25CHL1  H18A 1804   4.943   1.114   9.529 -1.6035 -1.7460 -1.8389
   25CHL1  H18B 1805   4.966   1.025   9.680  0.3157  0.7857  0.9494
   25CHL1  H18C 1806   4.956   0.940   9.523  0.3138 -0.4047 -0.0825
   25CHL1   C12 1807   4.691   1.134   9.684 -0.2725  0.4369 -0.4256
   25CHL1  H12A 1808   4.729   1.234   9.656 -1.4288  0.8676 -0.4748
   25CHL1  H12B 1809   4.580   1.131   9.676 -0.2730  2.4398 -1.3407
   25CHL1   C11 1810   4.727   1.130   9.834  0.0760 -0.4394 -0.4768
   25CHL1  H11A 1811   4.833   1.159   9.851  0.1152  0.3140 -1.9429
   25CHL1  H11B 1812   4.668   1.211   9.884 -0.1098 -1.0889  0.3651
   25CHL1    C9 1813   4.713   0.986   9.894  0.1999  0.4677 -0.1967
   25CHL1    H9 1814   4.605   0.965   9.886 -0.0726  2.0215 -0.9177
   25CHL1   C10 1815   4.752   0.977  10.048 -0.8548 -0.0948 -0.2577
   25CHL1   C19 1816   4.908   1.014  10.059  0.5439 -0.1657 -0.4388
   25CHL1  H19A 1817   4.948   0.963  10.149  0.2266 -0.9298 -0.7329
   25CHL1  H19B 1818   4.974   0.979   9.977  0.8056  0.6883 -0.5936
   25CHL1  H19C 1819   4.909   1.125  10.067 -1.2893 -0.0769 -1.2206
   25CHL1    C1 1820   4.663   1.075  10.131 -0.4084  0.0907 -0.1930
   25CHL1   H1A 1821   4.682   1.177  10.092 -1.2257 -0.5162 -2.2354
   25CHL1   H1B 1822   4.557   1.060  10.100 -0.5613  0.1457  0.3019
   25CHL1    C2 1823   4.694   1.065  10.277  0.8519  0.7688 -0.0043
   25CHL1   H2A 1824   4.624   1.128  10.336  0.0089 -0.4193  0.2735
   25CHL1   H2B 1825   4.797   1.103  10.296  0.7930  0.3659  1.1494
   25CHL1   C20 1826   4.726   1.085   9.345 -0.1014  0.3610 -0.7837
   25CHL1   H20 1827   4.837   1.091   9.334  0.1581 -0.2688  1.3520
   25CHL1   C21 1828   4.671   1.224   9.375 -0.1835  0.3597 -0.9399
   25CHL1  H21A 1829   4.565   1.222   9.409 -0.2064 -4.6421 -0.9506
   25CHL1  H21B 1830   4.691   1.300   9.296  1.4491 -0.8542 -1.7284
   25CHL1  H21C 1831   4.721   1.263   9.466  0.1863 -1.1679 -0.4766
   25CHL1   C22 1832   4.679   1.036   9.207 -0.2909 -0.2228  0.2730
   25CHL1  H22A 1833   4.728   0.939   9.185  0.9573  0.3848  0.3200
   25CHL1  H22B 1834   4.569   1.020   9.212 -0.1410 -0.5968  2.7292
   25CHL1   C23 1835   4.715   1.118   9.082 -0.2151 -0.1808  0.1600
   25CHL1  H23A 1836   4.666   1.218   9.085  1.2582  0.5788 -0.5103
   25CHL1  H23B 1837   4.825   1.128   9.071 -0.1236 -1.0492  0.2716
   25CHL1   C24 1838   4.666   1.045   8.953 -0.1520 -0.1506  0.5177
   25CHL1  H24A 1839   4.716   0.946   8.949 -1.2800 -0.6885 -0.2913
   25CHL1  H24B 1840   4.560   1.020   8.972 -0.5009  0.7467 -0.2274
   25CHL1   C25 1841   4.687   1.135   8.828  0.0410 -0.1429 -0.0883
   25CHL1   H25 1842   4.636   1.230   8.854 -2.8072 -1.2458 -1.4113
   25CHL1   C26 1843   4.829   1.166   8.781  0.1222 -0.7504 -0.2839
   25CHL1  H26A 1844   4.889   1.074   8.771  1.1159 -0.4857  2.6967
   25CHL1  H26B 1845   4.838   1.219   8.684 -0.1732  1.7098  0.9885
   25CHL1  H26C 1846   4.885   1.230   8.853  0.3007 -1.1154 -0.0988
   25CHL1   C27 1847   4.614   1.068   8.705  0.6290  0.2654 -0.6003
   25CHL1  H27A 1848   4.505   1.079   8.726  0.6874  1.2890 -0.8235
   25CHL1  H27B 1849   4.629   1.129   8.614 -1.2756 -1.3218 -2.0161
   25CHL1  H27C 1850   4.646   0.962   8.694 -2.0764 -0.5440 -1.0703
   26CHL1    C3 1851   6.360   3.665  10.351 -0.0652  0.2054 -0.4260
   26CHL1    H3 1852   6.318   3.762  10.317 -0.5028  1.5183  3.4866
   26CHL1    O3 1853   6.341   3.678  10.492  0.1044  0.0219 -0.5120
   26CHL1   H3' 1854   6.352   3.772  10.512 -0.8274 -0.0866  0.5949
   26CHL1    C4 1855   6.296   3.541  10.287 -0.0398 -0.8420 -0.0076
   26CHL1   H4A 1856   6.350   3.450  10.321  0.9282  0.2812  1.4847
   26CHL1   H4B 1857   6.190   3.535  10.321  0.3266  0.7490  1.4605
   26CHL1    C5 1858   6.298   3.551  10.133 -0.3339  0.1131 -0.0238
   26CHL1    C6 1859   6.182   3.559  10.063 -0.2506  0.0254 -0.2707
   26CHL1    H6 1860   6.084   3.550  10.112 -0.5305  2.6820 -0.2886
   26CHL1    C7 1861   6.179   3.565   9.909 -0.1344  0.0592 -0.2793
   26CHL1   H7A 1862   6.103   3.498   9.863  1.2958  0.1475 -2.8774
   26CHL1   H7B 1863   6.142   3.670   9.900  0.5038  0.1908 -1.4796
   26CHL1    C8 1864   6.314   3.559   9.842 -0.1377 -0.2228 -0.0622
   26CHL1    H8 1865   6.329   3.449   9.836  1.2028  0.0383 -1.8676
   26CHL1   C14 1866   6.320   3.636   9.711  0.9058  0.7566  0.1625
   26CHL1   H14 1867   6.307   3.742   9.740 -2.6169  0.3528  0.2175
   26CHL1   C15 1868   6.201   3.603   9.615  0.0230 -0.7890  0.5096
   26CHL1  H15A 1869   6.183   3.494   9.602  1.6009 -0.6728 -3.3141
   26CHL1  H15B 1870   6.109   3.653   9.653  0.2273  0.7642 -0.9654
   26CHL1   C16 1871   6.246   3.656   9.477 -0.2038 -0.1418  0.0777
   26CHL1  H16A 1872   6.234   3.576   9.400  0.7210 -0.6455  0.4441
   26CHL1  H16B 1873   6.203   3.750   9.436 -2.0666 -1.6211 -1.4749
   26CHL1   C17 1874   6.399   3.686   9.502 -0.4496  0.7746 -0.0253
   26CHL1   H17 1875   6.405   3.795   9.521 -1.6852  0.2507  3.7726
   26CHL1   C13 1876   6.436   3.619   9.636  0.3521 -0.2868  0.4904
   26CHL1   C18 1877   6.460   3.471   9.603 -0.0221  0.3149  0.1061
   26CHL1  H18A 1878   6.545   3.456   9.533  1.8620  2.1233  1.9602
   26CHL1  H18B 1879   6.491   3.404   9.687 -1.0932 -2.1510 -1.4061
   26CHL1  H18C 1880   6.378   3.419   9.549  1.4417 -0.6126 -1.2762
   26CHL1   C12 1881   6.560   3.684   9.710  0.4324 -0.0265 -0.0883
   26CHL1  H12A 1882   6.641   3.645   9.645  1.0820 -1.2740  1.4356
   26CHL1  H12B 1883   6.555   3.794   9.703  1.7082  0.1580  1.5014
   26CHL1   C11 1884   6.561   3.620   9.850  0.1600  0.4070 -0.5210
   26CHL1  H11A 1885   6.598   3.518   9.827  0.3043  0.3658 -0.1206
   26CHL1  H11B 1886   6.643   3.655   9.916 -0.9175  1.6258  0.2219
   26CHL1    C9 1887   6.424   3.614   9.924 -0.5232 -0.1466 -0.2528
   26CHL1    H9 1888   6.396   3.720   9.940  1.0687 -0.0214  1.8871
   26CHL1   C10 1889   6.437   3.564  10.078 -0.2658 -0.1715 -0.8168
   26CHL1   C19 1890   6.509   3.426  10.088  0.4164  0.0012 -0.1120
   26CHL1  H19A 1891   6.484   3.373  10.182  1.1212 -0.0030  0.0783
   26CHL1  H19B 1892   6.480   3.377   9.992 -0.1791  2.0515 -1.0196
   26CHL1  H19C 1893   6.619   3.444  10.085  0.3566  0.2224 -1.9414
   26CHL1    C1 1894   6.517   3.672  10.156 -0.8174 -0.5219  0.0818
   26CHL1   H1A 1895   6.623   3.681  10.123 -0.7570 -0.5545  0.2688
   26CHL1   H1B 1896   6.484   3.776  10.132 -0.7411 -0.1872  1.3935
   26CHL1    C2 1897   6.511   3.661  10.306 -0.4757 -0.3291 -0.1034
   26CHL1   H2A 1898   6.562   3.752  10.342  0.9424 -1.6910  1.3740
   26CHL1   H2B 1899   6.559   3.572  10.352  2.6626  0.4736 -1.6677
   26CHL1   C20 1900   6.481   3.655   9.375  0.3827  0.4880 -0.5822
   26CHL1   H20 1901   6.493   3.546   9.362 -1.9620  0.2121 -0.6275
   26CHL1   C21 1902   6.625   3.709   9.392  0.1213  0.2814 -0.9311
   26CHL1  H21A 1903   6.626   3.800   9.455 -2.5182 -0.9568  0.9920
   26CHL1  H21B 1904   6.665   3.724   9.289  1.4366 -0.4813 -0.5475
   26CHL1  H21C 1905   6.690   3.642   9.452 -0.2913 -0.5905 -1.4541
   26CHL1   C22 1906   6.415   3.713   9.242 -0.3999 -0.2677  0.4528
   26CHL1  H22A 1907   6.305   3.726   9.252 -0.5456  0.3522 -1.7184
   26CHL1  H22B 1908   6.455   3.813   9.218  0.4514 -1.1436 -1.8805
   26CHL1   C23 1909   6.448   3.632   9.111 -0.1948  0.3730  0.3375
   26CHL1  H23A 1910   6.410   3.679   9.017 -1.0807 -0.3501  0.3296
   26CHL1  H23B 1911   6.559   3.629   9.100 -0.0078 -0.7207  2.3852
   26CHL1   C24 1912   6.386   3.490   9.108  0.3008 -0.6602 -0.3523
   26CHL1  H24A 1913   6.446   3.430   9.180 -2.0131 -2.9114 -0.2450
   26CHL1  H24B 1914   6.286   3.501   9.154  0.5020  0.9165 -0.2874
   26CHL1   C25 1915   6.386   3.396   8.974 -0.7626 -0.4078 -0.4247
   26CHL1   H25 1916   6.298   3.428   8.915 -2.1043 -0.9259  1.2362
   26CHL1   C26 1917   6.520   3.398   8.891  0.1758 -0.0912 -0.9357
   26CHL1  H26A 1918   6.558   3.501   8.873 -0.5577  0.4336  0.4137
   26CHL1  H26B 1919   6.601   3.346   8.947 -0.5934 -0.0878  0.1945
   26CHL1  H26C 1920   6.502   3.340   8.798  1.0610  0.8238 -1.6925
   26CHL1   C27 1921   6.361   3.249   9.006  0.5626  0.6672 -0.9167
   26CHL1  H27A 1922   6.440   3.212   9.074  0.1289  1.4608  0.0385
   26CHL1  H27B 1923   6.265   3.231   9.060  1.3110 -0.4252  0.0848
   26CHL1  H27C 1924   6.346   3.189   8.914  0.2335  0.0297 -0.4541
   27CHL1    C3 1925   5.369   0.899  10.369  0.4129  0.4828 -0.2407
   27CHL1    H3 1926   5.309   0.806  10.372  1.9878 -0.5483 -0.5533
   27CHL1    O3 1927   5.403   0.936  10.499 -0.1038  0.4568 -0.2982
   27CHL1   H3' 1928   5.491   0.973  10.502 -0.6887  2.1238 -2.5407
   27CHL1    C4 1929   5.500   0.881  10.290  0.7914 -0.2441  0.4761
   27CHL1   H4A 1930   5.565   0.965  10.321  0.1133 -0.1917  1.8050
   27CHL1   H4B 1931   5.557   0.797  10.335 -0.8700 -0.1396  2.8777
   27CHL1    C5 1932   5.482   0.865  10.139 -0.5658 -0.1253 -0.7887
   27CHL1    C6 1933   5.521   0.752  10.080 -0.4270 -0.1426 -0.1938
   27CHL1    H6 1934   5.545   0.671  10.150 -0.4121  0.4060  0.4457
   27CHL1    C7 1935   5.490   0.720   9.935 -0.3619  0.6838  0.1420
   27CHL1   H7A 1936   5.576   0.676   9.880 -1.7914 -0.9418 -0.8647
   27CHL1   H7B 1937   5.403   0.650   9.928  0.2959 -0.0884 -0.4548
   27CHL1    C8 1938   5.452   0.848   9.857 -0.6455  0.4951 -0.3618
   27CHL1    H8 1939   5.548   0.903   9.847 -0.0472 -0.5539 -0.3979
   27CHL1   C14 1940   5.398   0.831   9.714 -0.2780 -0.1073 -0.1233
   27CHL1   H14 1941   5.297   0.786   9.707 -0.2055 -0.0669 -1.6922
   27CHL1   C15 1942   5.471   0.731   9.622  0.7534 -0.1802 -0.1288
   27CHL1  H15A 1943   5.580   0.746   9.634  0.7129 -0.8876  1.2059
   27CHL1  H15B 1944   5.447   0.629   9.657 -0.2349 -0.2535 -0.9976
   27CHL1   C16 1945   5.420   0.762   9.479  0.1890  0.1480  0.0102
   27CHL1  H16A 1946   5.516   0.776   9.424  0.4445 -2.3238 -0.2724
   27CHL1  H16B 1947   5.370   0.667   9.450 -0.1013  0.8798 -1.9445
   27CHL1   C17 1948   5.336   0.893   9.495 -0.9552  0.3548  0.3233
   27CHL1   H17 1949   5.229   0.864   9.508 -0.4245 -2.1391 -0.5793
   27CHL1   C13 1950   5.374   0.957   9.634  0.0039 -0.3308 -0.0865
   27CHL1   C18 1951   5.505   1.046   9.625  0.2968 -0.2093 -0.6492
   27CHL1  H18A 1952   5.582   0.983   9.576  0.6327  0.8211 -1.4640
   27CHL1  H18B 1953   5.478   1.136   9.565  0.3211  0.5618  0.4926
   27CHL1  H18C 1954   5.547   1.088   9.719 -0.3263  1.6014 -1.1611
   27CHL1   C12 1955   5.249   1.020   9.705  0.3677 -0.8543  0.1606
   27CHL1  H12A 1956   5.202   1.102   9.647  2.4985  0.3712  0.1072
   27CHL1  H12B 1957   5.164   0.954   9.731 -0.3765  0.0877  0.1117
   27CHL1   C11 1958   5.296   1.062   9.841  0.6736  0.0787 -1.1259
   27CHL1  H11A 1959   5.373   1.142   9.834  0.2129  0.5929 -0.3803
   27CHL1  H11B 1960   5.212   1.104   9.900 -0.5719 -3.0405 -0.5585
   27CHL1    C9 1961   5.359   0.945   9.925  0.1158 -0.6284  0.0408
   27CHL1    H9 1962   5.275   0.877   9.951  0.4566 -1.0585  0.0370
   27CHL1   C10 1963   5.409   0.978  10.075 -0.3440 -0.4518 -0.9456
   27CHL1   C19 1964   5.495   1.113  10.063  0.1572 -0.1318 -0.1504
   27CHL1  H19A 1965   5.540   1.152  10.157 -0.3681 -2.4326  1.0970
   27CHL1  H19B 1966   5.569   1.098   9.981 -0.2748 -1.8026 -0.2530
   27CHL1  H19C 1967   5.421   1.186  10.026  2.0221  2.0653  0.3581
   27CHL1    C1 1968   5.277   1.006  10.156  0.3672  0.8747  0.0611
   27CHL1   H1A 1969   5.231   1.095  10.109 -1.4336 -0.6966 -1.2679
   27CHL1   H1B 1970   5.209   0.920  10.135  0.4494  0.9083 -0.3455
   27CHL1    C2 1971   5.285   1.017  10.310 -0.0834 -0.2165  0.2398
   27CHL1   H2A 1972   5.193   1.009  10.371  0.8657 -0.9109  1.6342
   27CHL1   H2B 1973   5.323   1.117  10.341 -1.3029  0.7314 -1.2620
   27CHL1   C20 1974   5.350   0.973   9.370 -0.3158 -0.7705 -0.0686
   27CHL1   H20 1975   5.449   1.024   9.368 -1.5130  1.5731 -1.7199
   27CHL1   C21 1976   5.242   1.089   9.380 -0.2950 -0.7243  0.0491
   27CHL1  H21A 1977   5.144   1.041   9.404 -1.0724  0.3125 -0.9915
   27CHL1  H21B 1978   5.238   1.141   9.282  1.2549 -0.7510 -0.0289
   27CHL1  H21C 1979   5.278   1.163   9.454 -3.0587  2.0712 -1.2733
   27CHL1   C22 1980   5.343   0.893   9.239 -0.4150  0.3943 -0.1172
   27CHL1  H22A 1981   5.366   0.969   9.161  0.3873 -0.0512 -0.3214
   27CHL1  H22B 1982   5.415   0.809   9.233 -2.1008 -1.0232 -0.9705
   27CHL1   C23 1983   5.206   0.822   9.216  0.1380  0.4799  0.2695
   27CHL1  H23A 1984   5.188   0.755   9.303 -0.7561  0.8445  0.3646
   27CHL1  H23B 1985   5.123   0.895   9.227 -1.3646 -1.4422  2.1331
   27CHL1   C24 1986   5.200   0.745   9.088  0.5946 -0.0004  0.3866
   27CHL1  H24A 1987   5.278   0.665   9.084  1.3615  0.7540  0.2924
   27CHL1  H24B 1988   5.094   0.711   9.090  0.2135  1.1866  0.3902
   27CHL1   C25 1989   5.219   0.820   8.950 -0.1901  0.1577  0.0414
   27CHL1   H25 1990   5.320   0.866   8.952 -1.0101  1.9394  1.7083
   27CHL1   C26 1991   5.198   0.726   8.826 -0.2805  0.6589 -0.8564
   27CHL1  H26A 1992   5.099   0.676   8.826  0.0396 -0.0261  0.7762
   27CHL1  H26B 1993   5.218   0.781   8.732 -0.5870 -2.0350 -2.5707
   27CHL1  H26C 1994   5.269   0.640   8.832 -0.9085  0.3076  2.3706
   27CHL1   C27 1995   5.128   0.940   8.940  0.3212 -0.9241 -0.3262
   27CHL1  H27A 1996   5.137   0.998   9.034 -0.3345 -1.3955  0.0382
   27CHL1  H27B 1997   5.165   0.993   8.850 -0.3227 -2.3957 -1.4903
   27CHL1  H27C 1998   5.022   0.909   8.922 -0.2532  1.0161 -0.3798
   28CHL1    C3 1999   4.646   6.041  10.057 -0.0143 -0.0245  0.6268
   28CHL1    H3 2000   4.657   6.152  10.051  1.8446 -0.2357 -0.1817
   28CHL1    O3 2001   4.694   5.994  10.177  0.0738 -0.0254  0.4889
   28CHL1   H3' 2002   4.700   5.898  10.173 -0.7823 -0.0027 -1.6949
   28CHL1    C4 2003   4.491   6.015  10.048 -0.6454 -0.4178 -0.1243
   28CHL1   H4A 2004   4.480   5.907  10.075  0.5881  0.3224  3.7053
   28CHL1   H4B 2005   4.435   6.065  10.130 -1.8964 -2.3484  0.2315
   28CHL1    C5 2006   4.440   6.040   9.911 -0.4570  0.3571 -0.9114
   28CHL1    C6 2007   4.342   6.131   9.897  0.0848  0.3511  0.1683
   28CHL1    H6 2008   4.296   6.183   9.984 -0.2496  0.7005 -0.2141
   28CHL1    C7 2009   4.288   6.162   9.763 -0.2035  0.6438  0.0185
   28CHL1   H7A 2010   4.178   6.174   9.773 -0.4538 -1.4020 -0.0401
   28CHL1   H7B 2011   4.344   6.252   9.731  1.8107 -0.4679  0.3791
   28CHL1    C8 2012   4.319   6.061   9.645 -0.3002 -0.0773 -0.0207
   28CHL1    H8 2013   4.261   5.968   9.662 -0.4687 -0.2089 -1.2966
   28CHL1   C14 2014   4.291   6.131   9.513 -0.3570 -0.0652 -0.2605
   28CHL1   H14 2015   4.365   6.213   9.508 -0.1570 -0.0820  1.8893
   28CHL1   C15 2016   4.144   6.190   9.495  0.1169 -0.0825  0.1328
   28CHL1  H15A 2017   4.072   6.121   9.545 -0.6102  1.0836  0.7084
   28CHL1  H15B 2018   4.145   6.296   9.527  3.6214  0.1028 -0.4136
   28CHL1   C16 2019   4.127   6.179   9.342  0.1107 -0.1562  0.2089
   28CHL1  H16A 2020   4.053   6.103   9.310  0.0121  1.1022 -2.7127
   28CHL1  H16B 2021   4.099   6.277   9.298 -1.7469 -0.8135 -0.1393
   28CHL1   C17 2022   4.264   6.138   9.285 -0.1923  0.1615 -0.4582
   28CHL1   H17 2023   4.325   6.231   9.287 -0.2369  0.1770  2.5734
   28CHL1   C13 2024   4.321   6.043   9.390  0.2667  0.5159 -0.6240
   28CHL1   C18 2025   4.241   5.912   9.384  0.2612 -0.1407  0.3833
   28CHL1  H18A 2026   4.259   5.854   9.291  0.0708  0.0468  0.2278
   28CHL1  H18B 2027   4.282   5.848   9.465  2.8800  1.0050  0.0012
   28CHL1  H18C 2028   4.131   5.920   9.398  0.3153 -2.2507  2.2576
   28CHL1   C12 2029   4.470   6.005   9.389  0.0131 -0.6793  0.1397
   28CHL1  H12A 2030   4.474   5.919   9.319 -0.2790 -0.6359  0.0711
   28CHL1  H12B 2031   4.529   6.092   9.353 -1.4770  0.7172  0.9614
   28CHL1   C11 2032   4.513   5.944   9.526 -0.4705  0.0151 -0.7431
   28CHL1  H11A 2033   4.465   5.844   9.535 -0.8067  0.3539  1.4638
   28CHL1  H11B 2034   4.623   5.938   9.535 -0.5043  0.5246  0.0670
   28CHL1    C9 2035   4.469   6.034   9.650 -0.6327  0.2616  0.6059
   28CHL1    H9 2036   4.526   6.128   9.635  0.5211 -0.7541 -1.4663
   28CHL1   C10 2037   4.514   5.978   9.786  0.4208 -0.1013  0.2079
   28CHL1   C19 2038   4.487   5.831   9.799 -0.4373  0.5705 -0.3314
   28CHL1  H19A 2039   4.548   5.770   9.729  1.8244  0.0653  1.9997
   28CHL1  H19B 2040   4.507   5.792   9.901  0.1383  0.6678 -0.4070
   28CHL1  H19C 2041   4.383   5.807   9.767 -0.7056  2.0016 -0.5827
   28CHL1    C1 2042   4.666   6.009   9.809 -0.7055  0.7994  0.3013
   28CHL1   H1A 2043   4.717   5.962   9.723 -0.4825  2.5426 -0.5405
   28CHL1   H1B 2044   4.678   6.118   9.790 -0.8467  1.0554  1.6218
   28CHL1    C2 2045   4.723   5.971   9.944 -0.5305  0.4793 -1.3231
   28CHL1   H2A 2046   4.827   6.011   9.945 -0.7570  1.0847 -1.8449
   28CHL1   H2B 2047   4.724   5.863   9.972 -1.3222  0.2185 -2.2967
   28CHL1   C20 2048   4.264   6.104   9.129 -0.7704  0.3868 -0.0430
   28CHL1   H20 2049   4.230   5.999   9.115 -1.8124  0.6983  0.1057
   28CHL1   C21 2050   4.407   6.112   9.082  1.0239  0.4028  0.8311
   28CHL1  H21A 2051   4.411   6.122   8.971 -1.2027 -1.6216  0.5306
   28CHL1  H21B 2052   4.444   6.012   9.115  1.3074  0.5616  0.9846
   28CHL1  H21C 2053   4.470   6.188   9.133  0.7083  0.8856  0.4997
   28CHL1   C22 2054   4.175   6.198   9.042 -0.9224 -0.4876 -0.9261
   28CHL1  H22A 2055   4.079   6.221   9.094 -0.0462 -0.5881  0.7795
   28CHL1  H22B 2056   4.225   6.291   9.006  1.3768 -0.4099  2.2775
   28CHL1   C23 2057   4.125   6.140   8.908 -0.0350 -0.1129 -0.1432
   28CHL1  H23A 2058   4.215   6.132   8.844 -0.4514  1.8152 -1.0087
   28CHL1  H23B 2059   4.082   6.038   8.923  1.1343 -0.2931  2.2347
   28CHL1   C24 2060   4.018   6.228   8.837 -0.5479 -0.0580  0.5311
   28CHL1  H24A 2061   3.931   6.251   8.902 -1.2790  2.6297 -1.2943
   28CHL1  H24B 2062   4.081   6.318   8.815  0.9212 -0.7959  1.6387
   28CHL1   C25 2063   3.970   6.164   8.709  0.8470 -0.2263  0.2363
   28CHL1   H25 2064   4.062   6.122   8.662 -0.3723 -0.2506 -2.2176
   28CHL1   C26 2065   3.875   6.051   8.734 -0.8403  0.7220  0.0445
   28CHL1  H26A 2066   3.849   6.013   8.633  1.6613 -2.2110  0.4450
   28CHL1  H26B 2067   3.923   5.962   8.780 -2.2300 -0.4550 -0.7381
   28CHL1  H26C 2068   3.795   6.076   8.807 -2.9737  1.3675 -2.4414
   28CHL1   C27 2069   3.900   6.265   8.607  0.1625  0.4362 -0.2607
   28CHL1  H27A 2070   3.872   6.215   8.512  0.9455 -0.9545  0.2296
   28CHL1  H27B 2071   3.803   6.297   8.650 -2.0042  0.8489 -5.1199
   28CHL1  H27C 2072   3.963   6.354   8.583 -0.8228  1.4426  0.7830
   29CHL1    C3 2073   6.157   4.077   6.710 -0.4010 -0.1624 -0.1689
   29CHL1    H3 2074   6.165   4.183   6.741  1.7555  0.0169 -1.2349
   29CHL1    O3 2075   6.117   4.064   6.575  0.4317 -0.0090 -0.5884
   29CHL1   H3' 2076   6.037   4.011   6.574  0.6322 -0.3483  0.3520
   29CHL1    C4 2077   6.289   4.006   6.730  0.3518 -0.0989 -0.0524
   29CHL1   H4A 2078   6.271   3.906   6.686  1.0003 -0.1085 -0.2951
   29CHL1   H4B 2079   6.369   4.046   6.664 -0.6222  0.2147 -1.0703
   29CHL1    C5 2080   6.316   3.994   6.880 -0.4169  0.2012 -0.0962
   29CHL1    C6 2081   6.442   4.035   6.923  0.3252  0.0226 -0.6359
   29CHL1    H6 2082   6.516   4.060   6.845  0.3128  0.6265 -0.4542
   29CHL1    C7 2083   6.489   4.038   7.063  0.1233 -0.3732 -0.6486
   29CHL1   H7A 2084   6.585   3.982   7.073  0.7764  0.8807  0.3385
   29CHL1   H7B 2085   6.499   4.146   7.088 -0.1629 -0.8020  1.3648
   29CHL1    C8 2086   6.397   3.984   7.167  0.6656 -0.0001 -0.0667
   29CHL1    H8 2087   6.422   3.876   7.179 -2.0364 -0.6609 -0.2338
   29CHL1   C14 2088   6.420   4.059   7.304 -0.2734  0.6289 -0.0090
   29CHL1   H14 2089   6.388   4.165   7.294 -0.8992  0.4628  0.1646
   29CHL1   C15 2090   6.558   4.052   7.364 -0.0357  0.4017 -0.2266
   29CHL1  H15A 2091   6.605   3.952   7.373 -1.6057 -0.3500 -0.2534
   29CHL1  H15B 2092   6.627   4.122   7.311  1.5447 -1.7470 -1.0824
   29CHL1   C16 2093   6.542   4.086   7.513  0.7931  0.1981  0.6552
   29CHL1  H16A 2094   6.586   4.026   7.597  0.2082  0.6560  1.2911
   29CHL1  H16B 2095   6.580   4.189   7.527  1.0973 -0.1519  2.5565
   29CHL1   C17 2096   6.388   4.094   7.541  0.3569 -0.3075  0.2944
   29CHL1   H17 2097   6.350   4.196   7.515 -2.1419 -1.2458  0.1183
   29CHL1   C13 2098   6.333   4.009   7.418 -0.2796  0.3435 -0.5903
   29CHL1   C18 2099   6.356   3.862   7.442  0.0050 -0.2581  0.0215
   29CHL1  H18A 2100   6.288   3.816   7.517 -1.3275 -0.0112 -1.0156
   29CHL1  H18B 2101   6.336   3.803   7.351 -0.5303  1.0773 -0.7395
   29CHL1  H18C 2102   6.455   3.844   7.489 -0.0437  1.9371  1.0550
   29CHL1   C12 2103   6.190   4.040   7.374 -0.3837  0.2122  0.6585
   29CHL1  H12A 2104   6.115   4.005   7.447 -0.6107 -0.2182  0.2239
   29CHL1  H12B 2105   6.169   4.147   7.351 -0.0117 -0.2202 -1.9095
   29CHL1   C11 2106   6.153   3.963   7.238 -0.5268 -0.3205  0.3888
   29CHL1  H11A 2107   6.140   3.854   7.254 -1.7557 -0.0764  1.1332
   29CHL1  H11B 2108   6.050   3.999   7.219 -0.7726 -0.6469  1.1144
   29CHL1    C9 2109   6.253   4.003   7.123 -0.4316  0.4554  0.5650
   29CHL1    H9 2110   6.240   4.114   7.123 -4.6732  0.0535 -0.7193
   29CHL1   C10 2111   6.208   3.961   6.981  0.1158 -0.1160 -0.0912
   29CHL1   C19 2112   6.191   3.807   6.978  0.0390 -0.2966  0.3409
   29CHL1  H19A 2113   6.284   3.765   7.020 -0.7600 -1.1879  1.2570
   29CHL1  H19B 2114   6.103   3.772   7.038 -0.3554  1.1819  0.6451
   29CHL1  H19C 2115   6.179   3.773   6.873 -1.9103  1.7055 -0.1352
   29CHL1    C1 2116   6.078   4.021   6.936 -0.1718  0.5458  0.6861
   29CHL1   H1A 2117   5.993   3.977   6.993 -1.1211  1.7355  0.2167
   29CHL1   H1B 2118   6.094   4.127   6.965 -1.6111  1.1102 -0.4994
   29CHL1    C2 2119   6.047   4.007   6.788  0.5374  0.4079 -0.5579
   29CHL1   H2A 2120   5.954   4.063   6.766 -1.2740 -1.7001  1.4979
   29CHL1   H2B 2121   6.031   3.903   6.751  1.4200  0.5786 -1.4382
   29CHL1   C20 2122   6.351   4.050   7.683  0.0260  0.8824 -0.7227
   29CHL1   H20 2123   6.376   3.945   7.708 -0.9371  0.6907 -0.5740
   29CHL1   C21 2124   6.196   4.041   7.708  0.4452 -0.1883  0.0992
   29CHL1  H21A 2125   6.166   3.943   7.667  0.4154 -0.3188  0.4333
   29CHL1  H21B 2126   6.143   4.118   7.647 -0.0817 -0.7048 -0.0942
   29CHL1  H21C 2127   6.168   4.061   7.814  0.0063  1.8865 -0.3677
   29CHL1   C22 2128   6.425   4.127   7.802  0.4419  0.3945  0.6364
   29CHL1  H22A 2129   6.535   4.126   7.787  0.1805 -0.3631 -1.4026
   29CHL1  H22B 2130   6.393   4.231   7.779 -0.0182 -0.2077 -1.6261
   29CHL1   C23 2131   6.394   4.088   7.947 -0.6880 -0.8023 -0.2121
   29CHL1  H23A 2132   6.290   4.118   7.971 -0.3365  0.5845 -0.4006
   29CHL1  H23B 2133   6.415   3.979   7.953  1.7064 -0.3973 -0.8043
   29CHL1   C24 2134   6.485   4.175   8.037  0.1540  0.2191 -0.4332
   29CHL1  H24A 2135   6.594   4.157   8.030  0.0432 -0.8448  0.3410
   29CHL1  H24B 2136   6.460   4.280   8.010 -0.0806 -0.4996 -3.1796
   29CHL1   C25 2137   6.456   4.153   8.192 -0.0439 -0.0565 -0.5775
   29CHL1   H25 2138   6.345   4.151   8.197 -0.0745  2.5395  0.6596
   29CHL1   C26 2139   6.519   4.019   8.237 -0.2825 -0.3287  0.2722
   29CHL1  H26A 2140   6.624   4.004   8.201 -1.0548 -0.6946 -1.9198
   29CHL1  H26B 2141   6.508   3.998   8.345  0.4657  1.5760  0.7334
   29CHL1  H26C 2142   6.458   3.947   8.178  0.2575 -0.5886  0.0127
   29CHL1   C27 2143   6.516   4.277   8.274  0.1208 -0.0343  0.2620
   29CHL1  H27A 2144   6.625   4.257   8.277  0.6373  2.3561 -1.2468
   29CHL1  H27B 2145   6.484   4.370   8.223  0.7993  0.3795  0.5827
   29CHL1  H27C 2146   6.471   4.278   8.375 -0.7518  0.6311 -0.1269
   30CHL1    C3 2147   4.259   3.600   7.194  0.0491  0.4477 -0.1612
   30CHL1    H3 2148   4.167   3.545   7.224  1.2731  0.5151  4.1642
   30CHL1    O3 2149   4.301   3.577   7.060 -0.0969 -0.1345 -0.1290
   30CHL1   H3' 2150   4.329   3.664   7.032 -2.1180  0.5537 -0.0770
   30CHL1    C4 2151   4.242   3.757   7.220  0.4590 -0.7904 -0.5543
   30CHL1   H4A 2152   4.343   3.797   7.197  0.7644 -0.2879  1.5321
   30CHL1   H4B 2153   4.167   3.805   7.154  1.1999 -0.1000 -0.9055
   30CHL1    C5 2154   4.217   3.787   7.371 -0.3007 -0.2315  0.2375
   30CHL1    C6 2155   4.118   3.872   7.408 -0.5702  0.2967 -0.2564
   30CHL1    H6 2156   4.075   3.934   7.328 -0.7775  0.1061 -0.2940
   30CHL1    C7 2157   4.080   3.912   7.549  0.4767 -0.1063  0.9153
   30CHL1   H7A 2158   4.062   4.019   7.571 -1.5957 -0.3076  0.2725
   30CHL1   H7B 2159   3.990   3.860   7.587 -0.3202  1.9854  1.9580
   30CHL1    C8 2160   4.197   3.862   7.645  0.1593  0.1603 -0.3026
   30CHL1    H8 2161   4.284   3.930   7.633  0.6053 -0.3818 -0.1853
   30CHL1   C14 2162   4.150   3.874   7.785  0.1454  0.3411  0.1522
   30CHL1   H14 2163   4.065   3.802   7.779 -0.6790  1.3027  0.1282
   30CHL1   C15 2164   4.087   4.008   7.841 -0.3926 -0.2810 -0.5460
   30CHL1  H15A 2165   4.160   4.087   7.815  0.8860 -0.9866  0.8460
   30CHL1  H15B 2166   3.990   4.030   7.790 -0.5913  1.0592  0.3738
   30CHL1   C16 2167   4.077   3.986   7.991 -0.0244 -0.4339  0.4602
   30CHL1  H16A 2168   4.112   4.085   8.026  0.6888 -0.5059 -0.0566
   30CHL1  H16B 2169   3.977   3.961   8.032 -0.4203 -0.0740 -0.2799
   30CHL1   C17 2170   4.173   3.861   8.013 -0.3829  1.1054  0.2420
   30CHL1   H17 2171   4.096   3.781   8.015  0.6789  0.0850  1.7991
   30CHL1   C13 2172   4.247   3.823   7.885  0.1451 -0.3011 -0.3489
   30CHL1   C18 2173   4.376   3.902   7.878  0.7477  0.0882  0.1935
   30CHL1  H18A 2174   4.452   3.859   7.947  0.9688 -0.3458 -0.3185
   30CHL1  H18B 2175   4.429   3.901   7.781 -2.4066 -0.2490 -1.5885
   30CHL1  H18C 2176   4.361   4.010   7.898  0.3173  0.0660 -0.0072
   30CHL1   C12 2177   4.276   3.670   7.870 -0.0022  0.7671  0.6005
   30CHL1  H12A 2178   4.353   3.645   7.946 -0.1138 -1.4275  0.0104
   30CHL1  H12B 2179   4.182   3.618   7.900 -0.8394  0.0131 -3.1131
   30CHL1   C11 2180   4.322   3.642   7.727  0.0472 -0.1860  0.1900
   30CHL1  H11A 2181   4.422   3.688   7.717 -0.6991  1.6933  1.1650
   30CHL1  H11B 2182   4.323   3.535   7.695 -0.4347  0.8361 -3.4446
   30CHL1    C9 2183   4.246   3.712   7.618 -0.5654 -0.2161 -0.1131
   30CHL1    H9 2184   4.148   3.660   7.614 -0.7856  0.3057 -1.7102
   30CHL1   C10 2185   4.310   3.703   7.475  0.4464  0.0519  0.2074
   30CHL1   C19 2186   4.451   3.767   7.472  0.7160 -0.3693  0.0154
   30CHL1  H19A 2187   4.464   3.867   7.517  0.9839 -0.2990 -0.2198
   30CHL1  H19B 2188   4.535   3.705   7.510 -0.3285 -0.5405  2.1398
   30CHL1  H19C 2189   4.484   3.790   7.369  1.6093 -0.6656  0.2310
   30CHL1    C1 2190   4.322   3.554   7.426 -0.8301  0.2473 -0.1518
   30CHL1   H1A 2191   4.400   3.497   7.482 -2.2644 -3.2606 -1.5840
   30CHL1   H1B 2192   4.225   3.502   7.440 -1.8193  1.8376 -0.9634
   30CHL1    C2 2193   4.368   3.542   7.281 -0.4939  0.0005 -0.4919
   30CHL1   H2A 2194   4.377   3.435   7.254 -0.8701 -0.6236  1.7920
   30CHL1   H2B 2195   4.468   3.590   7.271 -1.1288  1.6239  0.6461
   30CHL1   C20 2196   4.240   3.858   8.151  0.1221 -0.8881  0.6656
   30CHL1   H20 2197   4.329   3.791   8.146  0.9419  0.2843 -0.8643
   30CHL1   C21 2198   4.142   3.802   8.259  0.4698 -0.2214 -0.2738
   30CHL1  H21A 2199   4.089   3.888   8.307  2.2161  1.5286 -1.3956
   30CHL1  H21B 2200   4.198   3.750   8.340  1.0225  0.8777  0.0712
   30CHL1  H21C 2201   4.073   3.728   8.212 -0.4443  1.8034 -2.2361
   30CHL1   C22 2202   4.300   3.994   8.196 -0.2112 -0.0744 -0.1752
   30CHL1  H22A 2203   4.338   4.032   8.099 -1.4118 -0.8168 -0.9379
   30CHL1  H22B 2204   4.214   4.052   8.235  0.0612 -1.4974  2.7437
   30CHL1   C23 2205   4.397   3.979   8.300  0.4010  0.0685  0.1682
   30CHL1  H23A 2206   4.344   3.954   8.394 -0.7806 -1.1384 -0.7828
   30CHL1  H23B 2207   4.468   3.896   8.278  0.1658 -0.1407  0.1859
   30CHL1   C24 2208   4.461   4.119   8.318 -0.6098 -0.1451 -0.0341
   30CHL1  H24A 2209   4.503   4.154   8.221 -2.4701 -0.5799 -1.0186
   30CHL1  H24B 2210   4.380   4.187   8.352 -1.3852 -2.3343  2.6233
   30CHL1   C25 2211   4.571   4.111   8.420 -0.3937 -0.0580  0.7085
   30CHL1   H25 2212   4.532   4.043   8.500  1.7293 -1.6051  0.4852
   30CHL1   C26 2213   4.705   4.049   8.366 -0.0692  0.3889  0.5987
   30CHL1  H26A 2214   4.693   3.946   8.327 -2.5752  1.3584 -1.3239
   30CHL1  H26B 2215   4.719   4.117   8.280 -0.5356 -1.6231 -1.1036
   30CHL1  H26C 2216   4.783   4.062   8.444 -1.8582  1.3653  2.2709
   30CHL1   C27 2217   4.586   4.250   8.483  0.0814  0.6970  0.0758
   30CHL1  H27A 2218   4.499   4.274   8.547 -1.0252 -1.8877 -0.3747
   30CHL1  H27B 2219   4.673   4.241   8.552  1.3102 -0.0534 -1.5112
   30CHL1  H27C 2220   4.607   4.326   8.405 -2.0937  2.4475  1.1363
   31CHL1    C3 2221   3.768   5.138   6.632 -0.2763  0.4922  0.2336
   31CHL1    H3 2222   3.812   5.239   6.647 -0.1882  0.2712  1.5099
   31CHL1    O3 2223   3.732   5.103   6.497 -0.3543  0.2744 -0.1260
   31CHL1   H3' 2224   3.731   5.008   6.502 -1.8286  0.3785  2.1626
   31CHL1    C4 2225   3.865   5.038   6.698 -0.0155 -0.7467  0.3355
   31CHL1   H4A 2226   3.823   4.936   6.684 -1.5767 -0.1920  0.8361
   31CHL1   H4B 2227   3.954   5.046   6.632 -0.6213  0.4265 -0.3519
   31CHL1    C5 2228   3.894   5.077   6.841  0.8416  0.3153 -0.7398
   31CHL1    C6 2229   4.020   5.098   6.893  0.6237 -0.1284  0.0619
   31CHL1    H6 2230   4.105   5.093   6.824  1.3445  1.4475  0.7992
   31CHL1    C7 2231   4.060   5.132   7.033  0.7106  0.5135  0.4021
   31CHL1   H7A 2232   4.148   5.074   7.068  1.4291  1.6186  0.4502
   31CHL1   H7B 2233   4.102   5.234   7.026  1.9406  0.0357  0.5500
   31CHL1    C8 2234   3.943   5.119   7.128  0.2682 -0.2011 -0.2016
   31CHL1    H8 2235   3.929   5.014   7.160 -3.9903  0.0955 -0.7283
   31CHL1   C14 2236   3.971   5.208   7.252  0.5539 -0.0415  0.1196
   31CHL1   H14 2237   3.977   5.314   7.220 -1.0663 -0.3104 -1.1679
   31CHL1   C15 2238   4.112   5.194   7.324  0.4868  0.0978 -0.1163
   31CHL1  H15A 2239   4.133   5.087   7.345 -1.8060 -0.7742 -1.9739
   31CHL1  H15B 2240   4.192   5.251   7.272  0.9334 -1.8638 -1.6552
   31CHL1   C16 2241   4.085   5.266   7.453  0.1556 -0.2473  0.0236
   31CHL1  H16A 2242   4.117   5.204   7.540 -0.3852 -1.8004 -0.8689
   31CHL1  H16B 2243   4.146   5.356   7.474 -0.9846  1.1435 -2.4755
   31CHL1   C17 2244   3.935   5.295   7.475  0.0420  0.2851 -0.1521
   31CHL1   H17 2245   3.925   5.403   7.451 -0.1745 -0.1012 -1.8647
   31CHL1   C13 2246   3.865   5.211   7.363  0.2926 -0.1897  0.2180
   31CHL1   C18 2247   3.838   5.078   7.424  0.7875 -0.3668  0.2527
   31CHL1  H18A 2248   3.775   5.085   7.516  0.7066  2.2792  0.0153
   31CHL1  H18B 2249   3.779   5.015   7.355 -0.1768 -1.7636  2.2772
   31CHL1  H18C 2250   3.925   5.010   7.438  0.1733 -0.9956  1.0881
   31CHL1   C12 2251   3.735   5.261   7.298  0.2949  0.3414  0.3679
   31CHL1  H12A 2252   3.645   5.257   7.363 -0.0086 -0.6257 -0.1062
   31CHL1  H12B 2253   3.756   5.364   7.262  1.5735 -0.6297 -1.7642
   31CHL1   C11 2254   3.696   5.183   7.167 -0.4522 -0.0654  0.3940
   31CHL1  H11A 2255   3.660   5.085   7.206 -1.2333 -0.0584 -0.2891
   31CHL1  H11B 2256   3.610   5.235   7.120  1.6754  0.4325 -3.0608
   31CHL1    C9 2257   3.811   5.170   7.067 -0.2610  0.5183 -0.0557
   31CHL1    H9 2258   3.841   5.273   7.038  2.8271  0.1421  1.6014
   31CHL1   C10 2259   3.772   5.096   6.936  0.3804  0.5544 -0.1559
   31CHL1   C19 2260   3.717   4.954   6.976 -0.2736  0.0834 -0.6019
   31CHL1  H19A 2261   3.732   4.898   6.881 -2.3170 -2.6800  0.6383
   31CHL1  H19B 2262   3.770   4.896   7.054 -1.2576 -1.8179 -1.3175
   31CHL1  H19C 2263   3.608   4.952   7.000 -0.4212  0.8857 -1.1769
   31CHL1    C1 2264   3.669   5.175   6.860  0.2181  0.6774  0.3410
   31CHL1   H1A 2265   3.576   5.157   6.918  0.4570 -1.3883  0.1280
   31CHL1   H1B 2266   3.697   5.282   6.852 -0.9877  0.9628 -0.1799
   31CHL1    C2 2267   3.634   5.136   6.716  0.0849 -0.0791  0.2810
   31CHL1   H2A 2268   3.558   5.208   6.681 -0.5280 -0.7189  0.2897
   31CHL1   H2B 2269   3.593   5.033   6.707 -2.6896  0.7237  3.0961
   31CHL1   C20 2270   3.894   5.299   7.625 -0.2201  0.4455 -0.3088
   31CHL1   H20 2271   3.912   5.197   7.666 -1.6521  1.3299  2.6816
   31CHL1   C21 2272   3.748   5.343   7.628 -0.6520 -0.6983 -1.1611
   31CHL1  H21A 2273   3.740   5.446   7.588 -1.1052 -0.0852  0.4514
   31CHL1  H21B 2274   3.704   5.346   7.730 -2.0212 -4.4082 -1.5621
   31CHL1  H21C 2275   3.689   5.269   7.570 -2.7389 -1.5060  1.8326
   31CHL1   C22 2276   3.975   5.403   7.701  0.1468  0.8515 -0.1839
   31CHL1  H22A 2277   4.077   5.358   7.694 -0.5053 -0.8630  0.9972
   31CHL1  H22B 2278   3.964   5.502   7.652  2.0140  1.5948  0.8166
   31CHL1   C23 2279   3.945   5.422   7.852  0.0589 -0.1466  0.1242
   31CHL1  H23A 2280   3.848   5.475   7.862  0.2801  0.2748  0.0227
   31CHL1  H23B 2281   3.935   5.325   7.905  0.9315  0.4978  1.4936
   31CHL1   C24 2282   4.052   5.506   7.924 -0.1226  0.1715 -0.0737
   31CHL1  H24A 2283   4.097   5.584   7.860  0.7923 -1.1370 -1.0550
   31CHL1  H24B 2284   4.009   5.563   8.009 -1.6836 -1.4200  0.2334
   31CHL1   C25 2285   4.158   5.407   7.975  0.7010 -0.4514 -0.5213
   31CHL1   H25 2286   4.113   5.305   7.965  0.6227 -0.5961  1.1406
   31CHL1   C26 2287   4.291   5.404   7.897 -0.3223  0.1579  0.0759
   31CHL1  H26A 2288   4.263   5.397   7.789  0.5415 -0.6700 -0.1018
   31CHL1  H26B 2289   4.357   5.487   7.926 -0.6258  0.5633 -0.3883
   31CHL1  H26C 2290   4.356   5.315   7.912 -1.3816 -0.4344  1.2277
   31CHL1   C27 2291   4.190   5.430   8.126 -0.4973 -0.9604  0.3870
   31CHL1  H27A 2292   4.088   5.438   8.169  0.0958  1.0968  1.4485
   31CHL1  H27B 2293   4.245   5.526   8.130 -2.2510  0.0339  1.1502
   31CHL1  H27C 2294   4.250   5.350   8.173  1.5626 -0.8345 -1.9348
   32CHL1    C3 2295   4.674   3.389   7.092 -0.2916  0.0262  1.2491
   32CHL1    H3 2296   4.646   3.482   7.145 -0.3983 -0.3502  1.8572
   32CHL1    O3 2297   4.650   3.392   6.947  0.3943  0.4431 -1.2086
   32CHL1   H3' 2298   4.678   3.304   6.920  0.9269  0.6821 -1.4448
   32CHL1    C4 2299   4.828   3.359   7.108  0.1740 -0.1827  1.2244
   32CHL1   H4A 2300   4.854   3.270   7.047  0.8920  1.1310 -0.4115
   32CHL1   H4B 2301   4.903   3.431   7.068 -1.7309  1.0777 -0.1680
   32CHL1    C5 2302   4.863   3.332   7.251 -0.1320 -0.7370 -0.4941
   32CHL1    C6 2303   4.956   3.406   7.317 -0.4157 -0.3056  0.5148
   32CHL1    H6 2304   5.016   3.485   7.270  0.4744 -0.8736  0.6788
   32CHL1    C7 2305   4.996   3.379   7.463  0.3862 -0.0988  0.4845
   32CHL1   H7A 2306   5.107   3.376   7.476  0.6483  1.5427 -1.2332
   32CHL1   H7B 2307   4.949   3.460   7.523  1.6020  1.1849 -0.2702
   32CHL1    C8 2308   4.943   3.241   7.514  0.0704  0.4616 -0.0804
   32CHL1    H8 2309   4.997   3.159   7.463 -0.8076  0.2442 -0.6718
   32CHL1   C14 2310   4.933   3.250   7.666  0.1807  0.9702  0.1036
   32CHL1   H14 2311   4.857   3.328   7.689 -0.7651  0.6406 -1.8155
   32CHL1   C15 2312   5.055   3.295   7.743  0.4588 -0.8054 -0.0683
   32CHL1  H15A 2313   5.151   3.284   7.688  0.3537 -3.5862  0.2494
   32CHL1  H15B 2314   5.056   3.402   7.773 -1.4878 -1.5558  2.9293
   32CHL1   C16 2315   5.052   3.229   7.883  0.1675  0.0303  0.0805
   32CHL1  H16A 2316   5.127   3.147   7.893 -0.8319 -0.8341  0.5754
   32CHL1  H16B 2317   5.056   3.293   7.974 -0.0742 -1.6836  1.3155
   32CHL1   C17 2318   4.914   3.157   7.888 -0.3847  0.1248  0.1665
   32CHL1   H17 2319   4.831   3.227   7.914 -1.5067 -1.1429  0.0809
   32CHL1   C13 2320   4.883   3.123   7.736 -0.4533  0.6175  0.0274
   32CHL1   C18 2321   4.965   3.002   7.692  0.1592 -0.0980  0.0403
   32CHL1  H18A 2322   4.958   2.984   7.582 -0.4818 -1.5530  0.3101
   32CHL1  H18B 2323   5.070   3.027   7.715 -0.4377  1.0537  1.5811
   32CHL1  H18C 2324   4.942   2.909   7.748 -0.7734 -0.7789 -1.4243
   32CHL1   C12 2325   4.737   3.110   7.696  0.3776 -0.0483 -0.0322
   32CHL1  H12A 2326   4.694   3.019   7.744  2.8705 -1.1459  0.2254
   32CHL1  H12B 2327   4.687   3.198   7.741 -0.1711  1.1419 -2.8734
   32CHL1   C11 2328   4.721   3.106   7.542 -0.5783 -0.6484  0.3231
   32CHL1  H11A 2329   4.763   3.008   7.512 -0.5839 -0.5021 -0.1706
   32CHL1  H11B 2330   4.612   3.104   7.524 -0.7222 -2.5276  1.3003
   32CHL1    C9 2331   4.796   3.223   7.467  0.0447  0.2988 -0.7759
   32CHL1    H9 2332   4.747   3.315   7.506 -0.5785 -0.6170  0.6585
   32CHL1   C10 2333   4.775   3.224   7.320  0.0906 -0.2137 -0.1047
   32CHL1   C19 2334   4.810   3.088   7.263 -0.1450  0.2960 -0.1708
   32CHL1  H19A 2335   4.829   3.087   7.154  1.4976 -0.5595  0.1096
   32CHL1  H19B 2336   4.906   3.057   7.310 -1.0675 -0.6755  1.1209
   32CHL1  H19C 2337   4.736   3.010   7.292  1.1515 -0.4439  1.2096
   32CHL1    C1 2338   4.617   3.255   7.287 -0.3008 -0.1030  0.2173
   32CHL1   H1A 2339   4.555   3.171   7.326 -1.9958  0.0158 -2.0725
   32CHL1   H1B 2340   4.586   3.348   7.340 -0.7720 -1.1990  1.8763
   32CHL1    C2 2341   4.591   3.275   7.138  0.3775 -0.0965 -0.0973
   32CHL1   H2A 2342   4.485   3.299   7.116  0.5306  1.9278  1.2513
   32CHL1   H2B 2343   4.613   3.177   7.089  2.2275  0.2972 -0.0810
   32CHL1   C20 2344   4.921   3.036   7.981 -0.7728 -0.2231 -0.2035
   32CHL1   H20 2345   5.002   2.973   7.940  0.1189  0.7398  0.0502
   32CHL1   C21 2346   4.785   2.965   7.989 -0.1088 -0.0369 -0.6859
   32CHL1  H21A 2347   4.769   2.885   8.064 -2.0030 -0.1529 -1.1938
   32CHL1  H21B 2348   4.781   2.908   7.894 -1.7563 -1.7748  0.3869
   32CHL1  H21C 2349   4.707   3.041   8.011 -0.2767  0.5932 -3.2447
   32CHL1   C22 2350   4.959   3.084   8.126 -0.0911 -0.5667 -0.2940
   32CHL1  H22A 2351   5.039   3.160   8.127  0.5935 -1.2774  0.5045
   32CHL1  H22B 2352   4.868   3.141   8.154  0.1916  0.9113 -2.3426
   32CHL1   C23 2353   4.995   2.976   8.229 -0.1838 -0.1844  0.2918
   32CHL1  H23A 2354   4.935   2.885   8.208  0.9317 -0.8276 -0.1768
   32CHL1  H23B 2355   5.102   2.956   8.208 -0.2056  0.1146 -0.1306
   32CHL1   C24 2356   4.980   3.034   8.376  0.3558  0.1951 -0.0467
   32CHL1  H24A 2357   5.036   2.964   8.442 -1.9899 -0.1122  1.6751
   32CHL1  H24B 2358   5.019   3.137   8.388 -3.2195  1.3413  2.3549
   32CHL1   C25 2359   4.838   3.059   8.426  0.1679 -0.0876 -0.8407
   32CHL1   H25 2360   4.780   3.146   8.390 -2.0267 -1.2659 -0.2815
   32CHL1   C26 2361   4.745   2.941   8.407  0.1118  0.6827 -0.0446
   32CHL1  H26A 2362   4.642   2.963   8.442 -0.7044 -1.5500 -0.9416
   32CHL1  H26B 2363   4.732   2.927   8.298 -3.0049  1.5134  0.1838
   32CHL1  H26C 2364   4.782   2.851   8.460  0.7823  0.8639 -0.2069
   32CHL1   C27 2365   4.849   3.086   8.583 -0.4578  0.0706 -0.0446
   32CHL1  H27A 2366   4.916   3.174   8.598 -1.6505  1.3013 -1.7259
   32CHL1  H27B 2367   4.755   3.083   8.641  0.6090  0.2525  1.7454
   32CHL1  H27C 2368   4.894   2.993   8.623 -1.5968 -1.1469 -1.5442
   33CHL1    C3 2369   5.932   2.806   6.802  0.2785  0.8972  0.8743
   33CHL1    H3 2370   6.034   2.820   6.845  1.3899  1.1559 -1.7189
   33CHL1    O3 2371   5.931   2.809   6.662  0.1365  0.4508  0.1041
   33CHL1   H3' 2372   5.899   2.720   6.645 -1.0616  0.6909  1.0664
   33CHL1    C4 2373   5.895   2.672   6.854 -0.3262  0.2939  0.2334
   33CHL1   H4A 2374   5.794   2.649   6.814  0.7401  1.4037 -3.2033
   33CHL1   H4B 2375   5.964   2.599   6.808  2.5617  1.5828  2.3753
   33CHL1    C5 2376   5.887   2.666   7.000  0.3762 -0.8258 -0.2554
   33CHL1    C6 2377   5.964   2.574   7.058 -0.0854 -0.4382 -0.0746
   33CHL1    H6 2378   6.022   2.504   6.996  2.2339  1.7423 -0.4394
   33CHL1    C7 2379   5.957   2.563   7.206 -0.1082 -0.6831 -0.5419
   33CHL1   H7A 2380   5.937   2.457   7.230 -2.2283 -0.5297 -1.5373
   33CHL1   H7B 2381   6.054   2.585   7.255  0.3819  3.5423 -3.0864
   33CHL1    C8 2382   5.847   2.644   7.283 -0.2038 -0.2579 -0.3789
   33CHL1    H8 2383   5.749   2.596   7.265 -0.2746  0.6192 -2.3400
   33CHL1   C14 2384   5.894   2.667   7.423 -0.1711  0.2608 -0.0967
   33CHL1   H14 2385   5.989   2.722   7.407  1.2982 -1.9630  0.7286
   33CHL1   C15 2386   5.933   2.539   7.495  0.7652  0.2612 -0.5340
   33CHL1  H15A 2387   5.854   2.462   7.486  1.6428 -0.6317 -0.7562
   33CHL1  H15B 2388   6.022   2.485   7.454 -1.1861 -1.9136 -2.0553
   33CHL1   C16 2389   5.940   2.595   7.641 -0.0022  0.3440 -0.1536
   33CHL1  H16A 2390   5.873   2.534   7.705  0.0146  1.1218  0.6143
   33CHL1  H16B 2391   6.045   2.583   7.677 -0.8667  2.2367  3.1243
   33CHL1   C17 2392   5.897   2.742   7.644 -0.0739 -0.3567  0.4306
   33CHL1   H17 2393   5.985   2.804   7.616 -1.1669  0.2578 -1.7457
   33CHL1   C13 2394   5.813   2.757   7.513 -0.0054  0.2733  0.2071
   33CHL1   C18 2395   5.672   2.696   7.531  0.2207 -0.0051 -0.0495
   33CHL1  H18A 2396   5.614   2.758   7.603  1.2581  2.0020 -0.9187
   33CHL1  H18B 2397   5.622   2.701   7.432  0.4636 -1.5883 -0.2669
   33CHL1  H18C 2398   5.672   2.595   7.577  0.6200 -0.0474 -0.1395
   33CHL1   C12 2399   5.815   2.897   7.441  0.7076 -0.2788  0.8306
   33CHL1  H12A 2400   5.768   2.967   7.514  0.3816 -0.6917  1.0174
   33CHL1  H12B 2401   5.919   2.933   7.422  0.2488  0.2359 -0.8609
   33CHL1   C11 2402   5.747   2.882   7.308  0.5358  0.4756 -0.2013
   33CHL1  H11A 2403   5.639   2.862   7.323  0.6212 -0.6597 -1.0556
   33CHL1  H11B 2404   5.745   2.984   7.263  1.2929 -0.1248 -1.6240
   33CHL1    C9 2405   5.832   2.786   7.222  0.4584  0.1158  0.4557
   33CHL1    H9 2406   5.935   2.829   7.221  0.2000  0.7607  1.5199
   33CHL1   C10 2407   5.801   2.780   7.074 -0.8134  0.8315 -0.3319
   33CHL1   C19 2408   5.656   2.755   7.052 -0.0194  0.4100 -0.4045
   33CHL1  H19A 2409   5.591   2.834   7.097  1.1292  1.8844 -1.2926
   33CHL1  H19B 2410   5.636   2.758   6.943 -1.8042 -0.0682 -0.1035
   33CHL1  H19C 2411   5.636   2.651   7.085  2.8845 -0.5069 -1.3716
   33CHL1    C1 2412   5.829   2.920   7.001 -0.6815  0.4323 -0.2431
   33CHL1   H1A 2413   5.744   2.990   7.017 -0.1564  1.0984 -0.3874
   33CHL1   H1B 2414   5.919   2.966   7.047 -0.3332 -1.0694  0.6106
   33CHL1    C2 2415   5.839   2.918   6.849 -0.3270 -0.7351 -0.4072
   33CHL1   H2A 2416   5.870   3.017   6.809 -0.3677 -0.3812  0.4255
   33CHL1   H2B 2417   5.740   2.902   6.801 -0.9728 -0.3986  0.8214
   33CHL1   C20 2418   5.832   2.783   7.777  0.9084 -0.1111  0.2156
   33CHL1   H20 2419   5.732   2.736   7.791  0.1582  1.1578 -0.8533
   33CHL1   C21 2420   5.808   2.939   7.782  0.6922 -0.2590 -0.0352
   33CHL1  H21A 2421   5.722   2.966   7.717 -0.1404 -0.0799  1.1287
   33CHL1  H21B 2422   5.899   2.999   7.759  0.7784  0.3527  1.8375
   33CHL1  H21C 2423   5.775   2.961   7.885 -1.6401  2.6583 -1.3234
   33CHL1   C22 2424   5.913   2.739   7.899 -0.7912 -0.5199 -0.7637
   33CHL1  H22A 2425   5.950   2.634   7.892  1.9917  0.1485  2.4866
   33CHL1  H22B 2426   6.000   2.806   7.916 -0.1625 -1.0126 -1.9885
   33CHL1   C23 2427   5.839   2.752   8.032  0.6225 -0.2219 -0.0745
   33CHL1  H23A 2428   5.787   2.849   8.042 -0.7769 -0.7001 -2.4825
   33CHL1  H23B 2429   5.767   2.667   8.032 -0.5625  0.7479  1.1400
   33CHL1   C24 2430   5.932   2.741   8.155 -0.1229 -0.7899  0.6857
   33CHL1  H24A 2431   5.966   2.635   8.150 -2.6029 -1.5932  0.1532
   33CHL1  H24B 2432   6.025   2.799   8.141  0.4292 -2.0206 -0.9711
   33CHL1   C25 2433   5.858   2.763   8.292  0.5383 -0.5642  0.3758
   33CHL1   H25 2434   5.760   2.712   8.286  0.0336  0.2917  1.2123
   33CHL1   C26 2435   5.928   2.710   8.421  0.5725  0.4765  0.4120
   33CHL1  H26A 2436   6.011   2.776   8.454 -1.0342  2.2586  0.9940
   33CHL1  H26B 2437   5.853   2.680   8.497 -0.3551 -3.3504 -1.9218
   33CHL1  H26C 2438   5.974   2.611   8.401  0.3383  0.0801  1.8046
   33CHL1   C27 2439   5.820   2.913   8.312  0.2249 -0.1694  0.0649
   33CHL1  H27A 2440   5.904   2.978   8.343  0.5618 -1.3930  1.7547
   33CHL1  H27B 2441   5.785   2.951   8.213 -0.9823 -0.0705  0.5235
   33CHL1  H27C 2442   5.741   2.920   8.390 -1.6117  4.2759 -1.9775
   34CHL1    C3 2443   0.009   1.683   6.860  0.0149  0.7052  0.4268
   34CHL1    H3 2444  -0.070   1.737   6.916 -1.0093  0.9812 -1.2576
   34CHL1    O3 2445  -0.018   1.677   6.718  0.4201 -0.0791 -0.2034
   34CHL1   H3' 2446  -0.098   1.625   6.711  1.1966 -1.0989 -1.8534
   34CHL1    C4 2447   0.139   1.760   6.874 -0.1626  0.0127  0.8575
   34CHL1   H4A 2448   0.223   1.699   6.832 -1.3695 -2.0567  1.3540
   34CHL1   H4B 2449   0.131   1.851   6.811 -2.7379 -0.7563  0.0004
   34CHL1    C5 2450   0.176   1.779   7.020 -0.0464 -0.0229  0.2498
   34CHL1    C6 2451   0.195   1.901   7.073 -0.0195 -0.0785  0.5499
   34CHL1    H6 2452   0.186   1.988   7.007  0.6817 -1.5088 -1.4817
   34CHL1    C7 2453   0.237   1.933   7.214 -0.1195  0.1012 -0.0670
   34CHL1   H7A 2454   0.328   1.996   7.207  1.0971 -1.4834  1.1503
   34CHL1   H7B 2455   0.155   1.982   7.271 -0.7087 -0.7270 -0.1932
   34CHL1    C8 2456   0.267   1.798   7.297 -0.0004  0.0378  0.4866
   34CHL1    H8 2457   0.374   1.776   7.273 -0.4065 -0.2052 -1.1592
   34CHL1   C14 2458   0.264   1.830   7.443 -0.1004 -0.3568  0.0138
   34CHL1   H14 2459   0.156   1.847   7.462  0.2835  2.1285  0.1617
   34CHL1   C15 2460   0.344   1.951   7.502 -0.2538  0.5408  0.6117
   34CHL1  H15A 2461   0.442   1.958   7.451  0.2327  2.0157  1.7175
   34CHL1  H15B 2462   0.286   2.041   7.474 -2.3579 -1.7719 -3.0357
   34CHL1   C16 2463   0.355   1.922   7.650  0.1448 -0.6648  0.2917
   34CHL1  H16A 2464   0.459   1.924   7.690  0.0209  0.0700  0.5765
   34CHL1  H16B 2465   0.292   1.996   7.703  2.5216  0.1213  2.0939
   34CHL1   C17 2466   0.295   1.775   7.667  0.0429  0.3215 -0.2801
   34CHL1   H17 2467   0.188   1.797   7.685 -0.4888  0.0277 -2.7846
   34CHL1   C13 2468   0.297   1.711   7.529 -0.9643 -0.8623  0.0947
   34CHL1   C18 2469   0.441   1.667   7.506  0.5438  0.7786  0.7513
   34CHL1  H18A 2470   0.464   1.653   7.398  1.0307  2.8523  0.5535
   34CHL1  H18B 2471   0.517   1.726   7.563 -0.8877  1.3920  2.0629
   34CHL1  H18C 2472   0.451   1.562   7.539  1.3349  0.1187 -1.4782
   34CHL1   C12 2473   0.196   1.603   7.503 -0.0096 -0.0089 -0.1353
   34CHL1  H12A 2474   0.217   1.506   7.554  0.7655  0.9158  1.3458
   34CHL1  H12B 2475   0.099   1.640   7.542 -0.3722 -0.2853 -0.7713
   34CHL1   C11 2476   0.195   1.566   7.353  0.3160  0.3595 -0.0162
   34CHL1  H11A 2477   0.289   1.509   7.343  0.0273 -0.2555  0.6827
   34CHL1  H11B 2478   0.118   1.488   7.335  1.1749 -0.3638 -0.5624
   34CHL1    C9 2479   0.172   1.683   7.253  0.1361 -0.0582  0.6695
   34CHL1    H9 2480   0.075   1.730   7.279 -1.0305 -1.5279 -0.9075
   34CHL1   C10 2481   0.176   1.645   7.101 -0.7691 -0.3104 -0.1162
   34CHL1   C19 2482   0.308   1.564   7.073 -0.2318 -0.1558  0.1784
   34CHL1  H19A 2483   0.396   1.627   7.099  0.3161 -0.4403 -0.9517
   34CHL1  H19B 2484   0.309   1.465   7.122  0.5832  0.3785  1.2861
   34CHL1  H19C 2485   0.313   1.542   6.964  0.8144  2.1468 -0.2718
   34CHL1    C1 2486   0.049   1.560   7.071 -0.1183 -0.3432  0.8994
   34CHL1   H1A 2487   0.056   1.459   7.118 -0.0970 -0.7694 -0.0179
   34CHL1   H1B 2488  -0.038   1.613   7.115  0.3127  1.0749  0.0566
   34CHL1    C2 2489   0.021   1.541   6.920 -0.9024  0.9218 -0.1854
   34CHL1   H2A 2490  -0.077   1.492   6.904  0.6448 -2.0852 -0.8532
   34CHL1   H2B 2491   0.089   1.479   6.857  0.5572  1.0070  1.2935
   34CHL1   C20 2492   0.358   1.705   7.780  0.6741  0.5640 -0.1842
   34CHL1   H20 2493   0.459   1.667   7.753  0.3965  0.9921 -1.9313
   34CHL1   C21 2494   0.287   1.567   7.810  0.2984  0.9971  1.0318
   34CHL1  H21A 2495   0.300   1.493   7.729 -0.3649  2.2714 -0.2577
   34CHL1  H21B 2496   0.179   1.585   7.825  0.2329  0.8078  0.7753
   34CHL1  H21C 2497   0.321   1.520   7.905 -0.6422 -0.6621  0.5480
   34CHL1   C22 2498   0.375   1.792   7.902  0.3144 -0.0380  0.1802
   34CHL1  H22A 2499   0.455   1.869   7.888  0.9124 -0.5297  0.8503
   34CHL1  H22B 2500   0.276   1.842   7.914  0.3584  0.0644  0.1230
   34CHL1   C23 2501   0.419   1.718   8.033  0.4644 -0.5416 -0.2913
   34CHL1  H23A 2502   0.347   1.636   8.053  0.3196 -1.5339 -4.3867
   34CHL1  H23B 2503   0.524   1.683   8.021  0.2653 -0.8331 -1.2557
   34CHL1   C24 2504   0.402   1.816   8.153  0.5559  0.2257  0.1660
   34CHL1  H24A 2505   0.430   1.920   8.128 -2.6771  0.7824 -1.4263
   34CHL1  H24B 2506   0.292   1.812   8.168  0.6024 -1.5907  0.1046
   34CHL1   C25 2507   0.484   1.789   8.284  0.1608 -0.0590 -0.0307
   34CHL1   H25 2508   0.593   1.784   8.264  0.5784  1.6164  1.6768
   34CHL1   C26 2509   0.466   1.904   8.384  0.3404  0.4092  0.5295
   34CHL1  H26A 2510   0.357   1.922   8.392  0.2179  1.5902 -3.1613
   34CHL1  H26B 2511   0.513   1.870   8.480  0.6234 -2.7808 -0.6587
   34CHL1  H26C 2512   0.518   2.000   8.363  0.9646  0.0816  0.5567
   34CHL1   C27 2513   0.447   1.652   8.339  0.0769  0.1480  0.4370
   34CHL1  H27A 2514   0.348   1.676   8.383  1.3234  0.4968  3.1100
   34CHL1  H27B 2515   0.424   1.570   8.267 -0.9757  0.3856  0.4899
   34CHL1  H27C 2516   0.506   1.625   8.429  1.1221  0.6679 -0.0933
   35CHL1    C3 2517   3.397   3.243   7.348  0.9261 -0.8829  0.4252
   35CHL1    H3 2518   3.507   3.255   7.360  0.9392 -0.2461 -0.2736
   35CHL1    O3 2519   3.365   3.231   7.207  0.0086 -0.1944 -0.5353
   35CHL1   H3' 2520   3.430   3.175   7.165  0.4358 -0.3892  0.3684
   35CHL1    C4 2521   3.361   3.125   7.430 -0.5946  0.2655 -0.2934
   35CHL1   H4A 2522   3.252   3.108   7.420 -0.5628 -0.1212 -0.0104
   35CHL1   H4B 2523   3.414   3.040   7.380 -1.9322 -1.1925  0.7092
   35CHL1    C5 2524   3.402   3.134   7.573 -0.5793  0.1274 -0.3568
   35CHL1    C6 2525   3.485   3.044   7.632  0.2408 -0.2697  0.2009
   35CHL1    H6 2526   3.509   2.963   7.562 -0.1234 -0.5859  0.4437
   35CHL1    C7 2527   3.525   3.046   7.777  1.4257  0.0392  0.1997
   35CHL1   H7A 2528   3.490   2.949   7.815  1.5012 -0.4742 -1.0012
   35CHL1   H7B 2529   3.635   3.042   7.795  0.8828 -1.6648  3.4213
   35CHL1    C8 2530   3.443   3.155   7.860  0.3996 -0.3455  0.6095
   35CHL1    H8 2531   3.340   3.118   7.880 -0.7138  2.3052 -0.0299
   35CHL1   C14 2532   3.508   3.176   7.993 -0.4564 -0.3488 -1.6217
   35CHL1   H14 2533   3.602   3.226   7.960 -0.1831  1.0527  1.1443
   35CHL1   C15 2534   3.568   3.057   8.078  0.3323 -0.4225  0.6305
   35CHL1  H15A 2535   3.483   2.987   8.096  0.4171 -1.2070 -1.8646
   35CHL1  H15B 2536   3.659   3.024   8.023 -0.3829  0.9969 -1.4439
   35CHL1   C16 2537   3.610   3.126   8.214 -0.2595 -0.1383  0.2818
   35CHL1  H16A 2538   3.565   3.067   8.297  0.5961 -2.1509 -0.6555
   35CHL1  H16B 2539   3.720   3.130   8.225 -0.2812 -0.5429  0.6413
   35CHL1   C17 2540   3.552   3.276   8.212  0.0888 -0.1403 -0.1901
   35CHL1   H17 2541   3.641   3.334   8.181  0.0875  0.6379  1.2371
   35CHL1   C13 2542   3.456   3.283   8.091  0.4964  0.1917  0.1732
   35CHL1   C18 2543   3.314   3.243   8.139  0.1946 -0.1155 -0.0845
   35CHL1  H18A 2544   3.329   3.148   8.195  0.6401  1.9271  3.4381
   35CHL1  H18B 2545   3.269   3.310   8.215  0.1546 -0.3067  0.0607
   35CHL1  H18C 2546   3.243   3.231   8.054  0.2118 -1.9671  0.1591
   35CHL1   C12 2547   3.455   3.414   8.009  0.7680  0.3898 -0.7640
   35CHL1  H12A 2548   3.391   3.485   8.066  0.4042 -0.6100  0.0872
   35CHL1  H12B 2549   3.556   3.458   7.992  0.0718  0.9760 -3.5091
   35CHL1   C11 2550   3.387   3.398   7.872  0.2764 -0.3448  0.2679
   35CHL1  H11A 2551   3.277   3.384   7.883  0.1390  0.4686 -0.0365
   35CHL1  H11B 2552   3.393   3.498   7.824  1.0595 -0.8811 -0.7715
   35CHL1    C9 2553   3.434   3.281   7.778 -0.8546 -0.5664 -0.0848
   35CHL1    H9 2554   3.535   3.319   7.753 -0.8012  0.0742  1.0647
   35CHL1   C10 2555   3.355   3.255   7.641  0.4088  0.2243 -0.0512
   35CHL1   C19 2556   3.206   3.243   7.676  0.3027 -1.1608  0.0116
   35CHL1  H19A 2557   3.187   3.162   7.750 -0.6076  1.2358  2.4938
   35CHL1  H19B 2558   3.167   3.333   7.727  0.8376  0.3933 -2.2377
   35CHL1  H19C 2559   3.150   3.238   7.580  0.0414  1.0141  0.0269
   35CHL1    C1 2560   3.365   3.377   7.549  0.0261  0.5344 -0.1077
   35CHL1   H1A 2561   3.308   3.458   7.600  2.0321  1.9580 -0.0999
   35CHL1   H1B 2562   3.471   3.406   7.539 -0.0323  0.7067 -0.2140
   35CHL1    C2 2563   3.318   3.365   7.404  0.5081  0.5811  0.2103
   35CHL1   H2A 2564   3.344   3.459   7.351  1.8493 -0.1944 -0.5211
   35CHL1   H2B 2565   3.209   3.352   7.386  0.6668  0.6952 -0.8623
   35CHL1   C20 2566   3.517   3.335   8.347 -0.4343  0.8498  0.0350
   35CHL1   H20 2567   3.411   3.306   8.364 -0.0447  0.2856  1.4944
   35CHL1   C21 2568   3.527   3.488   8.331 -0.3821  0.7431  0.1988
   35CHL1  H21A 2569   3.539   3.548   8.423 -0.0764  0.4803  0.3306
   35CHL1  H21B 2570   3.435   3.520   8.278 -0.6051 -0.4875 -0.1910
   35CHL1  H21C 2571   3.612   3.510   8.262  1.1011 -2.6885  0.7811
   35CHL1   C22 2572   3.588   3.276   8.468  0.0341 -0.1430 -0.0929
   35CHL1  H22A 2573   3.573   3.167   8.481 -0.4614  0.1879  2.3351
   35CHL1  H22B 2574   3.695   3.278   8.437  0.3794  0.6150  1.1116
   35CHL1   C23 2575   3.564   3.346   8.603 -0.2222  0.2334  0.5342
   35CHL1  H23A 2576   3.593   3.452   8.588 -1.3314  0.3268 -1.1381
   35CHL1  H23B 2577   3.456   3.345   8.627 -0.4086  0.7340 -0.2466
   35CHL1   C24 2578   3.644   3.270   8.707 -0.5802 -0.5163  0.6005
   35CHL1  H24A 2579   3.609   3.166   8.727  1.9912 -1.3416  1.0664
   35CHL1  H24B 2580   3.753   3.264   8.682 -0.8708  0.1418 -0.8378
   35CHL1   C25 2581   3.647   3.347   8.849  0.9505  0.9263  0.9766
   35CHL1   H25 2582   3.674   3.451   8.823 -2.1749  0.9947 -2.5503
   35CHL1   C26 2583   3.500   3.347   8.903 -0.6334 -0.2906 -0.0083
   35CHL1  H26A 2584   3.431   3.410   8.843 -0.9319 -0.4072  0.2117
   35CHL1  H26B 2585   3.455   3.246   8.899  1.4958 -1.2379 -0.6141
   35CHL1  H26C 2586   3.510   3.393   9.004 -0.3352 -1.6127  0.5844
   35CHL1   C27 2587   3.747   3.283   8.939  0.3971 -0.1131 -0.6868
   35CHL1  H27A 2588   3.731   3.336   9.036  1.8431  1.1717 -1.1220
   35CHL1  H27B 2589   3.849   3.295   8.897  1.0089 -1.7477  0.3052
   35CHL1  H27C 2590   3.726   3.175   8.951  1.8448 -0.3660 -0.4109
   36CHL1    C3 2591   4.163   2.406   7.133 -0.1903 -0.2870 -0.4390
   36CHL1    H3 2592   4.271   2.386   7.147 -0.1856  0.4455  0.6108
   36CHL1    O3 2593   4.143   2.437   6.996 -0.1691  0.1268  0.4151
   36CHL1   H3' 2594   4.076   2.506   6.989 -0.1368  0.0997 -0.1788
   36CHL1    C4 2595   4.073   2.292   7.180  0.9005  0.2777 -0.9553
   36CHL1   H4A 2596   3.968   2.321   7.163  0.5487  0.6876  1.7236
   36CHL1   H4B 2597   4.091   2.200   7.120 -2.2652  1.2927 -3.5536
   36CHL1    C5 2598   4.094   2.269   7.327  0.5812 -0.4832 -0.2328
   36CHL1    C6 2599   4.126   2.145   7.374 -0.3779  0.6694  0.2877
   36CHL1    H6 2600   4.125   2.060   7.304  0.8783  1.7782 -1.1162
   36CHL1    C7 2601   4.137   2.115   7.520  0.7238 -0.2730 -0.6320
   36CHL1   H7A 2602   4.070   2.028   7.538 -0.4040  0.5926 -0.6568
   36CHL1   H7B 2603   4.237   2.067   7.534  0.4778 -0.7870 -0.6289
   36CHL1    C8 2604   4.100   2.229   7.617 -0.2201 -0.5694 -0.2234
   36CHL1    H8 2605   3.990   2.231   7.630 -0.1337 -2.5928  1.0386
   36CHL1   C14 2606   4.166   2.202   7.752 -0.4822 -0.9347 -0.0307
   36CHL1   H14 2607   4.272   2.214   7.721 -0.9677  1.4343 -0.8829
   36CHL1   C15 2608   4.138   2.063   7.810  0.3799  0.2463 -0.3622
   36CHL1  H15A 2609   4.036   2.021   7.802 -1.6406  4.2858  2.0844
   36CHL1  H15B 2610   4.213   1.992   7.770  1.2014  0.1872  1.2231
   36CHL1   C16 2611   4.189   2.077   7.952  0.0131  0.1356  0.2264
   36CHL1  H16A 2612   4.117   2.026   8.020  2.3781 -0.7212  2.1944
   36CHL1  H16B 2613   4.294   2.042   7.959 -0.1741 -0.4086  0.3687
   36CHL1   C17 2614   4.199   2.228   7.984  0.2043  0.6912  0.5602
   36CHL1   H17 2615   4.304   2.259   7.968  0.3926 -0.6095 -0.8686
   36CHL1   C13 2616   4.131   2.297   7.859  0.7317  0.2091  0.4522
   36CHL1   C18 2617   3.977   2.289   7.893  1.2149 -0.4246  0.4650
   36CHL1  H18A 2618   3.932   2.190   7.916 -0.8847  0.6658  1.1856
   36CHL1  H18B 2619   3.968   2.361   7.977  0.0687 -0.9383  0.7971
   36CHL1  H18C 2620   3.920   2.317   7.802 -0.7349  2.7852  2.5739
   36CHL1   C12 2621   4.187   2.439   7.814 -0.0561 -0.0353 -0.3046
   36CHL1  H12A 2622   4.157   2.507   7.897 -0.1859  0.1005 -0.4640
   36CHL1  H12B 2623   4.298   2.442   7.807  0.1226 -0.6880  1.7191
   36CHL1   C11 2624   4.126   2.479   7.675  0.1706  0.5297  0.2737
   36CHL1  H11A 2625   4.021   2.497   7.706  0.0530 -0.5481  0.4995
   36CHL1  H11B 2626   4.178   2.569   7.635  1.3414 -0.2104  0.1075
   36CHL1    C9 2627   4.148   2.367   7.569 -0.5882  0.8516  0.3943
   36CHL1    H9 2628   4.258   2.364   7.555 -0.3913 -0.3124  2.1268
   36CHL1   C10 2629   4.088   2.394   7.424  0.0855 -0.1752 -0.4224
   36CHL1   C19 2630   3.938   2.434   7.440 -0.1842 -0.2431  0.1348
   36CHL1  H19A 2631   3.897   2.353   7.505  1.9116 -0.1304  1.6436
   36CHL1  H19B 2632   3.940   2.535   7.487 -0.4255 -0.5865  0.8997
   36CHL1  H19C 2633   3.892   2.443   7.339  0.2141  1.6743  0.1124
   36CHL1    C1 2634   4.163   2.519   7.351 -0.1258  0.2660 -0.0474
   36CHL1   H1A 2635   4.136   2.617   7.397  0.6450  0.9269 -0.9773
   36CHL1   H1B 2636   4.270   2.495   7.365  0.1247  0.7600 -1.1109
   36CHL1    C2 2637   4.126   2.535   7.205  0.5423 -0.7405 -0.6776
   36CHL1   H2A 2638   4.190   2.615   7.160  1.0764 -0.2904  0.8547
   36CHL1   H2B 2639   4.016   2.550   7.208  0.7312  0.5455  0.0098
   36CHL1   C20 2640   4.166   2.265   8.127 -0.3741  0.2265  0.6112
   36CHL1   H20 2641   4.060   2.241   8.150 -0.3709 -0.3452  0.0386
   36CHL1   C21 2642   4.200   2.417   8.146  0.0833 -0.2575 -0.1266
   36CHL1  H21A 2643   4.204   2.446   8.253  3.2425 -2.0088  0.2884
   36CHL1  H21B 2644   4.131   2.485   8.090  2.0855  0.3850 -1.8805
   36CHL1  H21C 2645   4.297   2.444   8.100 -0.4815 -0.3372 -1.3822
   36CHL1   C22 2646   4.253   2.179   8.223 -0.6203  0.4776  0.3411
   36CHL1  H22A 2647   4.202   2.081   8.217 -0.5148  0.4366  0.0695
   36CHL1  H22B 2648   4.360   2.177   8.193 -0.1255 -0.9089  2.1749
   36CHL1   C23 2649   4.254   2.218   8.371  0.3065 -0.7247  0.2684
   36CHL1  H23A 2650   4.331   2.293   8.397  0.9312 -1.0300 -0.6592
   36CHL1  H23B 2651   4.158   2.265   8.401 -0.6532 -1.8642 -0.9552
   36CHL1   C24 2652   4.290   2.105   8.466 -0.6477  1.0199  0.1064
   36CHL1  H24A 2653   4.224   2.016   8.455 -1.2201  1.5322 -0.6723
   36CHL1  H24B 2654   4.392   2.070   8.438 -1.6698 -2.4950  0.4441
   36CHL1   C25 2655   4.284   2.145   8.613 -0.8919 -0.1146  0.3841
   36CHL1   H25 2656   4.351   2.233   8.623  0.4638 -1.0253 -0.4956
   36CHL1   C26 2657   4.134   2.173   8.655  0.3576 -0.4624  0.2409
   36CHL1  H26A 2658   4.063   2.091   8.629  0.2152  0.0591 -1.0349
   36CHL1  H26B 2659   4.121   2.176   8.765  1.6377  0.2963  0.3819
   36CHL1  H26C 2660   4.113   2.268   8.602  0.6601 -0.2375  0.5221
   36CHL1   C27 2661   4.351   2.028   8.690  0.1332 -0.0243 -0.2588
   36CHL1  H27A 2662   4.452   2.004   8.652  0.4468 -1.1661  1.2303
   36CHL1  H27B 2663   4.371   2.044   8.799  0.4372  2.0951 -0.5932
   36CHL1  H27C 2664   4.298   1.933   8.670  1.3146 -0.6152 -0.6102
   37CHL1    C3 2665   0.590   4.495   6.868  0.0763 -0.5374 -0.2823
   37CHL1    H3 2666   0.625   4.600   6.881  0.5528 -0.4962 -1.7629
   37CHL1    O3 2667   0.584   4.462   6.736  0.2203  0.1407 -0.3210
   37CHL1   H3' 2668   0.542   4.376   6.736  0.8886 -0.1787  0.0981
   37CHL1    C4 2669   0.677   4.397   6.953 -0.4531 -0.5273 -0.5322
   37CHL1   H4A 2670   0.672   4.292   6.915  1.2902 -1.2678  1.1867
   37CHL1   H4B 2671   0.781   4.428   6.932 -0.7839  0.4712 -0.6820
   37CHL1    C5 2672   0.650   4.401   7.106 -0.6458  0.6330  0.6546
   37CHL1    C6 2673   0.762   4.401   7.184 -0.3122 -0.6384  0.1238
   37CHL1    H6 2674   0.859   4.387   7.135 -0.7401 -0.4935 -0.7685
   37CHL1    C7 2675   0.766   4.405   7.329 -0.5323  0.6089  0.1066
   37CHL1   H7A 2676   0.825   4.317   7.363  0.7035  0.2296 -2.8773
   37CHL1   H7B 2677   0.820   4.497   7.360 -0.0029  0.6846 -1.0386
   37CHL1    C8 2678   0.621   4.399   7.393 -0.3661  0.4101 -1.0304
   37CHL1    H8 2679   0.589   4.293   7.403  0.6073  0.0348 -1.7460
   37CHL1   C14 2680   0.622   4.464   7.536  0.2770  0.2043  0.0624
   37CHL1   H14 2681   0.627   4.573   7.516 -2.9079  0.3917 -0.0208
   37CHL1   C15 2682   0.736   4.417   7.630 -0.2962 -0.2146  0.1188
   37CHL1  H15A 2683   0.762   4.310   7.619  0.9939  0.0692  0.3009
   37CHL1  H15B 2684   0.834   4.464   7.606  0.4574 -0.1995  3.0632
   37CHL1   C16 2685   0.688   4.438   7.773 -0.2820  0.0340 -0.0573
   37CHL1  H16A 2686   0.674   4.338   7.820  0.8315 -1.2484 -2.3686
   37CHL1  H16B 2687   0.749   4.507   7.836 -1.6326 -0.5597  1.9514
   37CHL1   C17 2688   0.540   4.501   7.751 -0.2811  0.6779  0.4043
   37CHL1   H17 2689   0.539   4.611   7.738 -0.3331  0.5654 -0.5952
   37CHL1   C13 2690   0.497   4.451   7.616  0.3946  0.6218 -0.8487
   37CHL1   C18 2691   0.467   4.298   7.635 -0.0172  0.0355  0.2228
   37CHL1  H18A 2692   0.439   4.255   7.536 -0.5452  1.7867 -0.4018
   37CHL1  H18B 2693   0.558   4.248   7.677  0.7062  0.3870 -0.8964
   37CHL1  H18C 2694   0.375   4.282   7.695  1.0161 -0.4364  1.7229
   37CHL1   C12 2695   0.383   4.520   7.540 -0.0434 -0.9210 -0.1809
   37CHL1  H12A 2696   0.278   4.496   7.570 -1.2325  3.1158 -0.7453
   37CHL1  H12B 2697   0.394   4.630   7.556 -2.3026 -0.5610 -0.8631
   37CHL1   C11 2698   0.382   4.480   7.390 -0.5842 -0.1500  0.2586
   37CHL1  H11A 2699   0.343   4.376   7.393  1.2975 -0.8599  0.7813
   37CHL1  H11B 2700   0.303   4.533   7.333 -0.9909 -2.3782 -1.2902
   37CHL1    C9 2701   0.520   4.479   7.305 -0.2856  0.5476  0.1167
   37CHL1    H9 2702   0.560   4.582   7.299  1.6212 -0.1820 -0.1236
   37CHL1   C10 2703   0.506   4.421   7.160  0.5928 -0.1760 -0.6384
   37CHL1   C19 2704   0.425   4.285   7.156  0.3439  0.6650  0.2365
   37CHL1  H19A 2705   0.432   4.239   7.055  0.5556  0.5740  0.2930
   37CHL1  H19B 2706   0.483   4.223   7.228  0.7090 -1.1085 -1.5525
   37CHL1  H19C 2707   0.319   4.301   7.185 -0.4860  0.3268 -2.4880
   37CHL1    C1 2708   0.435   4.529   7.068 -0.4818  0.6407 -0.1761
   37CHL1   H1A 2709   0.332   4.521   7.110  0.4922 -2.0324  1.7850
   37CHL1   H1B 2710   0.462   4.636   7.081 -2.0886  1.2883 -1.9153
   37CHL1    C2 2711   0.446   4.502   6.913 -0.2159 -0.1585 -0.7585
   37CHL1   H2A 2712   0.399   4.589   6.864  0.4791 -0.7841 -2.5813
   37CHL1   H2B 2713   0.391   4.415   6.873  1.1909 -1.1624 -0.5633
   37CHL1   C20 2714   0.449   4.483   7.878 -0.7135  0.1723  0.1533
   37CHL1   H20 2715   0.434   4.373   7.889  1.7422 -0.1244  0.7840
   37CHL1   C21 2716   0.315   4.556   7.858  0.6610 -0.7636  0.2602
   37CHL1  H21A 2717   0.263   4.518   7.768 -1.7742 -3.3776  2.6572
   37CHL1  H21B 2718   0.320   4.667   7.858 -0.1435 -0.7252 -0.2497
   37CHL1  H21C 2719   0.242   4.542   7.940  0.6546  0.4703  0.4730
   37CHL1   C22 2720   0.518   4.545   8.006  0.1315 -0.0133  0.1923
   37CHL1  H22A 2721   0.621   4.503   8.012  0.3931  0.6135  0.1165
   37CHL1  H22B 2722   0.522   4.656   8.008 -0.2630 -0.0046  1.8592
   37CHL1   C23 2723   0.443   4.499   8.136  0.4388  0.4563 -0.0313
   37CHL1  H23A 2724   0.473   4.566   8.219 -1.4028  0.1206  0.9331
   37CHL1  H23B 2725   0.333   4.506   8.119  0.1737 -1.6839  0.6381
   37CHL1   C24 2726   0.475   4.359   8.180  0.0478  0.1841 -0.2134
   37CHL1  H24A 2727   0.446   4.285   8.102  0.6571 -2.6327  2.1643
   37CHL1  H24B 2728   0.584   4.354   8.201  0.1876  1.7845 -0.4796
   37CHL1   C25 2729   0.406   4.307   8.310  0.8930 -0.0049 -0.5253
   37CHL1   H25 2730   0.296   4.317   8.298  0.7005 -0.5168  0.7493
   37CHL1   C26 2731   0.431   4.155   8.312 -0.2466  0.0510 -0.3365
   37CHL1  H26A 2732   0.368   4.123   8.398 -1.4242  2.3067 -0.3136
   37CHL1  H26B 2733   0.398   4.107   8.218 -1.9294  0.7674 -0.1445
   37CHL1  H26C 2734   0.535   4.123   8.334  0.0663  0.8016 -0.6920
   37CHL1   C27 2735   0.452   4.378   8.442  0.2654 -0.1693 -0.1033
   37CHL1  H27A 2736   0.405   4.328   8.529 -1.9434 -0.6705 -1.5461
   37CHL1  H27B 2737   0.563   4.381   8.452  0.0941  2.4400  1.3428
   37CHL1  H27C 2738   0.415   4.483   8.437 -0.2341 -0.3127  0.5471
   38CHL1    C3 2739   3.689   5.618   6.563 -0.9946 -0.8095  1.2095
   38CHL1    H3 2740   3.778   5.676   6.532 -2.8719  1.7553  0.4376
   38CHL1    O3 2741   3.623   5.575   6.441  0.0647 -0.2176 -0.1815
   38CHL1   H3' 2742   3.544   5.534   6.478  0.9368 -1.0862  0.7361
   38CHL1    C4 2743   3.742   5.495   6.649  0.4207 -0.4140  0.2282
   38CHL1   H4A 2744   3.671   5.410   6.657 -1.4467  1.0891  0.0363
   38CHL1   H4B 2745   3.821   5.461   6.579  0.0913  0.7182 -0.7040
   38CHL1    C5 2746   3.789   5.540   6.781 -0.1655  0.2876 -0.6090
   38CHL1    C6 2747   3.906   5.500   6.837  0.4293  0.2545  0.4560
   38CHL1    H6 2748   3.974   5.433   6.784  1.1934  1.0663  0.4002
   38CHL1    C7 2749   3.953   5.543   6.974  0.1747 -0.0732 -0.0799
   38CHL1   H7A 2750   3.985   5.454   7.032 -1.0998  1.3194  2.8936
   38CHL1   H7B 2751   4.040   5.612   6.966  0.7522 -0.8287 -0.2784
   38CHL1    C8 2752   3.847   5.616   7.058 -0.1065 -0.1707  1.2263
   38CHL1    H8 2753   3.775   5.546   7.104  0.8980 -1.1561  1.3128
   38CHL1   C14 2754   3.932   5.686   7.159  0.3612  0.6982 -0.2489
   38CHL1   H14 2755   3.978   5.768   7.100  1.3073  0.1100 -0.3367
   38CHL1   C15 2756   4.037   5.611   7.232  0.1774 -0.7980 -0.6359
   38CHL1  H15A 2757   3.988   5.513   7.247 -1.9909 -0.0821 -2.7547
   38CHL1  H15B 2758   4.128   5.599   7.170  0.8400 -0.8307  0.3377
   38CHL1   C16 2759   4.060   5.689   7.360  0.3084 -0.9619 -0.0665
   38CHL1  H16A 2760   4.033   5.625   7.446  0.7562 -2.1685 -0.8161
   38CHL1  H16B 2761   4.167   5.717   7.371 -0.1853  1.4726 -0.9983
   38CHL1   C17 2762   3.956   5.804   7.361 -0.2130 -0.2909  0.9971
   38CHL1   H17 2763   4.000   5.886   7.299 -0.0146 -1.0527  0.1084
   38CHL1   C13 2764   3.846   5.751   7.266  0.6695  0.5306 -0.0542
   38CHL1   C18 2765   3.762   5.657   7.347 -0.5759 -0.1622 -0.2563
   38CHL1  H18A 2766   3.819   5.583   7.408 -1.6447  0.2808  1.3198
   38CHL1  H18B 2767   3.697   5.708   7.422 -0.3513 -3.2176  2.1227
   38CHL1  H18C 2768   3.684   5.611   7.283  0.5473 -1.0916 -0.9787
   38CHL1   C12 2769   3.760   5.856   7.190 -0.6523  0.1446 -0.1476
   38CHL1  H12A 2770   3.686   5.910   7.254  0.7516  0.3957  1.2998
   38CHL1  H12B 2771   3.822   5.940   7.152 -1.7728  0.6044 -0.9892
   38CHL1   C11 2772   3.692   5.793   7.067 -0.5924 -0.0063 -0.0821
   38CHL1  H11A 2773   3.599   5.744   7.103 -0.1015  0.9103  2.6138
   38CHL1  H11B 2774   3.658   5.875   7.000 -0.9726 -0.8487 -0.9143
   38CHL1    C9 2775   3.776   5.711   6.975 -0.9431 -0.3833 -1.0030
   38CHL1    H9 2776   3.843   5.778   6.917 -0.0656  0.1433  0.5791
   38CHL1   C10 2777   3.698   5.637   6.864 -0.0299  0.2033  0.7310
   38CHL1   C19 2778   3.580   5.555   6.915  0.5033  0.7511 -0.3487
   38CHL1  H19A 2779   3.624   5.477   6.981  3.0383  0.9028 -1.7780
   38CHL1  H19B 2780   3.500   5.607   6.972 -0.9782  1.2074 -2.7572
   38CHL1  H19C 2781   3.539   5.502   6.827 -0.2720 -1.3277  1.2370
   38CHL1    C1 2782   3.656   5.746   6.765  0.0837  0.4823  0.6902
   38CHL1   H1A 2783   3.568   5.793   6.814 -1.2554 -2.5818  1.3854
   38CHL1   H1B 2784   3.730   5.823   6.738  0.8355 -0.7840 -0.9350
   38CHL1    C2 2785   3.591   5.699   6.641 -0.5739  0.0043  0.0311
   38CHL1   H2A 2786   3.560   5.787   6.582 -2.8471 -0.1409  0.9879
   38CHL1   H2B 2787   3.500   5.640   6.664 -0.4685  0.4796  1.7566
   38CHL1   C20 2788   3.931   5.851   7.500 -0.3627 -0.3640 -0.3818
   38CHL1   H20 2789   3.905   5.767   7.567 -1.2444  0.4133  0.2527
   38CHL1   C21 2790   3.823   5.964   7.493  0.2346  0.9192  0.0895
   38CHL1  H21A 2791   3.852   6.038   7.416 -0.5617  0.5030 -0.6150
   38CHL1  H21B 2792   3.813   6.020   7.589 -0.5783  2.1249 -0.6917
   38CHL1  H21C 2793   3.722   5.921   7.472 -0.0527  1.3567  0.5541
   38CHL1   C22 2794   4.053   5.917   7.561  0.2665 -0.8025 -0.2047
   38CHL1  H22A 2795   4.143   5.854   7.541  1.0838  0.3700 -0.3209
   38CHL1  H22B 2796   4.065   6.015   7.511 -1.8014  0.1486  1.1169
   38CHL1   C23 2797   4.047   5.938   7.714 -0.0202  0.1305  0.1255
   38CHL1  H23A 2798   3.948   5.976   7.745  0.3511 -1.2480  3.1910
   38CHL1  H23B 2799   4.043   5.835   7.755 -1.8771  0.2827  0.3584
   38CHL1   C24 2800   4.160   6.030   7.770 -0.2166  0.1564 -0.5131
   38CHL1  H24A 2801   4.256   5.985   7.736  0.5866  1.6305 -0.2583
   38CHL1  H24B 2802   4.166   6.132   7.725  0.5281 -0.1721 -1.1755
   38CHL1   C25 2803   4.156   6.051   7.922 -0.3341  0.1621 -0.8971
   38CHL1   H25 2804   4.061   6.108   7.932 -0.4903 -0.3568  0.7639
   38CHL1   C26 2805   4.143   5.924   8.001  0.2494  0.9861  0.3063
   38CHL1  H26A 2806   4.037   5.896   8.015  0.8925 -0.6622  2.2024
   38CHL1  H26B 2807   4.192   5.839   7.949  0.9346  1.4846  0.1211
   38CHL1  H26C 2808   4.176   5.931   8.107  1.1876 -1.7795  0.2424
   38CHL1   C27 2809   4.271   6.140   7.968  0.6311 -0.3312  0.4053
   38CHL1  H27A 2810   4.262   6.238   7.916 -0.6861  0.3078  1.7955
   38CHL1  H27B 2811   4.260   6.160   8.077 -2.7630  0.0535  0.0373
   38CHL1  H27C 2812   4.369   6.095   7.942  1.8809  1.8127  1.2152
   39CHL1    C3 2813   3.339   4.740   6.983  0.3236  0.3924 -0.7946
   39CHL1    H3 2814   3.449   4.741   6.972  0.5878 -3.1435  0.7573
   39CHL1    O3 2815   3.283   4.703   6.862 -0.3039 -0.2435  0.1961
   39CHL1   H3' 2816   3.261   4.786   6.820 -1.1136 -1.5551 -2.0552
   39CHL1    C4 2817   3.313   4.619   7.077  0.0016 -0.4670 -0.8293
   39CHL1   H4A 2818   3.207   4.587   7.064 -0.2144  0.9906 -2.8646
   39CHL1   H4B 2819   3.370   4.534   7.035  2.8464  1.8430 -1.8002
   39CHL1    C5 2820   3.355   4.649   7.220  0.2754 -0.0151  0.2406
   39CHL1    C6 2821   3.439   4.569   7.284  0.4336 -0.0011  0.3590
   39CHL1    H6 2822   3.481   4.478   7.238  1.8266  1.2823 -0.9866
   39CHL1    C7 2823   3.482   4.584   7.428  0.6309 -0.2194  0.3774
   39CHL1   H7A 2824   3.468   4.493   7.490 -0.2604  1.2089  2.3529
   39CHL1   H7B 2825   3.590   4.605   7.442  0.4150  0.2322  1.4923
   39CHL1    C8 2826   3.396   4.693   7.491 -0.4262  0.1056  0.6281
   39CHL1    H8 2827   3.292   4.654   7.502 -0.7095  0.4521 -0.8288
   39CHL1   C14 2828   3.461   4.731   7.620  0.1837 -0.7917 -0.1397
   39CHL1   H14 2829   3.566   4.758   7.597 -0.5083  1.2363 -0.9247
   39CHL1   C15 2830   3.476   4.627   7.729 -0.2424 -0.2131 -0.2963
   39CHL1  H15A 2831   3.381   4.574   7.753  0.8630 -1.4688  1.4748
   39CHL1  H15B 2832   3.555   4.551   7.712  0.4066  0.2244  0.7392
   39CHL1   C16 2833   3.513   4.702   7.852  0.3320  0.8514 -0.1801
   39CHL1  H16A 2834   3.451   4.664   7.935  0.4572 -1.6608 -1.2002
   39CHL1  H16B 2835   3.618   4.682   7.884  0.1511 -0.7522 -0.5662
   39CHL1   C17 2836   3.489   4.851   7.825  0.0689  0.2546  0.1326
   39CHL1   H17 2837   3.575   4.913   7.791 -1.1154  1.2567 -1.0790
   39CHL1   C13 2838   3.397   4.843   7.700 -0.4295  1.0564 -0.0083
   39CHL1   C18 2839   3.257   4.808   7.749 -0.2228 -0.3307 -0.6556
   39CHL1  H18A 2840   3.181   4.783   7.672 -1.6277 -1.4789  1.0488
   39CHL1  H18B 2841   3.258   4.726   7.823  0.3298  2.9644  3.1937
   39CHL1  H18C 2842   3.206   4.902   7.780  0.3605 -1.1663  3.0681
   39CHL1   C12 2843   3.406   4.970   7.611  0.2976  0.8416 -0.9753
   39CHL1  H12A 2844   3.353   5.057   7.655 -2.1298 -0.1367 -1.8429
   39CHL1  H12B 2845   3.512   4.999   7.597 -0.2324  1.7422 -3.4345
   39CHL1   C11 2846   3.334   4.939   7.478  0.3658  0.7842 -0.0798
   39CHL1  H11A 2847   3.227   4.930   7.505  0.2478  1.0235 -0.4772
   39CHL1  H11B 2848   3.342   5.031   7.417  3.5983 -1.7751 -3.7847
   39CHL1    C9 2849   3.386   4.811   7.398  0.1370  1.0247 -0.2209
   39CHL1    H9 2850   3.490   4.837   7.368  0.7877 -0.8068  0.3737
   39CHL1   C10 2851   3.304   4.781   7.277 -0.4411  0.5024 -0.1702
   39CHL1   C19 2852   3.150   4.757   7.303 -0.1277 -0.3182 -0.0560
   39CHL1  H19A 2853   3.112   4.850   7.351 -0.7810 -0.3818 -0.4409
   39CHL1  H19B 2854   3.105   4.747   7.202  1.5765 -0.5151 -0.7940
   39CHL1  H19C 2855   3.129   4.660   7.353  0.8557 -1.9520 -2.7619
   39CHL1    C1 2856   3.338   4.904   7.178  0.6682  0.2171  0.3113
   39CHL1   H1A 2857   3.286   4.996   7.214 -1.4445 -1.0164  0.4922
   39CHL1   H1B 2858   3.448   4.914   7.180  0.6334  0.7133  2.9152
   39CHL1    C2 2859   3.297   4.875   7.034  0.8746 -0.3724 -0.0164
   39CHL1   H2A 2860   3.337   4.959   6.972  0.2785  0.2171  0.3921
   39CHL1   H2B 2861   3.187   4.888   7.031  0.9211 -0.2364 -1.8524
   39CHL1   C20 2862   3.450   4.921   7.955  0.1380  0.5440  0.0641
   39CHL1   H20 2863   3.359   4.869   7.991 -1.2217  2.7460 -0.1532
   39CHL1   C21 2864   3.406   5.061   7.922 -0.3597 -0.7419 -0.1101
   39CHL1  H21A 2865   3.393   5.115   8.019  0.5664 -1.3318  0.3523
   39CHL1  H21B 2866   3.307   5.069   7.874 -0.3501  0.0562 -0.0026
   39CHL1  H21C 2867   3.490   5.111   7.868 -2.0833  2.3518 -0.0298
   39CHL1   C22 2868   3.562   4.918   8.060 -0.4025 -0.1214 -0.2800
   39CHL1  H22A 2869   3.528   4.959   8.158  1.0500  0.5498 -0.0535
   39CHL1  H22B 2870   3.585   4.810   8.075  1.3946  0.1691 -0.9171
   39CHL1   C23 2871   3.692   4.987   8.015 -0.0992  0.3994  0.9266
   39CHL1  H23A 2872   3.742   4.923   7.939  2.0354  1.8790  1.0286
   39CHL1  H23B 2873   3.674   5.079   7.954 -1.6659  0.7885  1.9448
   39CHL1   C24 2874   3.799   5.033   8.119  0.7990  0.7524 -0.0783
   39CHL1  H24A 2875   3.818   4.937   8.171  0.5729  1.2125  0.8646
   39CHL1  H24B 2876   3.890   5.075   8.072  2.0325 -1.1374  0.5690
   39CHL1   C25 2877   3.752   5.144   8.221 -0.1286  0.3036  0.0418
   39CHL1   H25 2878   3.652   5.123   8.262 -0.6675 -1.8455 -2.2188
   39CHL1   C26 2879   3.844   5.146   8.347 -0.0354 -0.3730 -0.4083
   39CHL1  H26A 2880   3.942   5.171   8.299 -0.2480 -1.1374 -1.2670
   39CHL1  H26B 2881   3.808   5.228   8.412 -0.5800  1.1153 -2.5336
   39CHL1  H26C 2882   3.849   5.054   8.409  0.3804  0.2913  0.5558
   39CHL1   C27 2883   3.754   5.289   8.167  0.5854  0.1413  0.1650
   39CHL1  H27A 2884   3.675   5.298   8.090 -0.4558  0.7399  1.2867
   39CHL1  H27B 2885   3.718   5.349   8.254 -0.5647 -1.2267  0.6452
   39CHL1  H27C 2886   3.853   5.314   8.123  0.1691  1.5268 -0.0032
   40CHL1    C3 2887   6.207   3.268   6.871  0.3126 -0.0516  0.1309
   40CHL1    H3 2888   6.112   3.322   6.887  0.1133  0.7199 -3.3090
   40CHL1    O3 2889   6.247   3.272   6.734 -0.1002  0.0379 -0.1431
   40CHL1   H3' 2890   6.310   3.345   6.730  1.7528 -1.6184 -1.9183
   40CHL1    C4 2891   6.316   3.339   6.960  0.3633  0.3377  0.0597
   40CHL1   H4A 2892   6.413   3.296   6.927  0.3071 -0.4617  0.9443
   40CHL1   H4B 2893   6.322   3.443   6.919 -0.5405  0.6859  0.7925
   40CHL1    C5 2894   6.298   3.326   7.110 -0.5840 -0.3480  0.0942
   40CHL1    C6 2895   6.292   3.426   7.200  0.3613 -0.2100 -0.2605
   40CHL1    H6 2896   6.315   3.528   7.166 -2.1560  0.2982 -0.4931
   40CHL1    C7 2897   6.282   3.398   7.349  0.3581  1.0623  0.4105
   40CHL1   H7A 2898   6.357   3.454   7.409 -0.7915 -0.0998  3.0143
   40CHL1   H7B 2899   6.187   3.452   7.369  0.2856  1.0089  0.2141
   40CHL1    C8 2900   6.306   3.254   7.385 -0.1539 -0.1417  0.1697
   40CHL1    H8 2901   6.415   3.238   7.373 -0.1177 -1.4947  2.0415
   40CHL1   C14 2902   6.270   3.234   7.536 -0.0884  0.2044 -0.6446
   40CHL1   H14 2903   6.163   3.261   7.550  0.1840  1.3268 -0.7161
   40CHL1   C15 2904   6.342   3.313   7.644 -1.0120 -0.5848 -0.5028
   40CHL1  H15A 2905   6.449   3.319   7.618 -1.1362  1.7585 -0.5421
   40CHL1  H15B 2906   6.306   3.418   7.652  0.9771  0.0505  0.2093
   40CHL1   C16 2907   6.326   3.231   7.780  0.0338  0.2621  0.9461
   40CHL1  H16A 2908   6.412   3.234   7.850  0.3368  0.4399  0.5637
   40CHL1  H16B 2909   6.244   3.282   7.835  1.0871  0.8642  1.9829
   40CHL1   C17 2910   6.269   3.097   7.735 -0.3699  0.6001 -0.1770
   40CHL1   H17 2911   6.158   3.099   7.745 -0.3474  0.8251  0.0255
   40CHL1   C13 2912   6.286   3.079   7.578 -1.3640 -0.0563  0.2990
   40CHL1   C18 2913   6.431   3.044   7.539  0.5894 -0.4849  0.4358
   40CHL1  H18A 2914   6.441   3.030   7.429 -1.0581  0.0083  0.2047
   40CHL1  H18B 2915   6.514   3.104   7.581 -0.1008  1.4188 -0.8342
   40CHL1  H18C 2916   6.449   2.947   7.589 -1.8067 -1.2062 -0.0485
   40CHL1   C12 2917   6.175   3.004   7.498  0.1542  0.2447  0.2328
   40CHL1  H12A 2918   6.192   2.897   7.520 -1.8794  0.1272  1.4874
   40CHL1  H12B 2919   6.075   3.040   7.533  0.3814  0.6126  0.5067
   40CHL1   C11 2920   6.208   3.017   7.348  0.0954 -0.2833 -0.0135
   40CHL1  H11A 2921   6.299   2.960   7.320  0.6439  0.1178  0.9095
   40CHL1  H11B 2922   6.124   2.969   7.293 -0.3960  0.7915 -0.2149
   40CHL1    C9 2923   6.221   3.165   7.299  0.0241  0.9439  0.2754
   40CHL1    H9 2924   6.120   3.210   7.298 -1.0446 -1.4038 -0.8957
   40CHL1   C10 2925   6.273   3.175   7.151  0.2196 -0.1246 -0.4567
   40CHL1   C19 2926   6.405   3.102   7.140 -0.2684  0.2125  0.4038
   40CHL1  H19A 2927   6.488   3.154   7.192 -0.0412  0.1178  0.1352
   40CHL1  H19B 2928   6.402   2.994   7.164 -0.4091  0.1466  0.0856
   40CHL1  H19C 2929   6.437   3.096   7.034 -0.8241 -2.1933  0.3378
   40CHL1    C1 2930   6.172   3.109   7.057  0.3453  0.2499  0.2283
   40CHL1   H1A 2931   6.170   3.002   7.085 -1.7980  0.3862  0.6861
   40CHL1   H1B 2932   6.067   3.145   7.064 -0.2904 -2.0546  3.9916
   40CHL1    C2 2933   6.200   3.118   6.907  0.5667 -0.7455 -0.1367
   40CHL1   H2A 2934   6.121   3.074   6.843 -0.1115  1.7233 -1.0757
   40CHL1   H2B 2935   6.295   3.069   6.876  1.3359  0.3515  0.4571
   40CHL1   C20 2936   6.307   2.979   7.829 -0.0052  0.0955  0.1025
   40CHL1   H20 2937   6.418   2.970   7.833  0.0319  0.7183  0.5337
   40CHL1   C21 2938   6.255   2.847   7.765  0.1180  0.2526  0.6372
   40CHL1  H21A 2939   6.284   2.755   7.820  1.1778  0.5565  0.5949
   40CHL1  H21B 2940   6.306   2.833   7.667 -0.6147  0.9555  0.1530
   40CHL1  H21C 2941   6.145   2.862   7.767  0.3847  2.2801  1.2049
   40CHL1   C22 2942   6.248   3.003   7.967  0.0457 -0.8335 -0.1142
   40CHL1  H22A 2943   6.275   3.105   8.003  0.0739 -0.9486  0.1923
   40CHL1  H22B 2944   6.138   3.006   7.954 -0.0545 -0.7150  0.7072
   40CHL1   C23 2945   6.284   2.889   8.064  0.1475 -0.3698  0.0418
   40CHL1  H23A 2946   6.218   2.801   8.048 -0.7723  0.5355 -1.2899
   40CHL1  H23B 2947   6.389   2.862   8.040  0.2484 -0.1941  0.2831
   40CHL1   C24 2948   6.262   2.937   8.209  0.1124 -0.3220  0.2634
   40CHL1  H24A 2949   6.303   3.040   8.215 -2.3852  0.5883  2.5727
   40CHL1  H24B 2950   6.153   2.937   8.232  0.4958 -1.8748  2.1650
   40CHL1   C25 2951   6.325   2.853   8.311 -0.0797 -0.1112  0.1759
   40CHL1   H25 2952   6.288   2.886   8.410 -1.0215 -0.7291  0.0331
   40CHL1   C26 2953   6.298   2.700   8.284  0.0045 -0.0340 -0.1070
   40CHL1  H26A 2954   6.304   2.639   8.377  0.8344  1.8256  1.1058
   40CHL1  H26B 2955   6.194   2.691   8.246  0.0259 -1.8683  0.2323
   40CHL1  H26C 2956   6.376   2.668   8.212 -0.6826 -2.4309  0.1812
   40CHL1   C27 2957   6.480   2.877   8.316  0.0632 -0.5411  0.4410
   40CHL1  H27A 2958   6.532   2.836   8.405 -0.6921 -0.9778  0.6897
   40CHL1  H27B 2959   6.533   2.839   8.226  1.9137 -0.3384  1.4143
   40CHL1  H27C 2960   6.509   2.984   8.313  1.0269 -0.8238 -0.7044
   41CHL1    C3 2961   0.192   3.382   6.962  0.4925 -0.1667  0.1174
   41CHL1    H3 2962   0.139   3.479   6.972 -1.9631 -1.5543  1.2299
   41CHL1    O3 2963   0.182   3.337   6.828 -0.3673 -0.1260  0.4267
   41CHL1   H3' 2964   0.239   3.260   6.829  2.1211  1.6265  2.7350
   41CHL1    C4 2965   0.340   3.378   7.009 -0.9735 -1.1433 -0.7276
   41CHL1   H4A 2966   0.369   3.279   6.968 -2.1793 -0.7972 -2.4573
   41CHL1   H4B 2967   0.405   3.454   6.961 -1.6801  0.3636  0.6596
   41CHL1    C5 2968   0.359   3.390   7.159 -0.0230  0.2959 -0.7409
   41CHL1    C6 2969   0.449   3.472   7.212  0.5680 -0.2445 -0.3777
   41CHL1    H6 2970   0.507   3.533   7.141 -1.5790 -0.0012 -1.9682
   41CHL1    C7 2971   0.487   3.483   7.356 -0.1838 -0.4814  0.1715
   41CHL1   H7A 2972   0.599   3.482   7.356 -0.1451 -1.2593 -2.8629
   41CHL1   H7B 2973   0.453   3.584   7.387 -2.3192 -0.4122 -2.1938
   41CHL1    C8 2974   0.437   3.365   7.442 -0.1280 -0.2081 -0.2631
   41CHL1    H8 2975   0.498   3.272   7.433 -2.4911 -1.7944 -0.2710
   41CHL1   C14 2976   0.438   3.412   7.584 -0.5845  0.1544  0.6797
   41CHL1   H14 2977   0.371   3.501   7.589  2.4396  2.4168  1.9008
   41CHL1   C15 2978   0.567   3.462   7.659  0.3133  0.5493  0.3820
   41CHL1  H15A 2979   0.663   3.409   7.637 -0.4107 -0.4903 -0.3078
   41CHL1  H15B 2980   0.577   3.566   7.621 -2.0827  0.0867 -1.5812
   41CHL1   C16 2981   0.538   3.435   7.806 -0.5125  0.3539  0.0667
   41CHL1  H16A 2982   0.609   3.355   7.834 -3.3253 -1.8184  1.2435
   41CHL1  H16B 2983   0.561   3.521   7.873  1.5681 -0.2983  0.2023
   41CHL1   C17 2984   0.398   3.381   7.809  0.1046  0.1137 -0.1671
   41CHL1   H17 2985   0.341   3.476   7.812  1.4957  0.9665 -0.5590
   41CHL1   C13 2986   0.371   3.308   7.678 -0.2378  0.0721  1.4772
   41CHL1   C18 2987   0.460   3.180   7.666 -0.2126  0.4014  0.1386
   41CHL1  H18A 2988   0.438   3.107   7.585  1.3330 -0.5771  0.5612
   41CHL1  H18B 2989   0.570   3.194   7.672  0.1934 -1.6335 -1.5911
   41CHL1  H18C 2990   0.425   3.117   7.750  0.6831  1.4911  1.3463
   41CHL1   C12 2991   0.222   3.291   7.635 -0.1408  0.3412  0.2263
   41CHL1  H12A 2992   0.166   3.225   7.705 -2.3815 -2.6074 -4.0938
   41CHL1  H12B 2993   0.188   3.396   7.626 -0.1480  0.4352  1.3196
   41CHL1   C11 2994   0.215   3.236   7.489  1.0674 -0.0121  0.3188
   41CHL1  H11A 2995   0.250   3.131   7.485  0.7483 -0.0596 -1.6896
   41CHL1  H11B 2996   0.109   3.224   7.456  0.6604 -1.7089  2.1300
   41CHL1    C9 2997   0.290   3.332   7.394  0.1367  0.6038 -0.6668
   41CHL1    H9 2998   0.237   3.429   7.404 -0.6275  0.3255 -1.8947
   41CHL1   C10 2999   0.278   3.297   7.242  1.0850 -0.0243  0.1023
   41CHL1   C19 3000   0.315   3.146   7.215 -0.5852 -0.2704  0.3692
   41CHL1  H19A 3001   0.402   3.109   7.274  0.3808  2.0890  0.4902
   41CHL1  H19B 3002   0.229   3.083   7.246 -1.9128  1.4262  0.2139
   41CHL1  H19C 3003   0.322   3.118   7.108 -0.2369 -0.9451  0.5674
   41CHL1    C1 3004   0.129   3.314   7.193 -0.3823  0.1061  0.1959
   41CHL1   H1A 3005   0.066   3.247   7.254  0.4871 -0.7121  0.2098
   41CHL1   H1B 3006   0.105   3.420   7.217  0.5182  0.2282  0.6061
   41CHL1    C2 3007   0.108   3.284   7.048 -0.0900 -0.2806  0.1082
   41CHL1   H2A 3008  -0.000   3.281   7.022 -0.1410  0.0987  0.2808
   41CHL1   H2B 3009   0.156   3.185   7.030  1.9812  1.0598 -1.9297
   41CHL1   C20 3010   0.361   3.312   7.946  0.6342  0.2278 -0.1319
   41CHL1   H20 3011   0.372   3.202   7.932  0.6491 -0.0001  1.5215
   41CHL1   C21 3012   0.215   3.343   7.981 -0.2457  0.5995  0.3955
   41CHL1  H21A 3013   0.182   3.270   8.058 -2.4808  0.6539 -0.4645
   41CHL1  H21B 3014   0.145   3.325   7.896  0.7769 -0.0603 -0.3129
   41CHL1  H21C 3015   0.203   3.445   8.022  0.9228  1.6681 -1.8114
   41CHL1   C22 3016   0.450   3.349   8.069 -0.2748 -0.5243  0.3389
   41CHL1  H22A 3017   0.557   3.343   8.039  0.1895  1.9508  1.3549
   41CHL1  H22B 3018   0.429   3.456   8.093 -1.0894 -0.1353 -1.8965
   41CHL1   C23 3019   0.425   3.275   8.204 -0.0971  0.2220  0.7178
   41CHL1  H23A 3020   0.318   3.255   8.225 -0.1334 -0.9960 -0.6177
   41CHL1  H23B 3021   0.473   3.175   8.197 -0.1065  0.3954 -2.0352
   41CHL1   C24 3022   0.477   3.353   8.327  0.4690  0.1679 -0.0152
   41CHL1  H24A 3023   0.583   3.384   8.314  0.3427 -0.0055 -1.6194
   41CHL1  H24B 3024   0.408   3.439   8.334 -1.8950 -1.4854 -2.3668
   41CHL1   C25 3025   0.451   3.288   8.470 -0.2385  0.0106 -0.7665
   41CHL1   H25 3026   0.340   3.276   8.467 -0.1785 -0.7408 -0.1574
   41CHL1   C26 3027   0.528   3.163   8.487 -0.0106 -0.2709 -0.2071
   41CHL1  H26A 3028   0.636   3.168   8.461  0.0101  1.2996  0.1116
   41CHL1  H26B 3029   0.535   3.120   8.589 -2.3397 -2.0025 -0.7353
   41CHL1  H26C 3030   0.482   3.092   8.415 -0.5808 -0.2276  0.1124
   41CHL1   C27 3031   0.484   3.388   8.590  0.4680 -0.1366 -0.2685
   41CHL1  H27A 3032   0.415   3.474   8.588 -2.3802 -2.3756 -1.4797
   41CHL1  H27B 3033   0.479   3.326   8.682  0.3396 -0.9022 -0.7868
   41CHL1  H27C 3034   0.589   3.423   8.604 -0.4586  1.2749  3.8799
   42CHL1    C3 3035   1.483   0.827   6.816 -0.2478 -0.2198  0.4165
   42CHL1    H3 3036   1.431   0.924   6.835 -0.2301 -0.3652  1.2240
   42CHL1    O3 3037   1.548   0.833   6.689 -0.0291 -0.4618 -0.0833
   42CHL1   H3' 3038   1.641   0.845   6.709  0.0342  0.9164 -1.0830
   42CHL1    C4 3039   1.579   0.804   6.935  0.3968  0.0622 -0.0284
   42CHL1   H4A 3040   1.634   0.708   6.922  1.3651  0.6033  0.0505
   42CHL1   H4B 3041   1.653   0.885   6.948 -0.6869  1.3635 -1.6970
   42CHL1    C5 3042   1.508   0.786   7.068 -0.2379 -0.5095 -0.2707
   42CHL1    C6 3043   1.543   0.851   7.179 -1.0922  0.0087  0.5254
   42CHL1    H6 3044   1.629   0.920   7.187 -1.8501  0.9190  0.8747
   42CHL1    C7 3045   1.467   0.829   7.312 -0.7080  0.0697  0.0591
   42CHL1   H7A 3046   1.541   0.834   7.394 -0.1429 -0.2385 -0.4286
   42CHL1   H7B 3047   1.400   0.917   7.321 -0.3214  0.5361 -1.4561
   42CHL1    C8 3048   1.377   0.698   7.317  0.0898  0.3519  0.1616
   42CHL1    H8 3049   1.443   0.610   7.325 -0.1058  0.2455  0.6227
   42CHL1   C14 3050   1.293   0.701   7.444 -0.5429 -0.1389  0.5678
   42CHL1   H14 3051   1.236   0.797   7.442  1.3925  1.0036 -0.8341
   42CHL1   C15 3052   1.358   0.721   7.584 -0.5106  0.4142  0.3486
   42CHL1  H15A 3053   1.442   0.648   7.584 -1.0030 -0.1573  0.7195
   42CHL1  H15B 3054   1.404   0.821   7.596  1.2283 -0.3457  0.2464
   42CHL1   C16 3055   1.242   0.689   7.678  0.2575  0.2424  0.1758
   42CHL1  H16A 3056   1.270   0.606   7.748  0.0824  1.5357  1.8111
   42CHL1  H16B 3057   1.207   0.779   7.732  1.6519 -0.2710  1.9957
   42CHL1   C17 3058   1.124   0.624   7.592 -0.5486 -0.1012 -0.1382
   42CHL1   H17 3059   1.055   0.710   7.579  0.0731  0.4386  0.0825
   42CHL1   C13 3060   1.192   0.590   7.455 -0.5665  0.1340 -0.3844
   42CHL1   C18 3061   1.273   0.460   7.477  0.0215  0.3841 -0.5653
   42CHL1  H18A 3062   1.325   0.425   7.386  0.0736 -1.0220 -0.0112
   42CHL1  H18B 3063   1.340   0.456   7.566 -0.5325 -0.2067 -0.1718
   42CHL1  H18C 3064   1.195   0.382   7.489  0.6101 -0.0739  0.4463
   42CHL1   C12 3065   1.104   0.577   7.335 -0.9706  0.0946  0.1929
   42CHL1  H12A 3066   1.037   0.488   7.341 -0.4544 -0.3378 -0.4332
   42CHL1  H12B 3067   1.036   0.664   7.326 -0.9657 -0.1666 -3.0672
   42CHL1   C11 3068   1.194   0.564   7.203 -0.1732  0.4698 -0.1430
   42CHL1  H11A 3069   1.243   0.465   7.204 -1.9088 -0.4077  0.4374
   42CHL1  H11B 3070   1.130   0.565   7.112  3.4682 -0.5717 -2.8398
   42CHL1    C9 3071   1.295   0.679   7.195 -0.6938 -0.0234 -0.4866
   42CHL1    H9 3072   1.226   0.766   7.196  1.4980  1.7819  1.8808
   42CHL1   C10 3073   1.386   0.691   7.062  0.3380  0.2020  0.1506
   42CHL1   C19 3074   1.438   0.552   7.034 -0.2504 -0.6307  0.6473
   42CHL1  H19A 3075   1.354   0.482   7.018 -0.1078 -1.0246  1.5952
   42CHL1  H19B 3076   1.499   0.545   6.942 -0.0494 -0.6190  0.7786
   42CHL1  H19C 3077   1.506   0.505   7.108 -0.9835 -1.7954  0.5829
   42CHL1    C1 3078   1.296   0.722   6.937 -0.4224 -0.1978 -0.3041
   42CHL1   H1A 3079   1.225   0.639   6.916 -0.7374 -0.4006  1.4817
   42CHL1   H1B 3080   1.238   0.816   6.953  1.8684  1.3114 -0.5535
   42CHL1    C2 3081   1.379   0.728   6.806 -0.6918 -0.3258  0.0912
   42CHL1   H2A 3082   1.301   0.748   6.729 -1.7537 -2.1071  0.6747
   42CHL1   H2B 3083   1.417   0.626   6.783 -0.0645  0.0637 -0.6305
   42CHL1   C20 3084   1.044   0.511   7.673  0.2560  0.2817 -0.5382
   42CHL1   H20 3085   1.113   0.424   7.680 -3.1051 -2.4325  0.2697
   42CHL1   C21 3086   0.917   0.464   7.592 -0.0473  0.6255  0.2306
   42CHL1  H21A 3087   0.868   0.379   7.644  1.2542 -0.8184 -0.8219
   42CHL1  H21B 3088   0.931   0.436   7.485 -0.2163 -2.4637  0.9653
   42CHL1  H21C 3089   0.849   0.551   7.592 -2.2663 -1.0667  0.8333
   42CHL1   C22 3090   1.003   0.548   7.822  0.6025  0.6825  0.2096
   42CHL1  H22A 3091   1.083   0.603   7.876  0.6416  0.1642  0.6802
   42CHL1  H22B 3092   0.917   0.618   7.820  0.6645  0.7191 -1.6123
   42CHL1   C23 3093   0.960   0.429   7.896 -0.3958  0.1019  0.1469
   42CHL1  H23A 3094   0.897   0.358   7.839 -0.5049 -0.2106  0.6552
   42CHL1  H23B 3095   1.051   0.367   7.915 -0.1399  0.8874  1.5459
   42CHL1   C24 3096   0.886   0.452   8.026 -0.1348  0.1139 -0.1263
   42CHL1  H24A 3097   0.951   0.516   8.090  0.3257 -1.0194  0.5405
   42CHL1  H24B 3098   0.791   0.504   8.001 -0.2556 -1.1874 -2.5027
   42CHL1   C25 3099   0.849   0.332   8.116 -0.3832  0.5893 -0.8069
   42CHL1   H25 3100   0.932   0.308   8.186 -0.3471 -1.6042 -1.5778
   42CHL1   C26 3101   0.736   0.358   8.216  0.1924  0.5110  0.3346
   42CHL1  H26A 3102   0.685   0.263   8.242  0.2719  0.6825  1.1333
   42CHL1  H26B 3103   0.782   0.407   8.304 -0.1841  0.8665  0.3381
   42CHL1  H26C 3104   0.656   0.424   8.175  1.4579  1.7698 -0.1618
   42CHL1   C27 3105   0.815   0.208   8.034  0.5293 -0.6710  0.2716
   42CHL1  H27A 3106   0.809   0.130   8.113 -0.0312  0.3610  1.2725
   42CHL1  H27B 3107   0.910   0.190   7.980  0.0353 -1.4903 -0.3496
   42CHL1  H27C 3108   0.731   0.218   7.961  0.0164 -2.8039  0.5450
   43CHL1    C3 3109   1.301   4.635   6.794 -0.8237 -0.7334  0.2748
   43CHL1    H3 3110   1.403   4.675   6.809 -1.0443 -0.2834  0.5659
   43CHL1    O3 3111   1.284   4.599   6.661 -0.2016 -0.0871  0.3638
   43CHL1   H3' 3112   1.324   4.513   6.649  0.7562  0.3713  0.2085
   43CHL1    C4 3113   1.280   4.514   6.884  0.5076  0.7919  0.2261
   43CHL1   H4A 3114   1.182   4.472   6.853  0.0843  0.7079  1.6889
   43CHL1   H4B 3115   1.359   4.437   6.866 -1.4769 -1.2728  0.0333
   43CHL1    C5 3116   1.282   4.554   7.027 -0.7323  0.4127 -0.3198
   43CHL1    C6 3117   1.367   4.496   7.113  0.2443  0.3405 -0.3909
   43CHL1    H6 3118   1.437   4.424   7.069  0.3247  0.2567 -0.1260
   43CHL1    C7 3119   1.372   4.524   7.257  0.5930  0.1850  0.1696
   43CHL1   H7A 3120   1.396   4.427   7.305 -0.7413 -0.6034 -0.7421
   43CHL1   H7B 3121   1.460   4.592   7.265  0.4043  0.5709 -0.9539
   43CHL1    C8 3122   1.238   4.586   7.309  0.1794 -0.1114  0.8152
   43CHL1    H8 3123   1.155   4.513   7.309  0.3190 -0.2952  2.6215
   43CHL1   C14 3124   1.253   4.632   7.454 -0.5981 -0.3801 -0.0971
   43CHL1   H14 3125   1.326   4.717   7.450 -1.3661  0.5176  3.0184
   43CHL1   C15 3126   1.304   4.540   7.556 -0.2066 -0.9795 -0.4544
   43CHL1  H15A 3127   1.260   4.439   7.562 -0.2075 -0.9321  0.3369
   43CHL1  H15B 3128   1.413   4.542   7.534 -0.6733  0.0950 -2.8445
   43CHL1   C16 3129   1.273   4.609   7.695 -0.7850  0.4106  0.2315
   43CHL1  H16A 3130   1.219   4.531   7.753  0.1914 -1.9747 -1.9362
   43CHL1  H16B 3131   1.368   4.634   7.747  0.9278 -3.4721 -0.8220
   43CHL1   C17 3132   1.191   4.739   7.665 -1.2014  0.2021  0.0092
   43CHL1   H17 3133   1.266   4.820   7.647 -0.2015 -0.8398 -0.6603
   43CHL1   C13 3134   1.133   4.711   7.519 -0.1897  0.4041 -0.0858
   43CHL1   C18 3135   1.010   4.627   7.534 -0.2055 -0.1125 -0.2274
   43CHL1  H18A 3136   1.043   4.532   7.581 -2.4123 -0.5911  0.3908
   43CHL1  H18B 3137   0.927   4.672   7.593 -2.1148 -0.3984 -2.6102
   43CHL1  H18C 3138   0.970   4.607   7.432  0.7093  3.5016 -1.3971
   43CHL1   C12 3139   1.105   4.830   7.422 -0.2980 -0.2908 -0.0575
   43CHL1  H12A 3140   1.015   4.888   7.450 -1.0931 -0.3397 -2.4347
   43CHL1  H12B 3141   1.187   4.904   7.427  0.3120 -0.9440 -0.2414
   43CHL1   C11 3142   1.101   4.795   7.264  0.1684 -0.1644 -0.1470
   43CHL1  H11A 3143   1.004   4.746   7.243  0.4122 -0.3515 -0.8461
   43CHL1  H11B 3144   1.105   4.887   7.202 -0.0305  0.1638  0.3196
   43CHL1    C9 3145   1.207   4.701   7.212 -0.1327  0.7069  0.0967
   43CHL1    H9 3146   1.297   4.766   7.205  1.0236 -1.0035 -1.6559
   43CHL1   C10 3147   1.186   4.663   7.061 -0.1053  0.5089  0.3113
   43CHL1   C19 3148   1.038   4.607   7.043  0.5447  0.8463 -0.9449
   43CHL1  H19A 3149   1.027   4.572   6.939  0.9612  0.4307 -0.8550
   43CHL1  H19B 3150   1.017   4.533   7.124  0.8755  1.0009 -0.7149
   43CHL1  H19C 3151   0.966   4.691   7.053 -1.1958 -0.9599  2.5311
   43CHL1    C1 3152   1.212   4.791   6.971 -0.5687 -0.3624 -0.0087
   43CHL1   H1A 3153   1.136   4.866   6.999  1.9808  1.8369  1.2270
   43CHL1   H1B 3154   1.311   4.839   6.982  0.0674 -1.6596  0.0806
   43CHL1    C2 3155   1.200   4.755   6.825 -0.7186 -0.1370  0.5182
   43CHL1   H2A 3156   1.227   4.843   6.762 -1.2571 -0.6875 -0.4988
   43CHL1   H2B 3157   1.097   4.727   6.797 -0.6056  1.4018 -1.6538
   43CHL1   C20 3158   1.095   4.781   7.780 -0.7529  0.5004  0.4157
   43CHL1   H20 3159   1.011   4.711   7.797 -1.7250  0.9467 -2.2319
   43CHL1   C21 3160   1.013   4.902   7.746  0.1619 -0.8289  0.1137
   43CHL1  H21A 3161   0.967   4.949   7.836  1.7670  0.3348  0.3475
   43CHL1  H21B 3162   0.931   4.876   7.676 -2.9989  1.8877  2.5774
   43CHL1  H21C 3163   1.077   4.969   7.686 -0.0653 -1.6894 -1.0936
   43CHL1   C22 3164   1.177   4.810   7.911 -0.1172  0.3904 -0.5515
   43CHL1  H22A 3165   1.241   4.724   7.938 -0.4770  0.7431  1.4548
   43CHL1  H22B 3166   1.254   4.886   7.884  0.2035  0.0007 -0.7287
   43CHL1   C23 3167   1.109   4.857   8.041 -0.4132 -0.1091  1.0131
   43CHL1  H23A 3168   1.194   4.868   8.111 -0.0808  1.1294  0.4306
   43CHL1  H23B 3169   1.052   4.952   8.026  2.4445  1.6424  0.8711
   43CHL1   C24 3170   1.016   4.754   8.103 -0.1480  0.0789 -0.5097
   43CHL1  H24A 3171   0.935   4.736   8.029 -0.0363  1.0390 -0.8693
   43CHL1  H24B 3172   1.074   4.659   8.103  0.5117  0.4786 -0.5413
   43CHL1   C25 3173   0.949   4.787   8.243 -0.2780 -0.6525 -0.1275
   43CHL1   H25 3174   0.883   4.876   8.236 -1.2682 -1.2897  0.9559
   43CHL1   C26 3175   0.856   4.668   8.289  0.0594  0.0433 -0.4725
   43CHL1  H26A 3176   0.760   4.667   8.234  0.4173 -1.0362 -1.0809
   43CHL1  H26B 3177   0.898   4.566   8.282 -0.2065 -0.1364  0.5183
   43CHL1  H26C 3178   0.834   4.695   8.395 -2.5250 -0.4087 -0.8725
   43CHL1   C27 3179   1.053   4.816   8.348  0.4157  0.7514 -0.2952
   43CHL1  H27A 3180   1.015   4.862   8.441 -2.4154  0.5056 -1.3045
   43CHL1  H27B 3181   1.116   4.728   8.375 -0.7511  0.1509  0.4721
   43CHL1  H27C 3182   1.126   4.893   8.313 -0.1038  0.8960 -1.0839
   44CHL1    C3 3183   1.196   3.110   6.726  0.1638 -0.4769  0.4292
   44CHL1    H3 3184   1.106   3.159   6.769  1.4466  0.7788  1.7495
   44CHL1    O3 3185   1.169   3.076   6.588 -0.4366  0.0557 -0.2380
   44CHL1   H3' 3186   1.149   3.163   6.553  1.9633  1.8252  2.5367
   44CHL1    C4 3187   1.322   3.204   6.752  0.6389  0.4326 -0.2825
   44CHL1   H4A 3188   1.411   3.152   6.711  1.0682  0.2599  0.8454
   44CHL1   H4B 3189   1.312   3.304   6.703 -1.7801  0.5078  0.2852
   44CHL1    C5 3190   1.365   3.226   6.895 -0.0821  0.0693  0.2307
   44CHL1    C6 3191   1.353   3.345   6.952  0.0835 -0.1209  0.5348
   44CHL1    H6 3192   1.334   3.437   6.894  1.1045  1.2277  2.3059
   44CHL1    C7 3193   1.382   3.374   7.096  0.3365 -0.0899  0.2334
   44CHL1   H7A 3194   1.470   3.441   7.096  0.3631 -0.1038  1.8271
   44CHL1   H7B 3195   1.302   3.413   7.162  1.4907  3.4136 -0.3557
   44CHL1    C8 3196   1.440   3.253   7.179 -0.0791 -0.5475  0.0286
   44CHL1    H8 3197   1.549   3.242   7.163  0.3228  2.2329  0.5337
   44CHL1   C14 3198   1.418   3.288   7.327  0.3589 -0.2496  0.0600
   44CHL1   H14 3199   1.308   3.299   7.338  0.1425 -1.6611 -0.5842
   44CHL1   C15 3200   1.464   3.417   7.397 -0.0863  0.4188  0.5761
   44CHL1  H15A 3201   1.564   3.446   7.357 -0.0918 -0.4035 -0.0530
   44CHL1  H15B 3202   1.391   3.498   7.377 -1.3953 -0.8185  0.2957
   44CHL1   C16 3203   1.442   3.391   7.551  0.2594  0.4148  0.4213
   44CHL1  H16A 3204   1.544   3.406   7.593 -0.5113  0.9076  2.1379
   44CHL1  H16B 3205   1.371   3.465   7.594  0.1470 -0.3755  1.6134
   44CHL1   C17 3206   1.412   3.238   7.564 -0.2721  0.6412  0.4882
   44CHL1   H17 3207   1.302   3.232   7.567 -0.2454  0.6543  1.7599
   44CHL1   C13 3208   1.454   3.177   7.427  0.2640 -0.1472 -0.8483
   44CHL1   C18 3209   1.604   3.151   7.430 -0.0113  0.1404 -1.0207
   44CHL1  H18A 3210   1.660   3.243   7.455  0.8813 -0.6890  0.0771
   44CHL1  H18B 3211   1.629   3.064   7.493  0.9750  0.7011 -0.6300
   44CHL1  H18C 3212   1.654   3.121   7.335  0.8934 -2.1111  0.1393
   44CHL1   C12 3213   1.377   3.051   7.384 -0.2190 -0.7483 -0.1517
   44CHL1  H12A 3214   1.409   2.957   7.433 -0.0188 -1.3417 -1.3913
   44CHL1  H12B 3215   1.267   3.065   7.392 -0.1191 -0.0864  0.1404
   44CHL1   C11 3216   1.391   3.014   7.233  0.6881 -0.1018  0.1925
   44CHL1  H11A 3217   1.496   2.982   7.222  0.5794  0.0419 -1.4826
   44CHL1  H11B 3218   1.325   2.924   7.231 -0.8620  0.9424  2.4627
   44CHL1    C9 3219   1.365   3.132   7.142 -0.4604  0.7524  0.2504
   44CHL1    H9 3220   1.257   3.150   7.161 -0.9584 -1.3101 -0.4044
   44CHL1   C10 3221   1.371   3.102   6.987 -0.0600 -0.4769  0.6485
   44CHL1   C19 3222   1.498   3.035   6.946 -0.2824  0.4029 -0.3779
   44CHL1  H19A 3223   1.501   2.994   6.843 -1.7987 -1.8117  0.3986
   44CHL1  H19B 3224   1.580   3.109   6.950  0.8171 -0.8970  3.6038
   44CHL1  H19C 3225   1.526   2.953   7.016 -2.6575  0.1625  0.3518
   44CHL1    C1 3226   1.247   3.016   6.949  0.3984  0.6745 -0.4449
   44CHL1   H1A 3227   1.244   2.926   7.015  1.9824  1.3623  0.5969
   44CHL1   H1B 3228   1.153   3.067   6.979 -0.6417 -1.9113  0.8229
   44CHL1    C2 3229   1.223   2.980   6.804 -0.6742  0.7530 -0.2693
   44CHL1   H2A 3230   1.135   2.913   6.795 -0.0475 -0.0869 -0.1909
   44CHL1   H2B 3231   1.304   2.930   6.748 -2.0945 -1.3164 -0.5431
   44CHL1   C20 3232   1.465   3.180   7.691  0.1338  0.5453  0.2999
   44CHL1   H20 3233   1.576   3.176   7.689  0.2596  2.3599  1.8663
   44CHL1   C21 3234   1.410   3.042   7.714 -0.7910 -0.3237 -0.0477
   44CHL1  H21A 3235   1.441   2.962   7.644 -2.6107  0.4318 -1.7367
   44CHL1  H21B 3236   1.300   3.032   7.711 -0.9670  1.7622 -3.2501
   44CHL1  H21C 3237   1.438   2.999   7.813 -0.1754  0.8583  0.3050
   44CHL1   C22 3238   1.428   3.274   7.807 -0.1351  0.2222 -0.3656
   44CHL1  H22A 3239   1.475   3.373   7.790 -1.6208  1.3552  1.7587
   44CHL1  H22B 3240   1.321   3.303   7.819 -0.4789 -1.0051 -0.3102
   44CHL1   C23 3241   1.468   3.223   7.941 -0.4409  0.1767 -0.2883
   44CHL1  H23A 3242   1.417   3.126   7.960  0.5099 -0.0497  1.2033
   44CHL1  H23B 3243   1.577   3.202   7.947 -0.5114 -0.7407 -1.8428
   44CHL1   C24 3244   1.433   3.331   8.043 -0.3575  0.5972  0.5892
   44CHL1  H24A 3245   1.494   3.421   8.016  1.2141 -0.6793 -0.2225
   44CHL1  H24B 3246   1.325   3.355   8.037 -1.0824 -1.7161  3.2195
   44CHL1   C25 3247   1.458   3.297   8.195  0.4938 -0.2326 -0.1759
   44CHL1   H25 3248   1.436   3.395   8.242 -0.5863 -0.3877 -0.3526
   44CHL1   C26 3249   1.362   3.194   8.248  0.1042 -0.5539 -0.0626
   44CHL1  H26A 3250   1.368   3.195   8.359 -2.2575 -0.2837  0.0933
   44CHL1  H26B 3251   1.258   3.214   8.213  0.6303 -1.7275 -2.4317
   44CHL1  H26C 3252   1.387   3.092   8.210 -0.3576 -0.5396 -0.4156
   44CHL1   C27 3253   1.597   3.247   8.235  1.2181 -0.5463 -0.2731
   44CHL1  H27A 3254   1.602   3.209   8.339 -0.0568  1.8564  0.7039
   44CHL1  H27B 3255   1.623   3.168   8.161 -0.0551 -1.7665  0.5568
   44CHL1  H27C 3256   1.672   3.329   8.229  1.6681 -0.7405  2.0651
   45CHL1    C3 3257   2.262   1.315   6.782  0.6581  0.3873  0.6484
   45CHL1    H3 3258   2.195   1.240   6.829 -0.1644 -0.3645 -1.6871
   45CHL1    O3 3259   2.270   1.302   6.640  0.6530 -0.1818 -0.5854
   45CHL1   H3' 3260   2.334   1.371   6.619  0.2672  0.1797 -0.5649
   45CHL1    C4 3261   2.193   1.445   6.817 -0.6436  0.2807 -0.2395
   45CHL1   H4A 3262   2.253   1.532   6.781  0.2335 -0.1919  0.0654
   45CHL1   H4B 3263   2.101   1.454   6.756  0.4450  0.0201 -1.9412
   45CHL1    C5 3264   2.176   1.467   6.967  0.0828  0.6102  0.6319
   45CHL1    C6 3265   2.056   1.481   7.018 -0.3544 -0.0888 -0.2424
   45CHL1    H6 3266   1.972   1.479   6.946  0.1297  1.9992 -0.9072
   45CHL1    C7 3267   2.031   1.491   7.164  0.0084 -0.5358  0.3281
   45CHL1   H7A 3268   1.965   1.575   7.194  0.8761  0.0572  0.5949
   45CHL1   H7B 3269   1.976   1.400   7.196 -2.0297  0.4388 -0.2735
   45CHL1    C8 3270   2.163   1.509   7.250  0.0387  0.1270 -0.2804
   45CHL1    H8 3271   2.203   1.611   7.233  1.9316 -0.8771 -2.0192
   45CHL1   C14 3272   2.151   1.479   7.396 -0.0272  0.4208 -0.7371
   45CHL1   H14 3273   2.134   1.370   7.400  0.9015  0.3550  2.4710
   45CHL1   C15 3274   2.031   1.536   7.462 -0.9159 -0.4891  0.0617
   45CHL1  H15A 3275   2.022   1.644   7.442 -0.3114 -0.3298  0.6225
   45CHL1  H15B 3276   1.936   1.485   7.436 -0.6443 -0.2420 -1.4577
   45CHL1   C16 3277   2.066   1.508   7.615  0.0532 -0.2221 -0.3046
   45CHL1  H16A 3278   2.075   1.598   7.679 -0.1569  0.8389 -1.7410
   45CHL1  H16B 3279   1.998   1.432   7.657 -0.9842  0.3984 -0.8528
   45CHL1   C17 3280   2.204   1.439   7.619  0.3415 -0.6570  0.1379
   45CHL1   H17 3281   2.195   1.328   7.611 -0.8573 -0.6041  0.5116
   45CHL1   C13 3282   2.269   1.490   7.489  0.0763  0.0587  0.3875
   45CHL1   C18 3283   2.315   1.640   7.498  0.3635  0.7788 -0.3145
   45CHL1  H18A 3284   2.358   1.673   7.401 -1.0670 -0.3546 -1.3545
   45CHL1  H18B 3285   2.233   1.706   7.533  0.0575 -0.2115  0.8764
   45CHL1  H18C 3286   2.400   1.644   7.570 -0.1419  2.1655  0.2178
   45CHL1   C12 3287   2.375   1.402   7.440 -0.4346 -0.2191  0.4726
   45CHL1  H12A 3288   2.471   1.412   7.495 -0.0626  2.2320 -0.5295
   45CHL1  H12B 3289   2.341   1.296   7.439  0.1066 -0.3955 -1.2965
   45CHL1   C11 3290   2.404   1.428   7.291  0.1611  0.3494 -0.0836
   45CHL1  H11A 3291   2.450   1.529   7.285 -0.3698  0.6927  1.4469
   45CHL1  H11B 3292   2.484   1.360   7.253  0.1628  1.0881 -1.4145
   45CHL1    C9 3293   2.274   1.418   7.197 -0.2616  0.5107  0.0093
   45CHL1    H9 3294   2.234   1.315   7.206  1.3764 -0.1270  0.2811
   45CHL1   C10 3295   2.304   1.449   7.049  0.1568 -0.4980 -0.6765
   45CHL1   C19 3296   2.380   1.578   7.037 -0.5482  0.6298 -0.3619
   45CHL1  H19A 3297   2.478   1.582   7.090 -1.4634 -2.4120  1.6614
   45CHL1  H19B 3298   2.397   1.611   6.932  0.2702 -2.8064 -1.3650
   45CHL1  H19C 3299   2.318   1.661   7.077  0.6045  1.8944 -1.1190
   45CHL1    C1 3300   2.392   1.333   6.993 -0.2738  0.9897  0.3271
   45CHL1   H1A 3301   2.496   1.341   7.032  0.5620 -1.1337 -1.3096
   45CHL1   H1B 3302   2.348   1.238   7.031 -0.3695  0.7827 -0.2954
   45CHL1    C2 3303   2.404   1.329   6.844 -0.4206 -0.8065  0.0982
   45CHL1   H2A 3304   2.475   1.250   6.808 -0.9085 -1.3335  0.2907
   45CHL1   H2B 3305   2.436   1.425   6.799  0.5697 -1.3860 -0.4653
   45CHL1   C20 3306   2.279   1.438   7.757 -0.2362 -0.0017 -0.5816
   45CHL1   H20 3307   2.344   1.528   7.750 -0.6658  0.2338 -1.6374
   45CHL1   C21 3308   2.357   1.310   7.768 -0.6583  0.3942  0.5080
   45CHL1  H21A 3309   2.411   1.291   7.672  0.0773 -1.4999  1.2851
   45CHL1  H21B 3310   2.295   1.223   7.797 -1.3025  0.2491 -1.1931
   45CHL1  H21C 3311   2.434   1.309   7.848  0.6695 -0.0619 -0.7495
   45CHL1   C22 3312   2.180   1.450   7.875 -0.3279  0.5810  0.3653
   45CHL1  H22A 3313   2.136   1.552   7.883  0.2500  1.0585 -1.9203
   45CHL1  H22B 3314   2.110   1.364   7.872 -0.3885  0.6644 -1.5120
   45CHL1   C23 3315   2.242   1.444   8.013  0.0518  0.3379 -0.2627
   45CHL1  H23A 3316   2.297   1.349   8.023  0.6927  0.5698 -1.4467
   45CHL1  H23B 3317   2.316   1.527   8.019 -0.8004  0.9902  1.4753
   45CHL1   C24 3318   2.139   1.447   8.128  0.2116  0.4302  0.0507
   45CHL1  H24A 3319   2.067   1.531   8.119  2.7898  2.6355 -0.4650
   45CHL1  H24B 3320   2.078   1.354   8.133 -0.7140  1.1298  2.3223
   45CHL1   C25 3321   2.202   1.457   8.265 -0.2882  0.1370  0.2704
   45CHL1   H25 3322   2.280   1.379   8.275 -0.2973 -0.1058 -1.4831
   45CHL1   C26 3323   2.271   1.595   8.297  0.5566  0.6000  0.3671
   45CHL1  H26A 3324   2.199   1.679   8.279  0.6266  0.3383 -1.1603
   45CHL1  H26B 3325   2.306   1.597   8.402 -0.4497  1.6691  0.7031
   45CHL1  H26C 3326   2.356   1.618   8.229 -0.1774  1.8691 -0.1455
   45CHL1   C27 3327   2.094   1.430   8.370  0.6521  0.0975 -0.0606
   45CHL1  H27A 3328   2.046   1.330   8.358  0.7801 -0.0082  0.2981
   45CHL1  H27B 3329   2.138   1.443   8.472  1.7659  0.4742 -0.5766
   45CHL1  H27C 3330   2.017   1.508   8.354  0.3204  0.0471  1.2007
   46CHL1    C3 3331   2.386   2.674   7.143 -0.5739  0.4978 -0.2420
   46CHL1    H3 3332   2.356   2.781   7.149  0.0305  0.7910 -2.0322
   46CHL1    O3 3333   2.370   2.647   7.006  0.2805 -0.2657  0.4470
   46CHL1   H3' 3334   2.405   2.559   6.991 -1.1366 -0.8771  0.6032
   46CHL1    C4 3335   2.533   2.670   7.195  0.1807  0.5283  0.1401
   46CHL1   H4A 3336   2.576   2.574   7.159 -0.6752  0.8961 -1.9470
   46CHL1   H4B 3337   2.583   2.755   7.143  0.3215  0.2916 -0.1129
   46CHL1    C5 3338   2.541   2.683   7.350 -0.8865 -0.2007  0.1849
   46CHL1    C6 3339   2.615   2.773   7.413  0.3062 -0.1484 -0.2210
   46CHL1    H6 3340   2.678   2.840   7.353  0.0453 -1.8962 -2.5097
   46CHL1    C7 3341   2.637   2.775   7.564  0.1799  1.0678  0.1048
   46CHL1   H7A 3342   2.745   2.791   7.584  0.8985  0.3153 -2.9840
   46CHL1   H7B 3343   2.587   2.870   7.593  0.3872  1.2726 -0.2002
   46CHL1    C8 3344   2.571   2.659   7.643 -0.0210 -0.2490  0.1016
   46CHL1    H8 3345   2.620   2.560   7.629 -0.1596 -0.4865  1.2513
   46CHL1   C14 3346   2.563   2.687   7.787  0.0839 -0.7204 -0.5126
   46CHL1   H14 3347   2.495   2.775   7.785 -0.0549 -0.8312 -0.6715
   46CHL1   C15 3348   2.694   2.732   7.861  0.6283 -0.6587  0.8916
   46CHL1  H15A 3349   2.779   2.662   7.846  0.3800 -0.8987  0.5758
   46CHL1  H15B 3350   2.718   2.840   7.847  0.4433 -0.3223  3.0132
   46CHL1   C16 3351   2.665   2.694   8.003 -0.0055 -0.1505  0.4299
   46CHL1  H16A 3352   2.723   2.604   8.032 -2.3935 -2.3044 -1.2802
   46CHL1  H16B 3353   2.690   2.782   8.066  3.3300 -0.0473 -0.9125
   46CHL1   C17 3354   2.512   2.661   8.012 -0.2921  0.3639 -0.0249
   46CHL1   H17 3355   2.466   2.762   8.013 -1.0438  0.0446 -1.7224
   46CHL1   C13 3356   2.489   2.587   7.875 -0.2014  0.1942  0.1699
   46CHL1   C18 3357   2.564   2.450   7.868 -0.1158 -0.1858  0.1149
   46CHL1  H18A 3358   2.554   2.413   7.764  5.7775  0.1568 -0.7268
   46CHL1  H18B 3359   2.673   2.469   7.879 -0.1576  1.3403 -1.7914
   46CHL1  H18C 3360   2.531   2.376   7.944 -0.7403 -0.0277 -0.0001
   46CHL1   C12 3361   2.350   2.579   7.814  0.9760 -0.1151 -0.4482
   46CHL1  H12A 3362   2.297   2.501   7.872 -0.8402  0.0527 -1.8237
   46CHL1  H12B 3363   2.295   2.674   7.831  0.1539 -0.6909  0.1614
   46CHL1   C11 3364   2.342   2.535   7.668 -0.0826 -0.0459  0.6047
   46CHL1  H11A 3365   2.379   2.432   7.649  0.0143 -0.1856  1.5359
   46CHL1  H11B 3366   2.238   2.541   7.630  0.3076 -1.8147 -0.7929
   46CHL1    C9 3367   2.435   2.634   7.579  0.5659 -0.3985 -0.0399
   46CHL1    H9 3368   2.381   2.731   7.578  1.2009 -0.0371 -1.6025
   46CHL1   C10 3369   2.440   2.590   7.427  0.3569  0.5382  0.5441
   46CHL1   C19 3370   2.502   2.449   7.416  0.6293  0.1761  0.0919
   46CHL1  H19A 3371   2.608   2.448   7.448  1.2596  0.3859 -1.9292
   46CHL1  H19B 3372   2.435   2.376   7.466  1.1812  1.6683  3.0885
   46CHL1  H19C 3373   2.519   2.423   7.309  1.1343 -0.0924  0.2360
   46CHL1    C1 3374   2.299   2.586   7.373 -0.2991 -0.5122 -0.3274
   46CHL1   H1A 3375   2.252   2.501   7.427 -0.9096 -0.5181 -0.8638
   46CHL1   H1B 3376   2.252   2.683   7.398  0.6245 -0.2050  0.2341
   46CHL1    C2 3377   2.291   2.575   7.217 -0.3566 -0.1073 -0.2548
   46CHL1   H2A 3378   2.188   2.585   7.176 -0.1127  1.0561 -0.6015
   46CHL1   H2B 3379   2.327   2.472   7.194 -2.0794 -1.1514  1.5619
   46CHL1   C20 3380   2.464   2.590   8.136  0.6057 -0.4115  0.9161
   46CHL1   H20 3381   2.463   2.480   8.121 -2.5364 -0.1297 -1.4379
   46CHL1   C21 3382   2.311   2.626   8.157 -0.2849 -0.3850  0.0543
   46CHL1  H21A 3383   2.272   2.554   8.232  0.0684 -0.0636  0.5448
   46CHL1  H21B 3384   2.258   2.603   8.062 -0.5319  1.2218 -0.1991
   46CHL1  H21C 3385   2.298   2.733   8.184 -1.4413 -0.5334  0.1309
   46CHL1   C22 3386   2.551   2.621   8.268  0.5178  0.6938 -0.3040
   46CHL1  H22A 3387   2.654   2.590   8.241  0.0290 -0.3653 -0.9734
   46CHL1  H22B 3388   2.537   2.726   8.300  1.1535  0.1112  1.9627
   46CHL1   C23 3389   2.511   2.527   8.385  0.1228 -0.6385 -0.6267
   46CHL1  H23A 3390   2.403   2.539   8.407  0.5054 -0.9049  1.4519
   46CHL1  H23B 3391   2.507   2.425   8.341  1.0710 -1.0978  0.3346
   46CHL1   C24 3392   2.610   2.533   8.498  0.4092 -0.4167 -0.4495
   46CHL1  H24A 3393   2.708   2.502   8.455  0.7521 -0.2395  0.2049
   46CHL1  H24B 3394   2.615   2.637   8.534 -1.6035 -1.3182  2.5636
   46CHL1   C25 3395   2.574   2.438   8.615  0.3146  0.4894 -0.3429
   46CHL1   H25 3396   2.475   2.470   8.653  1.1400  1.7918  0.7853
   46CHL1   C26 3397   2.559   2.288   8.565 -0.8052 -0.4842 -0.2999
   46CHL1  H26A 3398   2.651   2.255   8.512 -0.5126  0.2164 -0.2406
   46CHL1  H26B 3399   2.545   2.219   8.650  1.3477  0.3361  0.7554
   46CHL1  H26C 3400   2.471   2.285   8.497 -0.2842 -2.1785 -0.9195
   46CHL1   C27 3401   2.679   2.442   8.735  0.5719 -0.1221 -0.7234
   46CHL1  H27A 3402   2.680   2.547   8.768  0.5069 -0.2034 -0.4652
   46CHL1  H27B 3403   2.645   2.372   8.814  0.6339  0.5102 -0.1371
   46CHL1  H27C 3404   2.773   2.402   8.690  0.5759 -0.8450 -0.0969
   47CHL1    C3 3405   1.569   2.700   6.719 -0.1741  0.2942 -0.3175
   47CHL1    H3 3406   1.560   2.809   6.736  1.9804  0.6909 -1.5849
   47CHL1    O3 3407   1.605   2.683   6.585  0.3536 -0.0620 -0.3031
   47CHL1   H3' 3408   1.662   2.606   6.582  0.2352 -0.1202 -1.6191
   47CHL1    C4 3409   1.675   2.631   6.813  0.0700 -0.0977 -0.6284
   47CHL1   H4A 3410   1.671   2.527   6.775  3.4754 -1.3179  2.0884
   47CHL1   H4B 3411   1.773   2.674   6.784 -1.1197  3.6237  0.5037
   47CHL1    C5 3412   1.640   2.634   6.963 -0.0682  0.2220  0.3701
   47CHL1    C6 3413   1.713   2.696   7.055  0.2746  0.5712 -0.4405
   47CHL1    H6 3414   1.804   2.746   7.019  1.1837 -0.1341  0.8370
   47CHL1    C7 3415   1.676   2.707   7.201  0.4322 -0.0548  0.0914
   47CHL1   H7A 3416   1.770   2.686   7.256  0.4179 -0.4537 -0.0344
   47CHL1   H7B 3417   1.635   2.806   7.230 -0.5678 -1.0472  2.1865
   47CHL1    C8 3418   1.572   2.602   7.249 -0.3464 -0.3295  1.0901
   47CHL1    H8 3419   1.631   2.508   7.253 -0.2140 -0.2490  1.0478
   47CHL1   C14 3420   1.518   2.624   7.382  0.8746  0.7388 -0.2421
   47CHL1   H14 3421   1.484   2.730   7.386  2.2086  1.1225  2.3733
   47CHL1   C15 3422   1.622   2.650   7.494 -0.2206 -0.7996 -0.1560
   47CHL1  H15A 3423   1.694   2.568   7.477  1.4482  0.7865 -0.9167
   47CHL1  H15B 3424   1.681   2.744   7.484 -0.8846 -0.0529  2.4468
   47CHL1   C16 3425   1.534   2.625   7.619 -0.3635  1.1296  0.0612
   47CHL1  H16A 3426   1.591   2.552   7.680 -1.9252  0.0865  0.3071
   47CHL1  H16B 3427   1.533   2.720   7.675 -1.7915 -0.2653  2.4942
   47CHL1   C17 3428   1.388   2.589   7.575  0.2334 -0.3532 -0.3795
   47CHL1   H17 3429   1.340   2.690   7.573  1.0373  0.0179 -1.3568
   47CHL1   C13 3430   1.413   2.527   7.435  0.7292  0.0643  0.8787
   47CHL1   C18 3431   1.477   2.388   7.457 -0.9792  0.6686 -0.2453
   47CHL1  H18A 3432   1.506   2.341   7.361 -0.4399 -0.4150  0.4340
   47CHL1  H18B 3433   1.568   2.387   7.522 -0.2344  4.7456 -1.0960
   47CHL1  H18C 3434   1.401   2.322   7.503 -0.2302 -0.6918 -0.9325
   47CHL1   C12 3435   1.293   2.533   7.337  0.0006 -0.1205  0.2192
   47CHL1  H12A 3436   1.202   2.476   7.365  0.5641 -0.2901  1.7386
   47CHL1  H12B 3437   1.263   2.640   7.325  1.5387  0.3596  0.5500
   47CHL1   C11 3438   1.344   2.496   7.196 -0.0836  0.1247  0.3313
   47CHL1  H11A 3439   1.384   2.392   7.201 -1.1357 -0.4545 -2.4802
   47CHL1  H11B 3440   1.273   2.494   7.111 -0.2506  0.4682  0.4628
   47CHL1    C9 3441   1.461   2.582   7.145 -0.2021 -0.0032  0.4170
   47CHL1    H9 3442   1.419   2.685   7.147  1.1413  0.6501 -2.4313
   47CHL1   C10 3443   1.507   2.567   6.993 -0.5814 -0.4082  0.0283
   47CHL1   C19 3444   1.525   2.408   6.968 -0.4429 -0.5534  0.2483
   47CHL1  H19A 3445   1.551   2.391   6.862 -0.0666  0.2341  0.2073
   47CHL1  H19B 3446   1.607   2.364   7.028 -0.6125 -0.6107  0.4392
   47CHL1  H19C 3447   1.431   2.355   6.993 -0.2321  0.1809  2.7353
   47CHL1    C1 3448   1.397   2.628   6.898 -0.3707  0.0189 -0.8169
   47CHL1   H1A 3449   1.314   2.556   6.915  0.2647 -0.0312  2.4436
   47CHL1   H1B 3450   1.383   2.732   6.933 -2.2415 -0.9205  1.4446
   47CHL1    C2 3451   1.430   2.633   6.750 -0.4943 -0.5460  0.0619
   47CHL1   H2A 3452   1.352   2.696   6.701 -0.1922 -2.0708 -2.5111
   47CHL1   H2B 3453   1.439   2.528   6.712  0.9241 -0.6162  0.5479
   47CHL1   C20 3454   1.310   2.516   7.681 -0.1150 -0.2826 -0.1099
   47CHL1   H20 3455   1.348   2.411   7.679  3.3203  0.8862 -0.1670
   47CHL1   C21 3456   1.158   2.525   7.643  0.3399 -0.3871 -0.0661
   47CHL1  H21A 3457   1.091   2.473   7.715 -1.2149 -1.6965 -2.3883
   47CHL1  H21B 3458   1.128   2.471   7.551 -1.6814  2.6062 -1.2484
   47CHL1  H21C 3459   1.117   2.628   7.638 -1.0154 -0.9816 -1.8893
   47CHL1   C22 3460   1.342   2.572   7.830  0.0196  0.1910 -0.5542
   47CHL1  H22A 3461   1.444   2.537   7.857 -0.5426 -0.8303  0.2692
   47CHL1  H22B 3462   1.346   2.683   7.832 -0.7841  0.2104  0.1760
   47CHL1   C23 3463   1.245   2.516   7.933  0.0411 -1.0534  0.0783
   47CHL1  H23A 3464   1.141   2.553   7.917 -0.0152 -1.7259 -1.1854
   47CHL1  H23B 3465   1.240   2.407   7.913 -1.8589 -1.0026  0.1518
   47CHL1   C24 3466   1.278   2.551   8.082  0.0335  0.0057 -0.6405
   47CHL1  H24A 3467   1.201   2.511   8.153  0.9463 -0.2135  0.2388
   47CHL1  H24B 3468   1.374   2.501   8.106 -1.2944 -0.7951  3.5358
   47CHL1   C25 3469   1.297   2.701   8.128  0.0235 -0.1670 -0.3019
   47CHL1   H25 3470   1.380   2.754   8.077 -0.0828 -0.7292 -1.0588
   47CHL1   C26 3471   1.177   2.792   8.106  0.3042 -0.7183  0.3300
   47CHL1  H26A 3472   1.138   2.784   8.002 -0.8442 -1.9951  0.8361
   47CHL1  H26B 3473   1.099   2.763   8.179 -0.3230  1.7232  0.6847
   47CHL1  H26C 3474   1.194   2.900   8.128 -3.2465  0.2229 -1.1662
   47CHL1   C27 3475   1.352   2.698   8.277  0.1897 -0.8696  0.5979
   47CHL1  H27A 3476   1.281   2.640   8.340  0.5048 -1.1241  0.7253
   47CHL1  H27B 3477   1.442   2.632   8.276  0.3730 -0.6314 -2.3066
   47CHL1  H27C 3478   1.372   2.791   8.335  0.1496 -0.2468 -0.3836
   48CHL1    C3 3479   4.767   4.774   6.471  0.1641  0.9348  0.0254
   48CHL1    H3 3480   4.786   4.671   6.507  3.7868  1.6389  0.3720
   48CHL1    O3 3481   4.744   4.754   6.335  0.1646 -0.4058 -0.3297
   48CHL1   H3' 3482   4.693   4.832   6.312  0.9009 -0.0245 -0.6760
   48CHL1    C4 3483   4.653   4.838   6.555  0.6704  0.5807 -0.8557
   48CHL1   H4A 3484   4.625   4.941   6.523  0.0843  0.9215  0.6633
   48CHL1   H4B 3485   4.571   4.767   6.536 -0.4985  1.7511 -0.3013
   48CHL1    C5 3486   4.694   4.851   6.694  0.0447  0.2656  0.2514
   48CHL1    C6 3487   4.616   4.794   6.787  0.5027 -0.2608 -0.3431
   48CHL1    H6 3488   4.540   4.721   6.755 -1.4942  0.9448  1.5983
   48CHL1    C7 3489   4.652   4.789   6.932  0.5802  0.2767 -0.0418
   48CHL1   H7A 3490   4.561   4.806   6.994  0.3338  1.7736 -0.8039
   48CHL1   H7B 3491   4.700   4.690   6.948  0.4098  0.0424 -0.9715
   48CHL1    C8 3492   4.759   4.889   6.968 -0.2549  0.0000 -0.2575
   48CHL1    H8 3493   4.706   4.987   6.961 -0.4951 -0.1228 -0.1332
   48CHL1   C14 3494   4.811   4.872   7.111  0.5282 -0.0812  0.4284
   48CHL1   H14 3495   4.867   4.776   7.112 -0.3821 -0.6327  3.8413
   48CHL1   C15 3496   4.712   4.848   7.227  0.4777  0.5502  0.1723
   48CHL1  H15A 3497   4.642   4.934   7.230 -1.6727 -0.8845 -4.3814
   48CHL1  H15B 3498   4.661   4.749   7.220  4.3007 -1.3458 -3.7951
   48CHL1   C16 3499   4.814   4.853   7.341  0.1286  0.2559 -0.4625
   48CHL1  H16A 3500   4.765   4.900   7.429  0.2460 -2.3434  1.0286
   48CHL1  H16B 3501   4.836   4.748   7.369 -1.3049 -0.0133 -0.3263
   48CHL1   C17 3502   4.943   4.932   7.301  0.7641 -0.4572  1.1029
   48CHL1   H17 3503   5.024   4.856   7.296  0.0805 -1.1138 -0.2235
   48CHL1   C13 3504   4.916   4.983   7.159  0.2575 -0.3840 -0.3377
   48CHL1   C18 3505   4.852   5.130   7.164 -0.4308  0.1055  0.1163
   48CHL1  H18A 3506   4.914   5.219   7.188 -0.1590  0.6212 -2.3385
   48CHL1  H18B 3507   4.800   5.152   7.068  1.0918 -1.1624 -1.0495
   48CHL1  H18C 3508   4.780   5.133   7.248 -0.1790  2.8887  0.2796
   48CHL1   C12 3509   5.034   4.966   7.056  0.1656  0.3835 -0.1065
   48CHL1  H12A 3510   5.115   5.039   7.080 -0.4137  0.7053  0.8880
   48CHL1  H12B 3511   5.079   4.866   7.074 -0.1064  0.2432 -0.2108
   48CHL1   C11 3512   4.981   4.993   6.910 -0.2014  0.1777 -0.4889
   48CHL1  H11A 3513   4.958   5.102   6.912 -1.4652 -0.0918  0.2171
   48CHL1  H11B 3514   5.067   4.987   6.839 -1.8330 -1.9443 -2.3433
   48CHL1    C9 3515   4.871   4.900   6.863  0.6960  0.2024 -0.0672
   48CHL1    H9 3516   4.928   4.805   6.866 -2.4354 -1.7889 -0.6701
   48CHL1   C10 3517   4.823   4.925   6.717 -0.1544  0.0492 -0.5407
   48CHL1   C19 3518   4.787   5.074   6.698  0.2047  0.7842 -0.5382
   48CHL1  H19A 3519   4.877   5.139   6.701 -0.7761  2.1601 -0.1066
   48CHL1  H19B 3520   4.729   5.101   6.607 -1.9351 -0.0196  0.5456
   48CHL1  H19C 3521   4.737   5.106   6.792 -1.1987 -0.2672 -0.9130
   48CHL1    C1 3522   4.938   4.883   6.615  0.4905  0.3450 -0.7558
   48CHL1   H1A 3523   5.021   4.954   6.631  1.6514 -1.4926  1.9416
   48CHL1   H1B 3524   4.957   4.783   6.662  0.3182  1.3188  1.4564
   48CHL1    C2 3525   4.892   4.866   6.475  0.1903 -0.1824  0.1532
   48CHL1   H2A 3526   4.972   4.820   6.413 -0.0355  0.3394 -0.5358
   48CHL1   H2B 3527   4.859   4.957   6.420  2.3661  2.0893  2.4771
   48CHL1   C20 3528   5.007   5.030   7.408 -0.7110  0.3932 -0.2109
   48CHL1   H20 3529   4.942   5.120   7.416 -1.2411  0.0951 -1.0766
   48CHL1   C21 3530   5.147   5.076   7.377  0.1931 -0.0980  0.1212
   48CHL1  H21A 3531   5.174   5.168   7.434  0.9647  1.4380 -2.6352
   48CHL1  H21B 3532   5.139   5.114   7.273 -0.8836  0.8603  0.5369
   48CHL1  H21C 3533   5.223   4.995   7.376 -0.2843 -0.5988  2.0466
   48CHL1   C22 3534   5.006   4.980   7.555  0.5070  0.0016 -0.8916
   48CHL1  H22A 3535   5.062   5.054   7.616  1.2231 -0.0946 -1.4327
   48CHL1  H22B 3536   4.903   4.966   7.595 -0.2470 -0.0099 -2.7657
   48CHL1   C23 3537   5.083   4.842   7.580 -0.1014 -0.1296  0.0312
   48CHL1  H23A 3538   5.028   4.769   7.518  0.0574 -1.0415  0.9584
   48CHL1  H23B 3539   5.190   4.846   7.547 -0.5912 -1.2180 -1.7408
   48CHL1   C24 3540   5.086   4.802   7.733 -0.4315 -0.1475  0.0296
   48CHL1  H24A 3541   5.161   4.862   7.787 -1.1254 -0.7868  1.7632
   48CHL1  H24B 3542   4.979   4.819   7.760 -0.3369 -0.1376  0.3897
   48CHL1   C25 3543   5.108   4.656   7.762 -0.6743 -0.8675  0.3384
   48CHL1   H25 3544   5.198   4.624   7.705 -0.5163  0.6668 -0.3052
   48CHL1   C26 3545   5.159   4.621   7.905  0.0938 -0.3084  0.5326
   48CHL1  H26A 3546   5.237   4.690   7.943  0.0519 -1.4508  2.7797
   48CHL1  H26B 3547   5.067   4.642   7.965  1.0730  1.4764  1.4428
   48CHL1  H26C 3548   5.183   4.512   7.908 -0.3379 -0.4819 -1.6690
   48CHL1   C27 3549   4.989   4.573   7.711  0.2140 -0.0929  0.0904
   48CHL1  H27A 3550   4.903   4.597   7.778  0.2265  0.6810 -0.1680
   48CHL1  H27B 3551   4.967   4.582   7.602 -2.2850 -1.0997  0.4707
   48CHL1  H27C 3552   5.014   4.467   7.734  0.5840  0.2099  1.1034
   49CHL1    C3 3553   3.892   6.205   6.759 -0.1458 -0.3147  0.2803
   49CHL1    H3 3554   3.988   6.259   6.747 -0.3897  0.1543  0.4524
   49CHL1    O3 3555   3.860   6.131   6.642 -0.2183 -0.1555 -0.0436
   49CHL1   H3' 3556   3.768   6.108   6.656  0.3607 -1.4190  1.9784
   49CHL1    C4 3557   3.900   6.104   6.876 -0.1627  0.0178 -0.9517
   49CHL1   H4A 3558   3.816   6.031   6.875 -0.1857  0.0520 -2.2993
   49CHL1   H4B 3559   3.993   6.052   6.846 -0.7291  0.0476 -2.8371
   49CHL1    C5 3560   3.914   6.180   7.004 -0.1961  0.4187 -0.5031
   49CHL1    C6 3561   4.025   6.165   7.086 -0.1932  0.9350 -0.0601
   49CHL1    H6 3562   4.106   6.099   7.051 -0.1495  1.2366 -0.5301
   49CHL1    C7 3563   4.029   6.222   7.219  0.3204  0.6422 -0.0144
   49CHL1   H7A 3564   4.065   6.142   7.286 -0.7500 -0.0361 -0.2237
   49CHL1   H7B 3565   4.107   6.301   7.219 -1.3098  2.3399 -1.9865
   49CHL1    C8 3566   3.900   6.282   7.269 -0.5158 -0.5844  0.0921
   49CHL1    H8 3567   3.831   6.198   7.292 -0.0713 -0.7750  0.7528
   49CHL1   C14 3568   3.927   6.371   7.394  0.5591  0.3052 -0.5704
   49CHL1   H14 3569   3.991   6.456   7.363  1.8827  0.2043  1.7620
   49CHL1   C15 3570   4.005   6.309   7.517 -0.2548  0.0848 -0.1967
   49CHL1  H15A 3571   3.966   6.205   7.523 -1.5822  0.5679 -0.3828
   49CHL1  H15B 3572   4.116   6.296   7.510 -0.2841 -0.4871  0.3066
   49CHL1   C16 3573   3.975   6.398   7.641 -0.4408  0.6478 -0.4854
   49CHL1  H16A 3574   3.940   6.338   7.728  1.1102 -0.9589 -0.9261
   49CHL1  H16B 3575   4.057   6.467   7.669 -0.7367  0.0999  1.8125
   49CHL1   C17 3576   3.866   6.502   7.592  0.3627 -0.0448 -0.6569
   49CHL1   H17 3577   3.920   6.592   7.556  0.5573  0.0633 -0.1115
   49CHL1   C13 3578   3.802   6.431   7.462  0.4756  0.2749  0.0607
   49CHL1   C18 3579   3.698   6.322   7.508 -0.1695  0.6080  0.9366
   49CHL1  H18A 3580   3.752   6.259   7.582  0.8781 -0.0410 -0.3440
   49CHL1  H18B 3581   3.616   6.374   7.561 -2.3396 -1.0887 -0.6516
   49CHL1  H18C 3582   3.641   6.264   7.432  1.7569  2.0248 -1.7202
   49CHL1   C12 3583   3.740   6.522   7.357  0.2939  0.3362 -0.0087
   49CHL1  H12A 3584   3.649   6.575   7.393 -0.9573 -1.5874 -0.2548
   49CHL1  H12B 3585   3.814   6.602   7.339  1.3871 -0.3420  1.3478
   49CHL1   C11 3586   3.707   6.449   7.225 -0.1662  0.0433 -0.0166
   49CHL1  H11A 3587   3.626   6.379   7.252  1.2047 -1.2211  0.8532
   49CHL1  H11B 3588   3.677   6.523   7.147  1.7273 -0.1915 -1.0114
   49CHL1    C9 3589   3.826   6.362   7.167 -0.9933 -0.5299 -0.0509
   49CHL1    H9 3590   3.895   6.444   7.138 -2.6645  0.5596 -0.9815
   49CHL1   C10 3591   3.802   6.282   7.038 -0.4311 -0.4836  0.3909
   49CHL1   C19 3592   3.679   6.202   7.066  0.7938  0.2122 -0.5476
   49CHL1  H19A 3593   3.593   6.272   7.061  0.8160  0.4556  1.7050
   49CHL1  H19B 3594   3.652   6.133   6.984  0.1064 -1.3379  0.9469
   49CHL1  H19C 3595   3.686   6.142   7.159  0.9358  1.5905  0.3527
   49CHL1    C1 3596   3.792   6.381   6.921  0.3740 -0.2926  0.4250
   49CHL1   H1A 3597   3.710   6.455   6.936  0.8873  1.2532 -3.7418
   49CHL1   H1B 3598   3.890   6.433   6.917  1.1390 -1.8183 -1.7661
   49CHL1    C2 3599   3.775   6.305   6.789 -0.4959  0.2172  0.8314
   49CHL1   H2A 3600   3.774   6.389   6.717 -0.2892 -0.2684  0.2554
   49CHL1   H2B 3601   3.676   6.256   6.778  0.0178 -0.2336 -2.4263
   49CHL1   C20 3602   3.770   6.544   7.699  0.2330  0.2060 -0.8133
   49CHL1   H20 3603   3.708   6.455   7.725 -0.7276  0.3228 -2.5978
   49CHL1   C21 3604   3.667   6.655   7.658  0.5971  1.1870  0.3924
   49CHL1  H21A 3605   3.725   6.737   7.609  1.6349  0.6993  0.7919
   49CHL1  H21B 3606   3.623   6.718   7.738  1.7010  1.8758  0.4783
   49CHL1  H21C 3607   3.591   6.602   7.596  1.4150  1.1276 -0.5858
   49CHL1   C22 3608   3.832   6.589   7.835  0.1930  0.3562 -0.1400
   49CHL1  H22A 3609   3.752   6.588   7.912 -0.0032 -0.4285 -0.3487
   49CHL1  H22B 3610   3.908   6.516   7.869  0.5314 -0.0203 -1.6435
   49CHL1   C23 3611   3.899   6.728   7.844  0.0528 -0.2911  0.4578
   49CHL1  H23A 3612   3.978   6.723   7.766 -0.9213 -0.1619 -0.5570
   49CHL1  H23B 3613   3.829   6.811   7.821 -0.1438 -0.9719 -1.5171
   49CHL1   C24 3614   3.958   6.769   7.987  0.4751 -0.7864  0.2426
   49CHL1  H24A 3615   4.013   6.675   8.012  2.3157 -0.2312 -1.5945
   49CHL1  H24B 3616   4.034   6.850   7.977 -2.1887  1.8053  0.5259
   49CHL1   C25 3617   3.854   6.821   8.092 -0.0550 -0.8548  1.2834
   49CHL1   H25 3618   3.772   6.748   8.105  0.7595 -1.6881  1.8711
   49CHL1   C26 3619   3.929   6.825   8.229 -0.3494 -0.1815  0.2395
   49CHL1  H26A 3620   3.958   6.721   8.255 -0.3016 -0.2452 -0.0654
   49CHL1  H26B 3621   4.026   6.879   8.222 -0.1703 -0.4612  0.5309
   49CHL1  H26C 3622   3.868   6.863   8.313  1.1842  0.5227  1.0372
   49CHL1   C27 3623   3.792   6.956   8.053 -0.1129  0.1867  0.5295
   49CHL1  H27A 3624   3.724   6.990   8.134  0.3262  1.7052  0.2863
   49CHL1  H27B 3625   3.864   7.037   8.029 -0.3394  0.8722  2.0899
   49CHL1  H27C 3626   3.733   6.941   7.960 -0.6249 -0.6256  0.9906
   50CHL1    C3 3627   4.594   0.873   6.917  0.0392  1.0899  0.1149
   50CHL1    H3 3628   4.640   0.972   6.939  0.6564  0.8725 -0.1891
   50CHL1    O3 3629   4.587   0.873   6.770  0.8454  0.0222 -0.0669
   50CHL1   H3' 3630   4.555   0.954   6.731 -2.1982 -1.0185  0.0635
   50CHL1    C4 3631   4.680   0.751   6.961 -0.4751 -0.0643 -0.4165
   50CHL1   H4A 3632   4.641   0.654   6.922 -1.6557  0.3120 -0.1938
   50CHL1   H4B 3633   4.778   0.778   6.917 -1.1780  1.5428 -1.0328
   50CHL1    C5 3634   4.685   0.746   7.113  0.1421  0.1789 -0.3390
   50CHL1    C6 3635   4.806   0.744   7.174  0.3365  0.4677  0.0300
   50CHL1    H6 3636   4.901   0.744   7.118  1.1298 -0.9518  1.3236
   50CHL1    C7 3637   4.814   0.721   7.321 -0.1710 -0.0985 -0.6036
   50CHL1   H7A 3638   4.887   0.639   7.341  0.5812  0.7477  0.1736
   50CHL1   H7B 3639   4.856   0.808   7.376 -1.6664 -0.2619  0.8374
   50CHL1    C8 3640   4.692   0.677   7.389  0.0436 -0.9731 -0.0659
   50CHL1    H8 3641   4.684   0.567   7.372  1.4198 -1.0351 -0.3149
   50CHL1   C14 3642   4.706   0.686   7.539 -0.4745  0.1112 -0.0082
   50CHL1   H14 3643   4.723   0.795   7.547 -1.0749  0.4797 -3.4357
   50CHL1   C15 3644   4.825   0.624   7.615  0.1426 -0.1396 -0.0561
   50CHL1  H15A 3645   4.858   0.522   7.585  0.0120  0.2684 -1.6238
   50CHL1  H15B 3646   4.917   0.681   7.589  0.5006 -0.0975  1.2620
   50CHL1   C16 3647   4.789   0.629   7.765 -0.8540  0.2611  0.5257
   50CHL1  H16A 3648   4.814   0.533   7.815 -0.4054  0.4352  0.6347
   50CHL1  H16B 3649   4.838   0.711   7.821  1.1478  0.7703 -1.9211
   50CHL1   C17 3650   4.635   0.649   7.760  0.0901 -0.2930 -0.1671
   50CHL1   H17 3651   4.617   0.758   7.775  1.5687 -0.1957  1.0002
   50CHL1   C13 3652   4.585   0.635   7.613 -0.6156 -0.2559  0.5744
   50CHL1   C18 3653   4.558   0.483   7.588 -0.0405 -0.0728  0.0730
   50CHL1  H18A 3654   4.552   0.452   7.482  0.0757  1.0243 -0.2606
   50CHL1  H18B 3655   4.643   0.426   7.632 -0.5705  0.0020  1.2046
   50CHL1  H18C 3656   4.462   0.451   7.633  0.0686 -0.8767 -0.2616
   50CHL1   C12 3657   4.469   0.726   7.568 -0.7509  0.5825  0.1519
   50CHL1  H12A 3658   4.380   0.687   7.621 -1.0157  0.8161 -0.1156
   50CHL1  H12B 3659   4.464   0.832   7.601  0.3029  0.9346 -0.7781
   50CHL1   C11 3660   4.433   0.710   7.423  0.2061  0.0665  0.2841
   50CHL1  H11A 3661   4.398   0.609   7.395 -4.8077  1.9580 -0.8720
   50CHL1  H11B 3662   4.346   0.776   7.405 -0.5114  0.0792  3.4430
   50CHL1    C9 3663   4.559   0.753   7.337 -1.1092  0.2906 -0.0536
   50CHL1    H9 3664   4.578   0.857   7.370 -0.5796 -0.5494  2.3719
   50CHL1   C10 3665   4.549   0.739   7.185  1.0544  0.0950  0.6210
   50CHL1   C19 3666   4.484   0.601   7.152  0.0481 -0.4657 -0.2519
   50CHL1  H19A 3667   4.550   0.518   7.184 -0.1037 -1.3235 -2.1123
   50CHL1  H19B 3668   4.386   0.585   7.201 -1.6964  2.0691 -2.7533
   50CHL1  H19C 3669   4.465   0.586   7.044  1.1612 -1.7528 -0.2931
   50CHL1    C1 3670   4.462   0.852   7.132  0.2157  0.3533 -0.7343
   50CHL1   H1A 3671   4.362   0.854   7.182  0.4421 -0.8060 -0.2254
   50CHL1   H1B 3672   4.496   0.951   7.169 -1.6535  0.6696  0.2057
   50CHL1    C2 3673   4.457   0.869   6.977 -0.3507  0.2906  0.1414
   50CHL1   H2A 3674   4.399   0.962   6.957  1.8413  1.2762 -1.8792
   50CHL1   H2B 3675   4.405   0.783   6.931  0.7618 -0.3421  0.0540
   50CHL1   C20 3676   4.556   0.575   7.872  0.2606  0.8319 -0.5374
   50CHL1   H20 3677   4.574   0.468   7.848 -1.7743  0.1885  0.6736
   50CHL1   C21 3678   4.402   0.593   7.872 -0.3926  0.5309 -0.3210
   50CHL1  H21A 3679   4.365   0.565   7.973  1.1735 -1.6799 -0.3152
   50CHL1  H21B 3680   4.356   0.525   7.797  1.2162 -1.0656  0.1083
   50CHL1  H21C 3681   4.379   0.700   7.853 -2.5622  0.6104  2.4333
   50CHL1   C22 3682   4.613   0.597   8.014  0.2152 -0.0037  0.6752
   50CHL1  H22A 3683   4.568   0.523   8.084 -1.6211 -0.3656 -0.8406
   50CHL1  H22B 3684   4.723   0.589   8.010  0.1240 -2.2551  1.7523
   50CHL1   C23 3685   4.576   0.729   8.084  0.2127 -0.8582  0.7669
   50CHL1  H23A 3686   4.548   0.808   8.011  0.7823  0.6616  2.1486
   50CHL1  H23B 3687   4.485   0.702   8.141 -2.8025  1.2608 -2.7746
   50CHL1   C24 3688   4.683   0.777   8.182 -0.2374 -0.0025 -0.1433
   50CHL1  H24A 3689   4.724   0.689   8.236  2.2786  1.7631  0.9271
   50CHL1  H24B 3690   4.768   0.827   8.131  0.2957 -0.7883 -0.0400
   50CHL1   C25 3691   4.639   0.877   8.293 -0.4826 -0.7058  0.7256
   50CHL1   H25 3692   4.567   0.831   8.364 -1.2873 -0.5370  0.0304
   50CHL1   C26 3693   4.753   0.926   8.385  0.1681  0.4078 -0.0807
   50CHL1  H26A 3694   4.833   0.971   8.322  0.7821 -0.7537 -0.1475
   50CHL1  H26B 3695   4.726   1.001   8.462  2.9446  1.2574  0.1343
   50CHL1  H26C 3696   4.789   0.837   8.441 -0.5582  0.5075  0.5390
   50CHL1   C27 3697   4.565   1.002   8.238  0.0615  0.2372  0.0825
   50CHL1  H27A 3698   4.624   1.092   8.266  0.2255 -0.3320  1.6254
   50CHL1  H27B 3699   4.532   0.995   8.132  1.6476  1.4272 -0.4995
   50CHL1  H27C 3700   4.472   1.009   8.299 -0.5797  0.3025 -0.9031
   51CHL1    C3 3701   4.873   6.058   6.642  0.4988 -0.5813  0.2202
   51CHL1    H3 3702   4.853   6.165   6.667  0.2020 -0.1825 -1.5780
   51CHL1    O3 3703   4.820   6.011   6.522  0.6469  0.1295 -0.0994
   51CHL1   H3' 3704   4.896   5.986   6.469  1.3152  1.3366  0.2845
   51CHL1    C4 3705   5.027   6.044   6.628 -0.4575 -0.1261 -0.7720
   51CHL1   H4A 3706   5.054   5.942   6.594  0.8004  0.5120 -1.6978
   51CHL1   H4B 3707   5.059   6.114   6.548 -4.2767  2.5940 -0.0598
   51CHL1    C5 3708   5.102   6.086   6.749 -0.1770  0.6270 -0.7643
   51CHL1    C6 3709   5.208   6.161   6.748  0.4686  0.1794  0.2510
   51CHL1    H6 3710   5.253   6.195   6.654 -0.2196  0.8711  0.1723
   51CHL1    C7 3711   5.297   6.202   6.859  0.0503  1.1154 -0.5259
   51CHL1   H7A 3712   5.404   6.178   6.842  0.0465  1.6266 -1.2873
   51CHL1   H7B 3713   5.294   6.312   6.877 -0.8326  1.2134 -1.2356
   51CHL1    C8 3714   5.264   6.133   6.984  0.6137 -0.2863  0.1843
   51CHL1    H8 3715   5.320   6.037   6.992  1.1361  0.0513  0.6092
   51CHL1   C14 3716   5.304   6.216   7.105 -0.1185  0.1541  0.3003
   51CHL1   H14 3717   5.243   6.309   7.107  0.1257  0.3604 -1.0798
   51CHL1   C15 3718   5.451   6.254   7.115  0.5778  0.2195 -0.0658
   51CHL1  H15A 3719   5.514   6.166   7.088 -1.9526 -2.1860  1.4730
   51CHL1  H15B 3720   5.490   6.333   7.048  0.9076 -0.4607 -0.6841
   51CHL1   C16 3721   5.471   6.289   7.264  0.2081  0.2099 -0.1107
   51CHL1  H16A 3722   5.551   6.220   7.298 -0.0184  0.0069  0.0167
   51CHL1  H16B 3723   5.493   6.397   7.276 -3.5480  0.9746  0.4247
   51CHL1   C17 3724   5.338   6.249   7.333  0.2855 -0.0209 -0.0704
   51CHL1   H17 3725   5.280   6.343   7.325  2.3885  1.2989 -0.3227
   51CHL1   C13 3726   5.275   6.145   7.240 -0.1821  0.2141 -0.4168
   51CHL1   C18 3727   5.361   6.010   7.246  0.0907 -0.0067 -0.6387
   51CHL1  H18A 3728   5.342   5.955   7.341 -1.6927  0.5068 -0.6852
   51CHL1  H18B 3729   5.329   5.936   7.171  1.3091 -0.1868 -1.0001
   51CHL1  H18C 3730   5.468   6.035   7.229  0.0232 -0.4076 -1.6601
   51CHL1   C12 3731   5.124   6.122   7.251  0.3435 -0.4240 -0.7523
   51CHL1  H12A 3732   5.108   6.057   7.340  1.2732 -1.6296 -1.4503
   51CHL1  H12B 3733   5.065   6.214   7.268 -0.1049 -0.8317 -0.0491
   51CHL1   C11 3734   5.067   6.037   7.138 -0.3344 -0.3128 -0.2239
   51CHL1  H11A 3735   5.106   5.934   7.151  0.1685 -0.0033  0.8028
   51CHL1  H11B 3736   4.957   6.034   7.147 -0.3433  1.5533  0.5915
   51CHL1    C9 3737   5.110   6.102   6.996 -0.2532 -0.7086  0.4844
   51CHL1    H9 3738   5.066   6.204   6.988 -2.6304 -1.8334 -1.4818
   51CHL1   C10 3739   5.052   6.022   6.876  0.2234  0.5841  0.7031
   51CHL1   C19 3740   5.117   5.880   6.883  0.4272  0.1539 -0.3399
   51CHL1  H19A 3741   5.228   5.883   6.880  0.4465 -0.5132 -0.1492
   51CHL1  H19B 3742   5.078   5.825   6.971  0.0526 -1.0930 -1.2859
   51CHL1  H19C 3743   5.083   5.829   6.791  0.3234  0.9738 -0.7613
   51CHL1    C1 3744   4.898   6.016   6.883  0.0159 -0.1375 -0.1802
   51CHL1   H1A 3745   4.856   5.965   6.972  0.9162 -0.7535 -0.1016
   51CHL1   H1B 3746   4.868   6.122   6.897  0.3934  0.0466 -0.7499
   51CHL1    C2 3747   4.828   5.966   6.753  0.5673 -0.4737 -0.6354
   51CHL1   H2A 3748   4.720   5.986   6.767  0.9267  1.5605 -0.5721
   51CHL1   H2B 3749   4.848   5.860   6.728  1.7884  0.0867 -2.1869
   51CHL1   C20 3750   5.343   6.215   7.486  0.3095  0.4442 -0.1780
   51CHL1   H20 3751   5.359   6.105   7.494  1.8167  0.5715 -1.1320
   51CHL1   C21 3752   5.213   6.250   7.554  0.3104 -0.0008 -0.9763
   51CHL1  H21A 3753   5.200   6.180   7.639 -1.1007  0.8206 -0.4927
   51CHL1  H21B 3754   5.124   6.239   7.488 -2.4109 -2.0954  2.8414
   51CHL1  H21C 3755   5.208   6.354   7.593 -3.0050  0.0305 -1.2766
   51CHL1   C22 3756   5.452   6.302   7.543 -0.1487  0.2656  0.0608
   51CHL1  H22A 3757   5.547   6.275   7.492 -0.3746 -2.1277  0.8373
   51CHL1  H22B 3758   5.425   6.408   7.521 -0.0059  0.6195  1.5384
   51CHL1   C23 3759   5.476   6.272   7.697 -0.1426  0.1698 -0.4519
   51CHL1  H23A 3760   5.561   6.334   7.731  2.3693 -3.0022 -0.6969
   51CHL1  H23B 3761   5.380   6.282   7.752 -0.0669  0.0162 -0.2903
   51CHL1   C24 3762   5.526   6.128   7.727  0.1628  0.1603  0.0578
   51CHL1  H24A 3763   5.451   6.058   7.684  0.9661 -0.2698 -0.6541
   51CHL1  H24B 3764   5.623   6.112   7.676  0.8244  2.7595  0.4687
   51CHL1   C25 3765   5.534   6.104   7.880 -0.1198 -0.3188  0.9049
   51CHL1   H25 3766   5.429   6.107   7.917 -1.5617  1.9484 -3.0967
   51CHL1   C26 3767   5.575   5.958   7.909 -0.7435  0.0584 -0.0728
   51CHL1  H26A 3768   5.683   5.942   7.892 -0.4982  1.0539  0.4906
   51CHL1  H26B 3769   5.561   5.937   8.017  0.4781  0.6612  0.2070
   51CHL1  H26C 3770   5.501   5.886   7.867 -0.4278  0.3141 -1.0810
   51CHL1   C27 3771   5.607   6.201   7.970  0.9380  0.3524  0.8491
   51CHL1  H27A 3772   5.717   6.195   7.960  1.1271  1.7346  1.8544
   51CHL1  H27B 3773   5.574   6.306   7.952  1.8581  0.9289  2.4426
   51CHL1  H27C 3774   5.580   6.163   8.071 -0.3316  0.2536  0.4887
   52CHL1    C3 3775   6.420   0.802   6.813 -0.3166  0.3791  0.1893
   52CHL1    H3 3776   6.400   0.715   6.747 -0.3957  0.4440  0.1290
   52CHL1    O3 3777   6.463   0.898   6.725 -0.3148  0.2690 -0.0228
   52CHL1   H3' 3778   6.540   0.854   6.689  1.0761  0.1525  2.8787
   52CHL1    C4 3779   6.292   0.848   6.887  0.0227  0.4494  0.0567
   52CHL1   H4A 3780   6.297   0.954   6.918  0.7982 -0.1150  1.9501
   52CHL1   H4B 3781   6.209   0.848   6.813 -0.0789 -1.5928  0.1334
   52CHL1    C5 3782   6.259   0.759   7.010  0.2988 -0.1824  0.4116
   52CHL1    C6 3783   6.140   0.709   7.036 -0.0237 -0.1647  0.1309
   52CHL1    H6 3784   6.061   0.725   6.961 -0.2179 -0.4556  0.2712
   52CHL1    C7 3785   6.103   0.636   7.156 -0.4193  0.1981 -0.3717
   52CHL1   H7A 3786   6.004   0.669   7.195 -1.8111 -0.3143 -3.2954
   52CHL1   H7B 3787   6.091   0.527   7.137 -1.5987  0.0390  1.1890
   52CHL1    C8 3788   6.206   0.668   7.270 -0.7346  0.5332  0.0748
   52CHL1    H8 3789   6.191   0.768   7.315 -0.8706 -0.8536  3.2528
   52CHL1   C14 3790   6.182   0.574   7.395  0.8619  0.5734  0.3601
   52CHL1   H14 3791   6.206   0.474   7.355  1.1568  0.5754  0.5285
   52CHL1   C15 3792   6.036   0.566   7.438 -0.3101  0.1592  0.1018
   52CHL1  H15A 3793   5.981   0.663   7.434 -0.2155  0.3043  1.7846
   52CHL1  H15B 3794   5.982   0.490   7.378 -2.3639  0.7934  1.1027
   52CHL1   C16 3795   6.051   0.517   7.577 -0.0871  0.2051 -0.5673
   52CHL1  H16A 3796   6.002   0.591   7.644 -1.7564 -0.8042 -0.6474
   52CHL1  H16B 3797   6.009   0.416   7.593 -0.1852  0.4174  0.5532
   52CHL1   C17 3798   6.205   0.508   7.623  0.3799 -0.5607  0.1720
   52CHL1   H17 3799   6.228   0.402   7.600  0.3914 -0.9444  1.8947
   52CHL1   C13 3800   6.270   0.602   7.522  0.3516 -0.3278  0.1080
   52CHL1   C18 3801   6.244   0.749   7.563 -0.8408  0.0097  0.6552
   52CHL1  H18A 3802   6.315   0.776   7.644  1.1329 -1.7070 -0.4716
   52CHL1  H18B 3803   6.274   0.818   7.480 -1.9844 -0.1753  0.0777
   52CHL1  H18C 3804   6.139   0.770   7.593 -1.5807  0.8220 -2.2726
   52CHL1   C12 3805   6.415   0.572   7.473 -0.0002 -0.4392 -0.7884
   52CHL1  H12A 3806   6.487   0.585   7.555  0.7406 -1.0049 -1.3412
   52CHL1  H12B 3807   6.419   0.463   7.453 -1.7617 -0.3110 -1.9936
   52CHL1   C11 3808   6.453   0.660   7.349  0.1318  0.2399 -0.5669
   52CHL1  H11A 3809   6.454   0.767   7.379  0.0700  0.0769  0.0175
   52CHL1  H11B 3810   6.557   0.636   7.320  0.9917  3.8549 -0.7167
   52CHL1    C9 3811   6.354   0.650   7.231 -0.3134 -0.0545 -0.2770
   52CHL1    H9 3812   6.367   0.544   7.201  1.5291 -0.0894  0.5517
   52CHL1   C10 3813   6.384   0.737   7.105  0.2843 -0.4104 -0.1459
   52CHL1   C19 3814   6.432   0.879   7.152  0.4547  0.6566  0.4944
   52CHL1  H19A 3815   6.456   0.957   7.076  1.1766  1.4193  1.4816
   52CHL1  H19B 3816   6.354   0.919   7.221  1.3232  3.7897 -0.2219
   52CHL1  H19C 3817   6.532   0.870   7.199  0.7101 -5.3139 -0.8785
   52CHL1    C1 3818   6.489   0.671   7.015 -0.4247 -0.8133  0.1556
   52CHL1   H1A 3819   6.575   0.652   7.083 -0.4950 -1.9874 -0.0592
   52CHL1   H1B 3820   6.464   0.568   6.979  0.6724 -0.1993 -2.4518
   52CHL1    C2 3821   6.538   0.762   6.905 -0.4214  0.5744  0.5555
   52CHL1   H2A 3822   6.613   0.701   6.850  0.8003  0.2092  2.6042
   52CHL1   H2B 3823   6.591   0.850   6.947  1.9615 -0.0817 -0.9812
   52CHL1   C20 3824   6.229   0.515   7.777  0.5218  0.3087  0.1907
   52CHL1   H20 3825   6.172   0.605   7.807 -0.1767 -0.4027  1.0141
   52CHL1   C21 3826   6.380   0.522   7.808  0.6663 -0.6740 -0.2061
   52CHL1  H21A 3827   6.448   0.439   7.778  0.9077 -0.1683 -1.0820
   52CHL1  H21B 3828   6.401   0.527   7.917 -2.5789  1.1056  0.4177
   52CHL1  H21C 3829   6.420   0.615   7.763 -0.3661 -0.0937  0.0738
   52CHL1   C22 3830   6.158   0.404   7.846  0.0109 -0.1615  0.2567
   52CHL1  H22A 3831   6.061   0.371   7.803 -1.2039  2.1382  1.1803
   52CHL1  H22B 3832   6.215   0.309   7.838 -2.0491 -1.3774 -0.3661
   52CHL1   C23 3833   6.127   0.436   8.000 -0.1602 -0.4819  0.2543
   52CHL1  H23A 3834   6.228   0.437   8.046  0.3630 -2.1610 -0.8126
   52CHL1  H23B 3835   6.072   0.531   8.010  1.0144  0.0216  2.2106
   52CHL1   C24 3836   6.036   0.320   8.060 -0.0274 -0.1825  0.2621
   52CHL1  H24A 3837   5.935   0.310   8.016  0.8353 -1.9033 -1.3908
   52CHL1  H24B 3838   6.076   0.218   8.044 -0.5222 -0.3664  0.2260
   52CHL1   C25 3839   6.000   0.338   8.208 -0.0382  0.0055 -0.1647
   52CHL1   H25 3840   5.940   0.431   8.205  1.8945  1.2202 -2.0866
   52CHL1   C26 3841   5.905   0.218   8.247  0.6409 -0.6444 -0.2511
   52CHL1  H26A 3842   5.817   0.219   8.179  1.9532 -0.4669 -1.9736
   52CHL1  H26B 3843   5.960   0.121   8.242 -0.9794 -1.5800 -0.1163
   52CHL1  H26C 3844   5.874   0.240   8.351 -1.0722  0.6377 -1.0020
   52CHL1   C27 3845   6.121   0.346   8.304 -0.6054 -0.8786  0.0682
   52CHL1  H27A 3846   6.085   0.355   8.409  2.4533 -1.9892  1.2655
   52CHL1  H27B 3847   6.175   0.249   8.310 -1.2951 -1.4273 -2.0565
   52CHL1  H27C 3848   6.193   0.429   8.291 -0.2718 -1.0802  0.6297
   53CHL1    C3 3849   2.146   4.165   7.072 -0.3771 -0.3491 -0.1970
   53CHL1    H3 3850   2.048   4.144   7.119 -0.7734 -0.1742 -0.9287
   53CHL1    O3 3851   2.139   4.116   6.937 -0.0236 -0.1660 -0.5756
   53CHL1   H3' 3852   2.201   4.043   6.942 -0.3780 -0.6072 -2.2071
   53CHL1    C4 3853   2.156   4.318   7.086  0.1386 -0.3095  0.1731
   53CHL1   H4A 3854   2.237   4.365   7.026 -0.8462 -0.2542 -1.1192
   53CHL1   H4B 3855   2.060   4.348   7.039  1.4360  0.1834 -2.2421
   53CHL1    C5 3856   2.166   4.357   7.233 -0.0411 -0.5493 -0.1719
   53CHL1    C6 3857   2.075   4.438   7.281 -0.5964 -0.3285  1.0440
   53CHL1    H6 3858   1.996   4.473   7.213  1.3567 -0.1962 -1.1944
   53CHL1    C7 3859   2.079   4.491   7.421  0.4073 -0.2289 -0.0907
   53CHL1   H7A 3860   2.056   4.599   7.431 -4.3156 -1.1133 -0.1164
   53CHL1   H7B 3861   2.002   4.435   7.478  1.7365 -0.7360  1.2317
   53CHL1    C8 3862   2.214   4.460   7.496 -0.6628  0.0499 -0.2053
   53CHL1    H8 3863   2.286   4.532   7.451  0.0792  0.3848  1.4618
   53CHL1   C14 3864   2.198   4.480   7.644  0.2084  0.6656  1.0051
   53CHL1   H14 3865   2.130   4.398   7.676 -1.1816  1.5412  0.3504
   53CHL1   C15 3866   2.140   4.612   7.687 -0.3852 -0.1657  0.0644
   53CHL1  H15A 3867   2.198   4.692   7.637 -0.8653  0.8661  1.1492
   53CHL1  H15B 3868   2.031   4.623   7.668 -0.7764 -2.4817  0.7591
   53CHL1   C16 3869   2.178   4.611   7.840  0.6765  0.8422 -0.2865
   53CHL1  H16A 3870   2.220   4.709   7.872  1.6241 -0.4480  2.6256
   53CHL1  H16B 3871   2.089   4.591   7.904 -0.1269  0.0935 -1.6263
   53CHL1   C17 3872   2.278   4.493   7.868  0.2040  0.0891  0.4997
   53CHL1   H17 3873   2.216   4.408   7.902  0.5875 -0.4593 -0.1446
   53CHL1   C13 3874   2.321   4.458   7.724  0.5543  0.0049 -0.5014
   53CHL1   C18 3875   2.424   4.564   7.669 -0.2591 -0.4702  0.0508
   53CHL1  H18A 3876   2.385   4.667   7.671 -0.1927 -0.4392 -0.3510
   53CHL1  H18B 3877   2.514   4.557   7.735 -0.3011  0.1487  0.1687
   53CHL1  H18C 3878   2.455   4.542   7.565 -0.0701  0.2685 -0.0479
   53CHL1   C12 3879   2.366   4.310   7.704 -0.1323  0.0167  0.3534
   53CHL1  H12A 3880   2.456   4.285   7.765  0.9376 -0.0690 -1.1947
   53CHL1  H12B 3881   2.283   4.249   7.745  1.4123 -0.8705  2.2218
   53CHL1   C11 3882   2.384   4.276   7.555 -0.2093  0.1926 -0.8023
   53CHL1  H11A 3883   2.476   4.326   7.518 -0.6374  0.8098 -1.0472
   53CHL1  H11B 3884   2.412   4.170   7.544 -1.4202 -0.2543  0.2897
   53CHL1    C9 3885   2.265   4.320   7.463  0.4968 -0.8169 -0.8889
   53CHL1    H9 3886   2.183   4.258   7.507  2.8314 -1.7649  2.2983
   53CHL1   C10 3887   2.275   4.294   7.311 -0.4295 -0.4037  0.2051
   53CHL1   C19 3888   2.409   4.358   7.260  0.4010 -0.4016  0.4732
   53CHL1  H19A 3889   2.491   4.296   7.300  1.1915  0.7196  0.6207
   53CHL1  H19B 3890   2.410   4.360   7.149  0.1211  2.1431  0.4866
   53CHL1  H19C 3891   2.419   4.462   7.300 -1.6963 -0.2957  0.7922
   53CHL1    C1 3892   2.277   4.136   7.288  0.4620  0.5683  0.2521
   53CHL1   H1A 3893   2.347   4.075   7.347  2.2983  2.1565 -0.2358
   53CHL1   H1B 3894   2.179   4.111   7.335  0.6317 -0.2445  0.1758
   53CHL1    C2 3895   2.267   4.091   7.137  0.1939 -0.3007 -0.0965
   53CHL1   H2A 3896   2.253   3.981   7.133 -0.7402 -0.1930  0.0196
   53CHL1   H2B 3897   2.362   4.116   7.087  0.7441 -1.6559  0.2387
   53CHL1   C20 3898   2.391   4.524   7.971 -0.6358  0.1410 -1.0970
   53CHL1   H20 3899   2.453   4.610   7.936 -0.2018  0.1048 -0.4205
   53CHL1   C21 3900   2.486   4.408   7.988 -1.0231  0.2248 -0.0677
   53CHL1  H21A 3901   2.513   4.402   8.096 -4.3305 -1.5292  0.7287
   53CHL1  H21B 3902   2.573   4.419   7.920 -0.4110 -0.2799  0.6238
   53CHL1  H21C 3903   2.439   4.307   7.979  0.3298 -0.3249 -1.0484
   53CHL1   C22 3904   2.318   4.576   8.097  0.1078  0.8028 -0.0034
   53CHL1  H22A 3905   2.274   4.675   8.075  0.9849  1.9479  3.0277
   53CHL1  H22B 3906   2.239   4.501   8.118 -1.6405  2.1120 -1.7931
   53CHL1   C23 3907   2.408   4.606   8.218  0.4888  0.1336  0.6262
   53CHL1  H23A 3908   2.440   4.512   8.268  1.0288 -0.7398 -1.2806
   53CHL1  H23B 3909   2.500   4.653   8.174 -0.4729  2.0649  0.6281
   53CHL1   C24 3910   2.342   4.698   8.324 -0.1453  0.1945 -0.5372
   53CHL1  H24A 3911   2.318   4.801   8.291 -1.3134 -0.2740 -1.1781
   53CHL1  H24B 3912   2.244   4.652   8.347 -1.2096  2.7680  0.2007
   53CHL1   C25 3913   2.417   4.692   8.455 -0.3295  0.0922  0.9770
   53CHL1   H25 3914   2.417   4.584   8.482 -1.1112  0.0090  0.6441
   53CHL1   C26 3915   2.562   4.743   8.443 -0.2272 -0.7379 -0.0004
   53CHL1  H26A 3916   2.625   4.680   8.377  1.2584 -0.7039  1.3688
   53CHL1  H26B 3917   2.571   4.851   8.416  0.8461 -1.0889 -1.1003
   53CHL1  H26C 3918   2.621   4.721   8.534 -0.4504  2.1916  0.9048
   53CHL1   C27 3919   2.335   4.750   8.570 -0.9039  0.2789  0.8694
   53CHL1  H27A 3920   2.392   4.739   8.664  0.4370 -2.9925 -0.2399
   53CHL1  H27B 3921   2.313   4.857   8.548 -0.4402  0.5160  1.5553
   53CHL1  H27C 3922   2.235   4.700   8.570  0.1221 -1.8905 -1.6802
   54CHL1    C3 3923   2.828   6.127   7.037  0.7600 -0.8093  0.3475
   54CHL1    H3 3924   2.718   6.120   7.020  1.0204 -1.7935 -1.0077
   54CHL1    O3 3925   2.903   6.073   6.925  0.0098 -0.1946  0.3472
   54CHL1   H3' 3926   2.860   5.993   6.894 -2.0807  0.2724  1.8639
   54CHL1    C4 3927   2.858   6.276   7.044 -0.0106  0.1203 -0.6522
   54CHL1   H4A 3928   2.968   6.287   7.052 -0.0826  0.4913 -0.1630
   54CHL1   H4B 3929   2.842   6.325   6.945  2.2699  0.1940 -1.0079
   54CHL1    C5 3930   2.788   6.346   7.152 -0.3344  0.1101  1.2124
   54CHL1    C6 3931   2.702   6.446   7.134  0.6932  0.3602  0.1892
   54CHL1    H6 3932   2.684   6.481   7.031 -1.0111  0.5666  0.5409
   54CHL1    C7 3933   2.628   6.514   7.238 -0.5959 -0.5041 -0.0683
   54CHL1   H7A 3934   2.620   6.623   7.218  0.9644 -0.3399  0.1864
   54CHL1   H7B 3935   2.521   6.486   7.251 -0.8105  0.6171  0.6841
   54CHL1    C8 3936   2.693   6.497   7.383  0.5420 -0.7236 -0.9629
   54CHL1    H8 3937   2.790   6.552   7.386  0.0386  0.1158 -0.0324
   54CHL1   C14 3938   2.593   6.536   7.483 -0.2886  0.0801  0.0608
   54CHL1   H14 3939   2.507   6.466   7.475 -0.1134  0.1270 -2.6791
   54CHL1   C15 3940   2.545   6.683   7.477 -0.3330  0.2968  0.4506
   54CHL1  H15A 3941   2.628   6.749   7.444  0.5644  0.2511  2.5494
   54CHL1  H15B 3942   2.455   6.684   7.412 -1.4014  1.0953  1.9106
   54CHL1   C16 3943   2.503   6.709   7.624  0.7852 -0.3318  0.0522
   54CHL1  H16A 3944   2.551   6.798   7.670 -1.8269  1.0489  0.2036
   54CHL1  H16B 3945   2.394   6.729   7.628 -0.0222 -4.1200 -1.1617
   54CHL1   C17 3946   2.543   6.581   7.709  0.0725 -0.0375  0.0599
   54CHL1   H17 3947   2.457   6.515   7.683  1.3127 -1.5674 -0.1674
   54CHL1   C13 3948   2.649   6.515   7.626 -0.1133  1.0669  0.1760
   54CHL1   C18 3949   2.776   6.595   7.647  0.9179 -0.1693  0.2168
   54CHL1  H18A 3950   2.742   6.700   7.633 -0.2672 -0.4523  0.8557
   54CHL1  H18B 3951   2.808   6.583   7.753  1.5096 -4.0529 -0.3464
   54CHL1  H18C 3952   2.863   6.574   7.582 -0.3103  0.3787 -1.6243
   54CHL1   C12 3953   2.663   6.362   7.648 -0.5786  0.4754 -0.2865
   54CHL1  H12A 3954   2.696   6.325   7.747  0.9414  1.2519 -0.4901
   54CHL1  H12B 3955   2.559   6.328   7.627 -0.1334 -0.7734 -0.5483
   54CHL1   C11 3956   2.755   6.293   7.545 -0.1593 -0.0052  0.7282
   54CHL1  H11A 3957   2.858   6.322   7.575  0.0745 -0.2134  0.1462
   54CHL1  H11B 3958   2.741   6.183   7.552  0.2717 -0.1486 -0.6555
   54CHL1    C9 3959   2.721   6.345   7.399  0.4775 -0.1868 -0.5814
   54CHL1    H9 3960   2.622   6.298   7.377  1.6483 -2.5939 -0.8655
   54CHL1   C10 3961   2.819   6.293   7.291  0.7358 -0.3219  0.7969
   54CHL1   C19 3962   2.966   6.342   7.323  0.0432 -0.1779 -0.3891
   54CHL1  H19A 3963   3.043   6.328   7.245  0.5289  0.4012 -0.0143
   54CHL1  H19B 3964   2.968   6.453   7.329 -2.3408  0.0167 -2.4871
   54CHL1  H19C 3965   2.996   6.298   7.420  1.6367  0.8160 -0.4216
   54CHL1    C1 3966   2.824   6.138   7.286  0.5667 -0.4552 -0.3368
   54CHL1   H1A 3967   2.870   6.100   7.380  1.0503 -1.0451 -0.8112
   54CHL1   H1B 3968   2.718   6.105   7.286  0.9664 -1.8524 -2.8871
   54CHL1    C2 3969   2.879   6.072   7.161 -0.1941 -0.3505  0.2573
   54CHL1   H2A 3970   2.869   5.962   7.155 -2.9443  0.0225 -3.1400
   54CHL1   H2B 3971   2.987   6.096   7.174 -0.7253  2.0270  0.5928
   54CHL1   C20 3972   2.546   6.587   7.856  0.4864 -0.0899  0.3426
   54CHL1   H20 3973   2.607   6.503   7.897 -0.5858 -0.8888  0.3290
   54CHL1   C21 3974   2.404   6.571   7.924  0.4781 -0.0782 -0.0491
   54CHL1  H21A 3975   2.367   6.468   7.907  0.8120 -0.1853 -0.1331
   54CHL1  H21B 3976   2.316   6.633   7.896  0.6393 -0.7306 -2.1109
   54CHL1  H21C 3977   2.422   6.581   8.033  1.1726  0.0441 -0.1702
   54CHL1   C22 3978   2.615   6.711   7.914  0.1842 -0.4558  0.0821
   54CHL1  H22A 3979   2.715   6.724   7.868 -0.3697  1.0474 -0.7093
   54CHL1  H22B 3980   2.564   6.807   7.892 -1.7274 -1.2664  0.8358
   54CHL1   C23 3981   2.632   6.704   8.064  0.0034  0.0574 -0.0222
   54CHL1  H23A 3982   2.558   6.757   8.128 -0.1374  3.1100 -2.5809
   54CHL1  H23B 3983   2.635   6.598   8.098  0.8015 -0.2647 -1.0897
   54CHL1   C24 3984   2.761   6.776   8.105  0.2199  0.2269  0.4419
   54CHL1  H24A 3985   2.855   6.750   8.053 -0.4554 -0.2350 -0.5692
   54CHL1  H24B 3986   2.748   6.883   8.082  3.4630  0.4599 -0.5139
   54CHL1   C25 3987   2.782   6.760   8.257  0.1846 -0.0944  0.1579
   54CHL1   H25 3988   2.685   6.738   8.307 -0.8974 -1.3799 -2.4042
   54CHL1   C26 3989   2.890   6.653   8.296  0.3176 -0.5174  0.1144
   54CHL1  H26A 3990   2.991   6.675   8.254  0.5821 -1.6192  0.1747
   54CHL1  H26B 3991   2.900   6.648   8.407  0.8755  0.6399  0.1313
   54CHL1  H26C 3992   2.866   6.550   8.262  0.2992 -0.6080  0.4008
   54CHL1   C27 3993   2.832   6.894   8.313 -0.3453  0.5153 -0.2829
   54CHL1  H27A 3994   2.752   6.967   8.288  0.4787  1.7484  0.6073
   54CHL1  H27B 3995   2.838   6.883   8.423  0.5306 -0.6613 -0.4363
   54CHL1  H27C 3996   2.933   6.924   8.277 -0.0599 -0.2441 -0.1275
   55CHL1    C3 3997   2.447   0.548   7.164 -0.0578  0.4600  0.3445
   55CHL1    H3 3998   2.351   0.494   7.176 -0.1025  0.9178  2.0604
   55CHL1    O3 3999   2.474   0.573   7.021  0.6794 -0.4676 -0.3792
   55CHL1   H3' 4000   2.557   0.621   7.020  1.5110 -1.8900 -3.4616
   55CHL1    C4 4001   2.451   0.681   7.235 -0.1219 -0.5811 -0.2488
   55CHL1   H4A 4002   2.548   0.735   7.223 -0.7261  1.0501  1.9218
   55CHL1   H4B 4003   2.378   0.746   7.182  0.6190  1.4576  1.1506
   55CHL1    C5 4004   2.423   0.665   7.379 -0.9584 -0.4010  0.6050
   55CHL1    C6 4005   2.319   0.729   7.437  0.8650  0.2475 -0.3724
   55CHL1    H6 4006   2.258   0.800   7.380 -1.1114  1.3040  2.9325
   55CHL1    C7 4007   2.284   0.729   7.583 -0.1899  0.1934  0.4469
   55CHL1   H7A 4008   2.279   0.834   7.618 -2.4146  0.3824 -0.3675
   55CHL1   H7B 4009   2.181   0.692   7.602 -1.6389  3.3988 -0.8653
   55CHL1    C8 4010   2.402   0.662   7.663  0.7511  0.1796  0.6837
   55CHL1    H8 4011   2.491   0.728   7.666  0.0285  1.2837 -1.2290
   55CHL1   C14 4012   2.353   0.623   7.797  0.4591 -0.0149  0.1789
   55CHL1   H14 4013   2.277   0.545   7.776  2.3871 -1.5788 -1.2308
   55CHL1   C15 4014   2.285   0.735   7.883 -0.2872  0.7894  0.0238
   55CHL1  H15A 4015   2.342   0.826   7.909 -0.5994  0.5084  1.8110
   55CHL1  H15B 4016   2.193   0.759   7.826 -0.5482  0.1208  0.1523
   55CHL1   C16 4017   2.266   0.662   8.017  0.5640  0.0477  0.3920
   55CHL1  H16A 4018   2.301   0.734   8.094  1.2362  1.0627 -0.8571
   55CHL1  H16B 4019   2.159   0.639   8.031  0.4341  0.4605  0.0796
   55CHL1   C17 4020   2.371   0.540   8.014  0.0347  0.3710  0.1073
   55CHL1   H17 4021   2.315   0.451   7.979  0.8625 -0.7119  1.5143
   55CHL1   C13 4022   2.461   0.565   7.890  0.5540  0.2901  0.0270
   55CHL1   C18 4023   2.555   0.681   7.927  0.9703  0.0396  0.1205
   55CHL1  H18A 4024   2.639   0.633   7.983  0.9618 -0.5430 -0.3546
   55CHL1  H18B 4025   2.597   0.740   7.843 -0.4643  1.2930  0.2736
   55CHL1  H18C 4026   2.511   0.752   7.999 -0.3841 -0.9853  0.3167
   55CHL1   C12 4027   2.517   0.442   7.827  0.6219  0.0923  0.8817
   55CHL1  H12A 4028   2.602   0.405   7.888  0.7199 -1.7283 -0.3002
   55CHL1  H12B 4029   2.445   0.358   7.816 -1.0671  1.7143 -0.9321
   55CHL1   C11 4030   2.573   0.473   7.686  0.5781 -0.2716 -0.1690
   55CHL1  H11A 4031   2.637   0.564   7.693  0.6295  0.0632 -3.8362
   55CHL1  H11B 4032   2.629   0.389   7.639  1.4093  0.7431 -1.0327
   55CHL1    C9 4033   2.464   0.541   7.597 -0.2114 -0.5064  0.3850
   55CHL1    H9 4034   2.383   0.466   7.584 -0.0238 -0.6655  0.1262
   55CHL1   C10 4035   2.507   0.563   7.452 -0.7311  0.1578  0.4196
   55CHL1   C19 4036   2.648   0.624   7.449 -0.1872 -0.4962 -0.3215
   55CHL1  H19A 4037   2.670   0.715   7.508  0.2207 -0.5947 -0.3158
   55CHL1  H19B 4038   2.723   0.553   7.492 -1.3795 -1.5376  0.0603
   55CHL1  H19C 4039   2.699   0.639   7.352  0.9820  0.8211  0.4845
   55CHL1    C1 4040   2.509   0.429   7.372 -0.3094  0.2723  0.0327
   55CHL1   H1A 4041   2.587   0.361   7.415 -0.1259  0.9648  0.7995
   55CHL1   H1B 4042   2.411   0.377   7.377  0.8236 -2.0156 -0.4630
   55CHL1    C2 4043   2.539   0.435   7.221 -0.0420 -0.2642 -0.5807
   55CHL1   H2A 4044   2.536   0.329   7.187  1.9609 -1.0184  1.4579
   55CHL1   H2B 4045   2.643   0.473   7.215 -0.4465  0.7314 -1.3458
   55CHL1   C20 4046   2.436   0.494   8.140 -0.1364  0.6349 -0.3090
   55CHL1   H20 4047   2.541   0.527   8.146 -0.1013  0.4598  0.0482
   55CHL1   C21 4048   2.433   0.340   8.144  0.1495  0.6307 -0.2255
   55CHL1  H21A 4049   2.482   0.305   8.238  0.2168  0.9336 -0.1494
   55CHL1  H21B 4050   2.486   0.294   8.058  2.4770  2.5002  0.1557
   55CHL1  H21C 4051   2.329   0.302   8.149  0.2290  0.0214 -2.8706
   55CHL1   C22 4052   2.363   0.546   8.270  0.1288 -0.3923 -0.4582
   55CHL1  H22A 4053   2.340   0.654   8.276 -1.3584 -0.7937  1.9972
   55CHL1  H22B 4054   2.267   0.490   8.279  0.2306 -0.6175 -0.7655
   55CHL1   C23 4055   2.449   0.520   8.400  0.6827  0.2471  0.0306
   55CHL1  H23A 4056   2.390   0.562   8.484 -2.3769 -1.8853 -0.9660
   55CHL1  H23B 4057   2.438   0.410   8.416 -0.8700  0.3274 -0.4182
   55CHL1   C24 4058   2.605   0.556   8.403  0.0875  0.1206  0.0039
   55CHL1  H24A 4059   2.646   0.491   8.323 -2.5806  1.6372 -2.7038
   55CHL1  H24B 4060   2.619   0.662   8.370 -0.6123  0.4482  0.7335
   55CHL1   C25 4061   2.685   0.542   8.543  0.5932 -0.5183  0.7721
   55CHL1   H25 4062   2.788   0.563   8.509  1.2585 -2.3192  1.6216
   55CHL1   C26 4063   2.625   0.639   8.653 -0.3530  0.3395  0.1921
   55CHL1  H26A 4064   2.627   0.744   8.617 -1.6816  0.2004 -0.2914
   55CHL1  H26B 4065   2.531   0.597   8.693  0.2910 -2.1640 -0.8074
   55CHL1  H26C 4066   2.681   0.629   8.748 -2.3076 -0.5166  1.2701
   55CHL1   C27 4067   2.689   0.395   8.592 -0.2659  0.2866  0.2359
   55CHL1  H27A 4068   2.602   0.373   8.658 -0.1742 -1.2555 -0.1388
   55CHL1  H27B 4069   2.682   0.316   8.514 -1.0523  0.1858  0.3979
   55CHL1  H27C 4070   2.788   0.383   8.640  0.1569 -0.2321 -0.7577
   56CHL1    C3 4071   1.823   5.485   6.848 -0.9334  0.3072 -0.1968
   56CHL1    H3 4072   1.776   5.385   6.860  1.0809 -1.5457 -5.9584
   56CHL1    O3 4073   1.851   5.495   6.707 -0.1713  0.5483 -0.3403
   56CHL1   H3' 4074   1.904   5.424   6.670 -0.8197 -0.4263  0.5486
   56CHL1    C4 4075   1.739   5.596   6.907  0.2203  0.1220  0.1440
   56CHL1   H4A 4076   1.798   5.690   6.905 -0.8088  0.8074  1.2665
   56CHL1   H4B 4077   1.650   5.625   6.846  0.5377  0.2341 -0.2680
   56CHL1    C5 4078   1.718   5.569   7.052 -0.9516  0.1939 -0.1113
   56CHL1    C6 4079   1.592   5.563   7.103 -0.2472  1.0926 -0.4231
   56CHL1    H6 4080   1.511   5.559   7.029  0.9316  2.2725 -1.8116
   56CHL1    C7 4081   1.569   5.550   7.253  0.0805  0.3513  0.2018
   56CHL1   H7A 4082   1.488   5.621   7.280 -0.0141  0.7365 -1.0513
   56CHL1   H7B 4083   1.530   5.450   7.283 -0.9295 -0.2208 -2.8568
   56CHL1    C8 4084   1.697   5.587   7.343  0.2532  0.1241 -0.4464
   56CHL1    H8 4085   1.706   5.697   7.331  2.4058  0.0409  0.2410
   56CHL1   C14 4086   1.674   5.555   7.485  0.7141  0.0718  0.4846
   56CHL1   H14 4087   1.643   5.449   7.474  0.9442  0.0424  0.1234
   56CHL1   C15 4088   1.552   5.627   7.559  0.5744 -0.1928  0.0632
   56CHL1  H15A 4089   1.561   5.735   7.534  0.0415 -0.3536 -0.8300
   56CHL1  H15B 4090   1.448   5.598   7.531  0.7233 -0.8635  0.2076
   56CHL1   C16 4091   1.592   5.622   7.705 -0.1753 -0.2075  0.1294
   56CHL1  H16A 4092   1.596   5.722   7.755  2.4162  0.4630 -1.3104
   56CHL1  H16B 4093   1.530   5.557   7.769 -0.2624  0.3616  0.6247
   56CHL1   C17 4094   1.728   5.554   7.711 -0.5366 -0.0835  0.0096
   56CHL1   H17 4095   1.718   5.444   7.723  0.9212 -0.3938 -1.4246
   56CHL1   C13 4096   1.797   5.577   7.578 -0.3094 -0.0792 -0.1604
   56CHL1   C18 4097   1.848   5.715   7.564 -0.4434 -0.4332 -1.1098
   56CHL1  H18A 4098   1.895   5.738   7.466 -0.1335  3.5648 -0.1198
   56CHL1  H18B 4099   1.774   5.788   7.604  0.2479 -0.5949  0.4902
   56CHL1  H18C 4100   1.938   5.726   7.628 -1.5432 -0.8617  0.5335
   56CHL1   C12 4101   1.902   5.476   7.528 -0.4404  0.3006  0.9576
   56CHL1  H12A 4102   2.001   5.487   7.577 -0.4048  2.8736  0.3638
   56CHL1  H12B 4103   1.868   5.376   7.562  2.3853 -1.4109 -1.0341
   56CHL1   C11 4104   1.935   5.491   7.378  0.3702  0.2119  0.4518
   56CHL1  H11A 4105   1.998   5.580   7.357 -0.6854  0.8090 -0.2475
   56CHL1  H11B 4106   2.000   5.404   7.355  0.2111  0.1028  0.4085
   56CHL1    C9 4107   1.812   5.512   7.284  0.0355  0.7218 -0.6424
   56CHL1    H9 4108   1.784   5.405   7.275  1.7725  0.1914 -0.0239
   56CHL1   C10 4109   1.848   5.564   7.141  0.7783 -0.1782  0.1862
   56CHL1   C19 4110   1.911   5.704   7.139  0.2236  0.1095  0.2700
   56CHL1  H19A 4111   2.003   5.698   7.202  0.6148  0.6039 -0.2571
   56CHL1  H19B 4112   1.942   5.746   7.042 -1.2972 -0.6850 -0.5834
   56CHL1  H19C 4113   1.835   5.779   7.167  0.3512  0.3451 -0.0144
   56CHL1    C1 4114   1.933   5.453   7.076  0.4259 -0.5600  0.2907
   56CHL1   H1A 4115   2.029   5.442   7.130  0.1388 -0.9572  0.7320
   56CHL1   H1B 4116   1.878   5.357   7.076 -1.0167  0.2368 -0.0662
   56CHL1    C2 4117   1.958   5.479   6.926  0.1000  0.2572 -0.3087
   56CHL1   H2A 4118   2.024   5.409   6.872 -0.0671  0.2031 -0.4460
   56CHL1   H2B 4119   2.002   5.580   6.911 -1.1537  1.0553  1.2779
   56CHL1   C20 4120   1.802   5.597   7.840  0.5944  0.1811  0.4847
   56CHL1   H20 4121   1.841   5.701   7.835 -1.6145  0.9384 -1.5735
   56CHL1   C21 4122   1.924   5.508   7.853  0.0465 -0.7366 -0.2348
   56CHL1  H21A 4123   1.970   5.521   7.954  1.1128 -2.2021 -0.5082
   56CHL1  H21B 4124   1.997   5.545   7.778 -0.4662  1.2851  0.2334
   56CHL1  H21C 4125   1.903   5.399   7.846  0.8964 -0.9601  0.4661
   56CHL1   C22 4126   1.708   5.579   7.969  0.2664 -0.7857 -0.6755
   56CHL1  H22A 4127   1.615   5.639   7.955  0.1223 -1.0858 -1.0132
   56CHL1  H22B 4128   1.682   5.473   7.991  0.4606 -0.9168 -1.0730
   56CHL1   C23 4129   1.778   5.649   8.094  0.1144  0.5507 -0.4798
   56CHL1  H23A 4130   1.877   5.603   8.114 -0.6695 -0.7338  0.5098
   56CHL1  H23B 4131   1.785   5.755   8.062  0.8314  1.0292  1.2438
   56CHL1   C24 4132   1.713   5.611   8.234  0.4994 -0.4605  0.3459
   56CHL1  H24A 4133   1.606   5.640   8.226  0.6727 -0.0218 -0.4689
   56CHL1  H24B 4134   1.713   5.503   8.262 -2.4025 -1.1159 -1.9329
   56CHL1   C25 4135   1.773   5.698   8.339  0.1838 -0.0907 -0.2214
   56CHL1   H25 4136   1.746   5.798   8.301 -1.3170  0.1109  1.2939
   56CHL1   C26 4137   1.700   5.667   8.474  0.3216 -0.1767 -0.4348
   56CHL1  H26A 4138   1.716   5.565   8.516 -1.5028 -0.1553  0.3634
   56CHL1  H26B 4139   1.590   5.677   8.458 -0.1649 -2.6457  1.2158
   56CHL1  H26C 4140   1.733   5.734   8.556  2.3660 -1.8237  0.1065
   56CHL1   C27 4141   1.927   5.694   8.353 -0.7631 -0.1938 -0.2480
   56CHL1  H27A 4142   1.968   5.731   8.257 -0.6597 -0.6703 -0.3898
   56CHL1  H27B 4143   1.958   5.751   8.443  2.3884 -1.8291 -0.2083
   56CHL1  H27C 4144   1.971   5.593   8.363 -0.4850  0.0307  0.8667
   57SAPC     N 4145   1.828   2.614  10.837 -0.3391 -0.7434 -0.7644
   57SAPC   C12 4146   1.735   2.677  10.737 -0.1104  0.3742 -0.2883
   57SAPC  H12A 4147   1.713   2.604  10.660 -2.7319 -1.0748  1.7464
   57SAPC  H12B 4148   1.783   2.758  10.684 -0.4489 -0.2384 -1.5536
   57SAPC   C13 4149   1.765   2.495  10.910 -0.2552  1.2755 -0.8158
   57SAPC  H13A 4150   1.704   2.530  10.992  1.0752 -0.3008  0.8965
   57SAPC  H13B 4151   1.700   2.431  10.851  0.4035 -0.1724  0.0059
   57SAPC  H13C 4152   1.833   2.429  10.961 -0.6610  0.8214 -0.8534
   57SAPC   C14 4153   1.955   2.560  10.770 -0.2078 -0.2815  0.4154
   57SAPC  H14A 4154   1.997   2.610  10.684  0.6288 -2.5422 -0.5303
   57SAPC  H14B 4155   2.034   2.555  10.844 -0.5466 -0.8178  0.7423
   57SAPC  H14C 4156   1.926   2.460  10.743  0.2523 -0.6464  1.2465
   57SAPC   C15 4157   1.872   2.718  10.936 -0.8871 -0.6434 -0.0215
   57SAPC  H15A 4158   1.789   2.756  10.992  1.3944  1.6978  1.9156
   57SAPC  H15B 4159   1.951   2.681  11.000  1.0239  2.6851 -0.2993
   57SAPC  H15C 4160   1.920   2.798  10.882 -1.8907  0.3230  0.5041
   57SAPC   C11 4161   1.600   2.744  10.781  0.0491 -0.2402  0.5871
   57SAPC  H11A 4162   1.541   2.777  10.693  0.0914 -1.2646  0.1661
   57SAPC  H11B 4163   1.615   2.834  10.844  1.0782 -0.9556  1.3861
   57SAPC     P 4164   1.451   2.529  10.773  0.1293 -0.0419  0.0234
   57SAPC   O13 4165   1.433   2.405  10.863 -0.5474  0.1533  0.3393
   57SAPC   O14 4166   1.325   2.588  10.722 -0.4752  0.2485  0.6929
   57SAPC   O12 4167   1.522   2.646  10.847  0.7508 -0.5206 -0.2950
   57SAPC   O11 4168   1.541   2.481  10.656  0.0083 -0.3488  0.1826
   57SAPC    C1 4169   1.557   2.347  10.616  1.1613 -0.3953  0.1474
   57SAPC    HA 4170   1.641   2.299  10.670  1.7604  2.0641  1.4818
   57SAPC    HB 4171   1.464   2.288  10.634  0.4850 -0.5853 -3.5835
   57SAPC    C2 4172   1.587   2.342  10.467  0.3307  0.5527 -0.4010
   57SAPC    HS 4173   1.584   2.235  10.438  0.8290  0.0080  1.5514
   57SAPC   O21 4174   1.707   2.404  10.444  0.9804 -0.6869 -0.3456
   57SAPC   C21 4175   1.787   2.358  10.348 -0.3634 -1.1634 -0.6756
   57SAPC   O22 4176   1.757   2.272  10.266 -0.6458 -0.5397 -0.4474
   57SAPC   C22 4177   1.910   2.444  10.345  0.2092  0.9661  0.5450
   57SAPC   H2R 4178   1.870   2.547  10.359  0.4140  1.2158 -0.6423
   57SAPC   H2S 4179   1.980   2.412  10.425 -0.1032 -0.5534  0.2308
   57SAPC    C3 4180   1.474   2.417  10.384 -0.1760 -0.0901  0.2894
   57SAPC    HX 4181   1.475   2.520  10.424  0.5805  0.9110 -2.1911
   57SAPC    HY 4182   1.376   2.368  10.402 -1.8081  3.4638  1.4356
   57SAPC   O31 4183   1.514   2.425  10.240  0.1129  0.4134  0.5252
   57SAPC   C31 4184   1.464   2.338  10.162 -0.6381  0.5795  0.6168
   57SAPC   O32 4185   1.382   2.252  10.190  1.0412 -0.7072 -0.3428
   57SAPC   C32 4186   1.521   2.350  10.020  0.6476  0.2065  0.4158
   57SAPC   H2X 4187   1.492   2.259   9.963 -1.1276  2.3178 -2.1253
   57SAPC   H2Y 4188   1.631   2.346  10.031  0.6974 -3.8128 -0.4638
   57SAPC   C23 4189   1.978   2.433  10.198  0.0856 -0.7794 -0.8640
   57SAPC   H3R 4190   1.967   2.332  10.153 -2.1769 -1.1335  0.4023
   57SAPC   H3S 4191   2.087   2.433  10.219 -0.5027  1.6395  2.5369
   57SAPC   C24 4192   1.948   2.551  10.100 -0.8005 -0.0122  0.0406
   57SAPC   H4R 4193   1.956   2.648  10.153 -1.1514 -0.0801  0.2190
   57SAPC   H4S 4194   1.840   2.553  10.077 -0.3303  0.9597 -2.2088
   57SAPC   C25 4195   2.038   2.533   9.976  0.0193  0.5753  0.4727
   57SAPC   H5R 4196   2.136   2.581   9.991 -0.3375  1.5134 -0.1279
   57SAPC   C26 4197   2.015   2.480   9.857 -0.4270  0.4197  0.2728
   57SAPC   H6R 4198   2.097   2.489   9.784  0.9386 -0.3198  1.6684
   57SAPC   C27 4199   1.893   2.413   9.802 -0.7270  0.6009  0.2337
   57SAPC   H7R 4200   1.911   2.393   9.694 -0.9291 -1.1481  0.5149
   57SAPC   H7S 4201   1.807   2.483   9.809  0.9783  2.7191  0.6505
   57SAPC   C28 4202   1.859   2.274   9.862  0.8653  0.8359 -0.3214
   57SAPC   H8R 4203   1.895   2.241   9.961 -0.0735  1.5213  0.2550
   57SAPC   C29 4204   1.776   2.178   9.806  0.0330 -0.9664 -0.1798
   57SAPC   H9R 4205   1.747   2.090   9.865 -0.6531 -1.7055 -1.5846
   57SAPC  C210 4206   1.692   2.198   9.676 -0.2351  0.7283  0.4304
   57SAPC  H10R 4207   1.748   2.247   9.593 -0.6843 -0.4604 -0.5975
   57SAPC  H10S 4208   1.602   2.260   9.693 -0.9451 -0.1356 -0.1393
   57SAPC  C211 4209   1.635   2.067   9.620 -0.4336  0.7714  0.2678
   57SAPC  H11R 4210   1.608   1.990   9.693 -0.1835 -1.1930 -1.6420
   57SAPC  C212 4211   1.625   2.030   9.490 -0.9424 -0.0850 -0.4342
   57SAPC  H12R 4212   1.593   1.927   9.470  0.0340  0.0018 -2.6340
   57SAPC  C213 4213   1.673   2.120   9.375 -0.1277 -0.0439  0.3598
   57SAPC  H13R 4214   1.779   2.102   9.348 -0.2904 -1.7232  0.7895
   57SAPC  H13S 4215   1.675   2.229   9.398  2.1243  0.0028  0.0441
   57SAPC  C214 4216   1.589   2.087   9.258  0.2752 -0.5563 -0.1146
   57SAPC  H14R 4217   1.488   2.131   9.257 -1.1513 -3.7617 -0.7974
   57SAPC  C215 4218   1.624   2.030   9.147  0.2095  1.0141  0.2598
   57SAPC  H15R 4219   1.549   1.991   9.076 -1.0101  1.4649  1.2902
   57SAPC  C216 4220   1.761   1.984   9.110 -0.2881 -0.1849 -0.2375
   57SAPC  H16R 4221   1.792   1.896   9.171  0.4006  0.6995  0.7266
   57SAPC  H16S 4222   1.836   2.063   9.133 -1.1008  0.3335  0.6532
   57SAPC  C217 4223   1.785   1.961   8.957  0.1990 -0.2148  0.0876
   57SAPC  H17R 4224   1.896   1.955   8.947  0.4763  0.3793  2.3830
   57SAPC  H17S 4225   1.771   2.055   8.900 -1.1380 -0.3392  0.1894
   57SAPC  C218 4226   1.707   1.845   8.897 -0.5015  0.4415  0.3236
   57SAPC  H18R 4227   1.597   1.864   8.899 -0.3581  1.4315 -0.6378
   57SAPC  H18S 4228   1.707   1.755   8.962 -1.0738  1.8961  2.3902
   57SAPC  C219 4229   1.759   1.797   8.765  0.6440 -0.0242  0.1244
   57SAPC  H19R 4230   1.867   1.786   8.788  0.6638 -0.7144 -0.2612
   57SAPC  H19S 4231   1.747   1.877   8.689  0.3135  0.3290  0.5470
   57SAPC  C220 4232   1.709   1.664   8.717 -0.2326 -0.2437 -0.0842
   57SAPC  H20R 4233   1.598   1.665   8.706 -0.4597 -1.3856  1.9023
   57SAPC  H20S 4234   1.738   1.578   8.782  0.3563  0.3190  0.4082
   57SAPC  H20T 4235   1.746   1.654   8.613 -0.9412 -0.2128 -0.3422
   57SAPC   C33 4236   1.493   2.482   9.944  0.9850 -0.2362  0.7560
   57SAPC   H3X 4237   1.546   2.460   9.849 -0.6374 -1.5225  0.1176
   57SAPC   H3Y 4238   1.533   2.576   9.987  3.2625 -0.3067 -1.1394
   57SAPC   C34 4239   1.349   2.505   9.915  1.1147  0.0500  0.0369
   57SAPC   H4X 4240   1.299   2.556  10.000 -0.4932 -0.3885 -0.6150
   57SAPC   H4Y 4241   1.294   2.409   9.909  3.8094 -1.4318 -1.9183
   57SAPC   C35 4242   1.317   2.592   9.790  0.5038 -1.0756  0.0208
   57SAPC   H5X 4243   1.355   2.695   9.804  1.7770 -1.4875 -0.3590
   57SAPC   H5Y 4244   1.212   2.615   9.761 -0.3033 -4.1834  0.3370
   57SAPC   C36 4245   1.365   2.538   9.655 -0.2273  0.3137 -0.0626
   57SAPC   H6X 4246   1.311   2.444   9.631 -2.7290  1.2003  1.8316
   57SAPC   H6Y 4247   1.473   2.512   9.656 -1.0289 -3.3391  2.5075
   57SAPC   C37 4248   1.335   2.622   9.534 -0.4334 -0.0978 -0.6861
   57SAPC   H7X 4249   1.376   2.724   9.551  1.1665 -0.8703  0.2040
   57SAPC   H7Y 4250   1.229   2.634   9.504 -0.7605 -1.6136 -0.1688
   57SAPC   C38 4251   1.407   2.563   9.410  0.4461  0.5355  0.5220
   57SAPC   H8X 4252   1.374   2.459   9.390 -1.5721  1.4768 -1.2114
   57SAPC   H8Y 4253   1.517   2.556   9.426  0.6689  0.2097 -1.0885
   57SAPC   C39 4254   1.381   2.660   9.293 -0.1441  0.1881 -0.1432
   57SAPC   H9X 4255   1.419   2.760   9.319  2.0432 -0.3440 -1.2073
   57SAPC   H9Y 4256   1.273   2.664   9.268 -0.4811 -2.3599  0.7352
   57SAPC  C310 4257   1.463   2.621   9.175 -0.3507 -0.2361  0.3354
   57SAPC  H10X 4258   1.432   2.515   9.161  0.9705 -0.6175  0.2525
   57SAPC  H10Y 4259   1.569   2.599   9.200 -0.4446 -0.5130  0.5039
   57SAPC  C311 4260   1.457   2.713   9.053  0.3691  0.5727 -0.0206
   57SAPC  H11X 4261   1.508   2.635   8.991  0.0359 -0.0849  0.5255
   57SAPC  H11Y 4262   1.524   2.802   9.058 -0.1550  0.9243  0.7104
   57SAPC  C312 4263   1.317   2.742   9.011 -0.3386  0.0740 -0.2242
   57SAPC  H12X 4264   1.269   2.800   9.092  0.6094  1.4197 -0.6110
   57SAPC  H12Y 4265   1.266   2.646   8.990  0.4904 -0.0033 -2.0240
   57SAPC  C313 4266   1.293   2.801   8.877 -0.2024 -0.9202 -0.1451
   57SAPC  H13X 4267   1.183   2.810   8.868 -0.1379 -0.9802 -1.0901
   57SAPC  H13Y 4268   1.330   2.734   8.797  3.1800 -0.4069  0.9032
   57SAPC  C314 4269   1.358   2.941   8.851 -0.2518  0.7831 -0.6276
   57SAPC  H14X 4270   1.467   2.923   8.848 -0.3060  0.6715 -3.0177
   57SAPC  H14Y 4271   1.339   3.016   8.931 -0.1309  0.3301 -0.1721
   57SAPC  C315 4272   1.311   3.003   8.713  0.1125 -0.3221  0.2482
   57SAPC  H15X 4273   1.335   2.928   8.635 -0.3965  0.6028 -0.8252
   57SAPC  H15Y 4274   1.368   3.096   8.691 -0.4275 -0.1015 -0.2207
   57SAPC  C316 4275   1.163   3.044   8.706  0.2230  0.2847  0.0770
   57SAPC  H16X 4276   1.157   3.155   8.703 -1.2298  0.2079 -0.2464
   57SAPC  H16Y 4277   1.117   3.015   8.803 -2.1450  0.0122 -1.1035
   57SAPC  C317 4278   1.083   2.977   8.591 -0.9152  0.3665  0.7646
   57SAPC  H17X 4279   0.973   2.997   8.597 -0.8643  0.8150  0.2168
   57SAPC  H17Y 4280   1.101   2.869   8.579  0.2225  0.6285  0.0845
   57SAPC  C318 4281   1.132   3.025   8.447  0.2647 -0.3358 -0.2920
   57SAPC  H18X 4282   1.210   2.956   8.409  1.4714  2.2044 -2.6080
   57SAPC  H18Y 4283   1.173   3.129   8.453  1.6646 -0.8020 -1.3014
   57SAPC  H18Z 4284   1.047   3.022   8.375  0.8707 -0.3931 -1.0144
   58SAPC     N 4285   4.434   0.838  10.779 -0.0156 -0.0405  0.6396
   58SAPC   C12 4286   4.301   0.851  10.856  0.3036 -0.3171  0.0053
   58SAPC  H12A 4287   4.277   0.956  10.850 -0.2981 -0.3722  1.3068
   58SAPC  H12B 4288   4.307   0.847  10.963  1.5465 -1.2294 -0.0843
   58SAPC   C13 4289   4.412   0.909  10.652 -0.1303  0.2755 -0.9982
   58SAPC  H13A 4290   4.313   0.895  10.611 -1.3972 -1.1361  2.3522
   58SAPC  H13B 4291   4.436   1.014  10.663  0.6717 -0.1469  1.5755
   58SAPC  H13C 4292   4.482   0.874  10.577  0.0365 -2.0736  0.2199
   58SAPC   C14 4293   4.546   0.910  10.851 -0.0402  0.6830 -0.2070
   58SAPC  H14A 4294   4.636   0.916  10.791  0.1847  0.3370  0.1012
   58SAPC  H14B 4295   4.522   1.012  10.878  1.6506  1.5020 -1.6237
   58SAPC  H14C 4296   4.567   0.860  10.944  1.2282  2.5250  0.5216
   58SAPC   C15 4297   4.474   0.695  10.753 -0.0220  0.0427  0.2571
   58SAPC  H15A 4298   4.521   0.639  10.832  0.4718 -0.5720 -0.4554
   58SAPC  H15B 4299   4.383   0.640  10.733  0.9557 -1.3505 -0.4737
   58SAPC  H15C 4300   4.539   0.685  10.667 -1.5926 -0.4236 -0.9118
   58SAPC   C11 4301   4.180   0.760  10.807  0.2666 -0.3338  0.8999
   58SAPC  H11A 4302   4.150   0.795  10.706 -3.1937  0.4629  2.1450
   58SAPC  H11B 4303   4.097   0.781  10.877 -0.0282  1.6428 -0.0006
   58SAPC     P 4304   4.111   0.512  10.749  0.0605 -0.1278 -0.3328
   58SAPC   O13 4305   4.166   0.380  10.743  0.0219 -0.4775 -0.4231
   58SAPC   O14 4306   3.984   0.529  10.825 -0.8748  0.4311  0.1573
   58SAPC   O12 4307   4.213   0.615  10.815 -0.1883 -0.3560  0.9289
   58SAPC   O11 4308   4.086   0.560  10.605  0.6599 -0.4456 -0.0973
   58SAPC    C1 4309   4.182   0.538  10.502 -0.1534  0.6354  0.5055
   58SAPC    HA 4310   4.193   0.622  10.431 -0.2917  0.8862  0.7795
   58SAPC    HB 4311   4.287   0.526  10.538 -0.2220 -1.1996  0.1320
   58SAPC    C2 4312   4.143   0.407  10.422 -0.0333  0.2016  0.4911
   58SAPC    HS 4313   4.184   0.338  10.499  2.8294  2.3482  0.9710
   58SAPC   O21 4314   4.205   0.404  10.296  0.1683 -0.9974  0.1423
   58SAPC   C21 4315   4.324   0.346  10.284 -0.0672 -0.2716 -0.0994
   58SAPC   O22 4316   4.398   0.316  10.376 -0.1301 -0.0804 -0.1333
   58SAPC   C22 4317   4.370   0.343  10.140 -0.0609 -0.4192  0.1204
   58SAPC   H2R 4318   4.378   0.449  10.106 -1.9797 -0.3712 -0.2000
   58SAPC   H2S 4319   4.474   0.306  10.127  0.6674  1.6558 -0.2788
   58SAPC    C3 4320   3.989   0.375  10.408  0.1562 -0.4598  0.2430
   58SAPC    HX 4321   3.946   0.475  10.385 -0.1662 -0.3858  1.1592
   58SAPC    HY 4322   3.967   0.339  10.511  1.9984 -0.4819  0.6363
   58SAPC   O31 4323   3.957   0.270  10.319 -1.3970 -0.3947  0.5275
   58SAPC   C31 4324   3.832   0.231  10.328  0.1128 -0.2405  0.2390
   58SAPC   O32 4325   3.746   0.287  10.392  0.7191  0.0429 -0.1429
   58SAPC   C32 4326   3.828   0.097  10.259 -0.3328  0.8602 -0.1187
   58SAPC   H2X 4327   3.889   0.026  10.319  0.3156  1.1028 -0.4895
   58SAPC   H2Y 4328   3.858   0.112  10.154  1.6037 -0.0122  0.2969
   58SAPC   C23 4329   4.281   0.265  10.041 -0.0445  1.2025 -0.1586
   58SAPC   H3R 4330   4.234   0.184  10.100 -0.5878  0.4508 -1.6104
   58SAPC   H3S 4331   4.348   0.214   9.969 -2.0246  0.3511 -1.4471
   58SAPC   C24 4332   4.177   0.344   9.953 -0.3041  0.1780  0.5209
   58SAPC   H4R 4333   4.148   0.274   9.871  2.8187 -0.5532 -0.0304
   58SAPC   H4S 4334   4.225   0.426   9.896 -0.9117 -1.5693 -2.6349
   58SAPC   C25 4335   4.057   0.407  10.020  0.3829 -0.7295 -0.0956
   58SAPC   H5R 4336   4.082   0.442  10.121  1.5402 -1.2526 -0.1829
   58SAPC   C26 4337   3.925   0.399   9.978  0.5435  0.3162 -0.6794
   58SAPC   H6R 4338   3.850   0.463  10.027  2.5501  1.4586  0.9884
   58SAPC   C27 4339   3.880   0.340   9.842 -0.1959 -0.2646  0.4341
   58SAPC   H7R 4340   3.776   0.306   9.860 -0.7676  1.0369 -0.2979
   58SAPC   H7S 4341   3.934   0.249   9.808  0.6811  0.7079 -0.7960
   58SAPC   C28 4342   3.892   0.452   9.751  0.5026 -0.3277  0.8609
   58SAPC   H8R 4343   3.856   0.550   9.785  1.3683 -0.1893  1.3968
   58SAPC   C29 4344   3.949   0.445   9.628 -0.5837  0.3725  0.4146
   58SAPC   H9R 4345   3.947   0.541   9.573 -1.3179 -0.2251 -0.6281
   58SAPC  C210 4346   4.015   0.325   9.566 -0.1951 -0.0165 -0.0387
   58SAPC  H10R 4347   3.941   0.249   9.535 -0.7261 -0.0557  1.2930
   58SAPC  H10S 4348   4.063   0.277   9.654  0.9463 -0.2104 -0.7585
   58SAPC  C211 4349   4.124   0.354   9.472 -0.4901 -0.7796 -0.2921
   58SAPC  H11R 4350   4.223   0.362   9.521 -0.9925  0.6307  0.5004
   58SAPC  C212 4351   4.112   0.372   9.341  0.3952  0.7343 -0.2421
   58SAPC  H12R 4352   4.200   0.384   9.276  2.4784  0.1196  2.3529
   58SAPC  C213 4353   3.982   0.369   9.259 -0.0822 -0.1886  0.2121
   58SAPC  H13R 4354   3.896   0.411   9.315 -1.5185 -2.5129 -0.1646
   58SAPC  H13S 4355   3.960   0.263   9.234 -1.5228  0.3590 -0.9099
   58SAPC  C214 4356   3.999   0.446   9.134  0.4547 -0.1313  0.5895
   58SAPC  H14R 4357   3.965   0.550   9.134  1.5004  0.2630  3.5935
   58SAPC  C215 4358   4.056   0.400   9.019 -0.5491 -0.0311 -0.1719
   58SAPC  H15R 4359   4.072   0.473   8.938 -2.3123  1.0469  0.4270
   58SAPC  C216 4360   4.125   0.266   9.001  0.2739  0.2915  0.6921
   58SAPC  H16R 4361   4.075   0.218   8.915 -0.6193  1.3817  0.5898
   58SAPC  H16S 4362   4.125   0.217   9.101 -0.0424 -1.9439 -0.3759
   58SAPC  C217 4363   4.276   0.278   8.970 -0.0363 -0.2953 -0.4051
   58SAPC  H17R 4364   4.310   0.172   8.967  0.0422 -0.4383  3.4148
   58SAPC  H17S 4365   4.334   0.333   9.047  2.0662 -2.2481 -0.5479
   58SAPC  C218 4366   4.314   0.343   8.833 -0.2703 -0.4766 -0.4535
   58SAPC  H18R 4367   4.425   0.346   8.822  0.1732 -1.4878  3.3122
   58SAPC  H18S 4368   4.280   0.449   8.838 -1.0744 -0.8300  2.2886
   58SAPC  C219 4369   4.259   0.264   8.712 -0.1083  0.2957  0.5529
   58SAPC  H19R 4370   4.148   0.262   8.716 -0.0728  0.5355  1.8845
   58SAPC  H19S 4371   4.298   0.160   8.720 -2.1565 -0.5211  0.3297
   58SAPC  C220 4372   4.297   0.323   8.579 -1.0331 -0.1368 -0.8649
   58SAPC  H20R 4373   4.394   0.284   8.543  1.1661  2.5496  1.8249
   58SAPC  H20S 4374   4.319   0.432   8.588  1.6574 -0.7270 -0.0457
   58SAPC  H20T 4375   4.217   0.293   8.508 -0.6755  0.9694 -1.7442
   58SAPC   C33 4376   3.683   0.046  10.242 -0.0379  0.5785  0.4527
   58SAPC   H3X 4377   3.616   0.128  10.206 -1.6903 -1.1013 -0.4055
   58SAPC   H3Y 4378   3.649   0.018  10.344 -0.6052  1.2997  0.4659
   58SAPC   C34 4379   3.679  -0.079  10.147  0.3929 -0.3674  0.5192
   58SAPC   H4X 4380   3.577  -0.122  10.138  0.1518 -0.0003  1.4690
   58SAPC   H4Y 4381   3.750  -0.160  10.174  1.1412 -0.3170 -1.1970
   58SAPC   C35 4382   3.689  -0.037   9.997  0.8269  0.0992  0.6602
   58SAPC   H5X 4383   3.690  -0.125   9.930 -0.4648 -0.5914  1.5126
   58SAPC   H5Y 4384   3.781   0.020   9.974  2.1299 -2.7009 -1.3647
   58SAPC   C36 4385   3.574   0.055   9.954  0.3233  0.2925  0.2207
   58SAPC   H6X 4386   3.621   0.155   9.970 -1.5342  1.5038 -1.6445
   58SAPC   H6Y 4387   3.478   0.065  10.009  0.1870  0.7307 -0.0953
   58SAPC   C37 4388   3.534   0.047   9.813 -0.1300  0.6233  0.0504
   58SAPC   H7X 4389   3.438   0.102   9.797  0.9162  1.9775 -1.6886
   58SAPC   H7Y 4390   3.514  -0.058   9.783 -0.5780  0.6932  0.0967
   58SAPC   C38 4391   3.628   0.108   9.712 -0.2430 -0.1890 -0.5010
   58SAPC   H8X 4392   3.736   0.084   9.725  0.3497  2.6906  0.2191
   58SAPC   H8Y 4393   3.632   0.219   9.724  0.8866  0.0903 -3.1486
   58SAPC   C39 4394   3.590   0.072   9.576 -0.6194  0.0999 -0.5074
   58SAPC   H9X 4395   3.493   0.115   9.544 -2.6411 -3.3892  0.6865
   58SAPC   H9Y 4396   3.579  -0.038   9.568  0.9630 -0.1115  0.1058
   58SAPC  C310 4397   3.703   0.113   9.476 -0.5466 -0.7100  0.5531
   58SAPC  H10X 4398   3.796   0.057   9.500 -0.1297 -1.2923 -2.2732
   58SAPC  H10Y 4399   3.723   0.222   9.470 -1.0594 -0.6515 -0.1010
   58SAPC  C311 4400   3.665   0.061   9.329 -0.4174  0.5367  0.3156
   58SAPC  H11X 4401   3.631  -0.045   9.320  1.3019  0.1214 -1.8948
   58SAPC  H11Y 4402   3.756   0.057   9.265 -1.2822 -2.5135 -0.8608
   58SAPC  C312 4403   3.552   0.144   9.255  0.0297  0.2070  0.2598
   58SAPC  H12X 4404   3.578   0.252   9.243  0.3928  0.0632 -0.2417
   58SAPC  H12Y 4405   3.464   0.148   9.323 -0.2009  0.9923 -0.0748
   58SAPC  C313 4406   3.498   0.080   9.127 -0.7634 -0.5474 -0.8212
   58SAPC  H13X 4407   3.401   0.130   9.106 -1.3861 -0.0488  2.8852
   58SAPC  H13Y 4408   3.474  -0.025   9.155  0.1807 -0.7211 -0.6580
   58SAPC  C314 4409   3.606   0.090   9.010 -0.0910  0.4395 -0.5578
   58SAPC  H14X 4410   3.555   0.034   8.929 -0.6203 -0.1055  0.1444
   58SAPC  H14Y 4411   3.688   0.018   9.031 -0.1957  1.0378  2.1261
   58SAPC  C315 4412   3.655   0.233   8.980 -0.3201 -0.1596 -0.5003
   58SAPC  H15X 4413   3.695   0.262   9.080  0.8531 -1.0540 -0.6960
   58SAPC  H15Y 4414   3.579   0.308   8.949 -0.2593  1.5871  3.2078
   58SAPC  C316 4415   3.776   0.235   8.879  0.3558 -1.0128 -0.5777
   58SAPC  H16X 4416   3.847   0.160   8.918  0.4277 -1.4316 -1.4943
   58SAPC  H16Y 4417   3.832   0.331   8.878 -0.9959 -0.2031 -1.1931
   58SAPC  C317 4418   3.739   0.184   8.739  0.1044 -0.6078  0.1976
   58SAPC  H17X 4419   3.684   0.254   8.672 -0.2192 -0.2160  0.8558
   58SAPC  H17Y 4420   3.670   0.100   8.763  0.2159 -0.7773 -0.0789
   58SAPC  C318 4421   3.862   0.131   8.673 -0.1754 -0.0266  0.5405
   58SAPC  H18X 4422   3.838   0.118   8.565  1.0111  2.4072 -0.0567
   58SAPC  H18Y 4423   3.893   0.030   8.706  2.2510 -0.0546 -1.5852
   58SAPC  H18Z 4424   3.951   0.198   8.678  0.2046 -0.5187  0.4616
   59SAPC     N 4425   5.272   1.776  11.001 -0.1483 -0.1370 -0.6763
   59SAPC   C12 4426   5.334   1.681  10.896  0.1108  0.1087 -0.2535
   59SAPC  H12A 4427   5.299   1.705  10.797  0.2727 -1.6522 -0.7582
   59SAPC  H12B 4428   5.291   1.583  10.911 -0.6047  0.5177  0.4646
   59SAPC   C13 4429   5.123   1.772  10.991  0.2482 -0.1548  0.2949
   59SAPC  H13A 4430   5.085   1.858  11.044 -0.5723  0.0774 -0.6452
   59SAPC  H13B 4431   5.091   1.767  10.888  1.7136  1.0900 -0.2425
   59SAPC  H13C 4432   5.087   1.683  11.040 -0.2800  1.4348  2.9058
   59SAPC   C14 4433   5.308   1.725  11.136 -0.3200  0.4063 -0.2951
   59SAPC  H14A 4434   5.266   1.628  11.155 -1.7432  0.9511 -0.6425
   59SAPC  H14B 4435   5.414   1.710  11.151 -0.5079  0.2300  0.9466
   59SAPC  H14C 4436   5.271   1.790  11.214  1.4919  1.1178  0.0032
   59SAPC   C15 4437   5.332   1.924  10.992 -0.2698  0.4971 -0.3904
   59SAPC  H15A 4438   5.288   1.990  11.066 -0.7425  0.4960 -0.6717
   59SAPC  H15B 4439   5.440   1.920  10.990 -0.2692  0.7369 -1.1539
   59SAPC  H15C 4440   5.316   1.970  10.895  0.8229  0.4796 -0.5879
   59SAPC   C11 4441   5.489   1.680  10.887 -0.6920  0.4165  0.7365
   59SAPC  H11A 4442   5.543   1.776  10.892 -0.3527  0.2779 -0.1932
   59SAPC  H11B 4443   5.510   1.639  10.786  1.6407 -0.2644  1.4711
   59SAPC     P 4444   5.533   1.434  10.967  0.0092 -0.4575 -0.2393
   59SAPC   O13 4445   5.675   1.388  10.977 -0.0190 -0.1187 -0.0275
   59SAPC   O14 4446   5.427   1.384  11.064  0.6067 -0.2375  0.0160
   59SAPC   O12 4447   5.534   1.593  10.988 -0.4449 -0.2686  0.1834
   59SAPC   O11 4448   5.490   1.419  10.815  0.2703 -0.1823  0.1336
   59SAPC    C1 4449   5.463   1.289  10.766 -0.5444  0.0442 -0.2405
   59SAPC    HA 4450   5.554   1.229  10.782 -1.7195 -1.5577  0.5789
   59SAPC    HB 4451   5.379   1.248  10.826 -1.0008  1.6862  0.2788
   59SAPC    C2 4452   5.413   1.303  10.620 -0.2729 -0.0368  0.1897
   59SAPC    HS 4453   5.370   1.209  10.579  1.6324  0.1482 -2.3666
   59SAPC   O21 4454   5.526   1.355  10.547 -0.8538 -0.1388 -0.3193
   59SAPC   C21 4455   5.603   1.267  10.504 -1.0912  0.3338  0.4526
   59SAPC   O22 4456   5.602   1.146  10.512 -0.0983 -0.5628 -0.5038
   59SAPC   C22 4457   5.719   1.339  10.431 -0.0497  0.1619  0.0488
   59SAPC   H2R 4458   5.684   1.431  10.381  1.1561 -0.0107 -1.1698
   59SAPC   H2S 4459   5.785   1.377  10.511  0.1377 -0.0948  0.0207
   59SAPC    C3 4460   5.298   1.407  10.611  0.4398 -0.0629  0.1928
   59SAPC    HX 4461   5.337   1.493  10.669 -1.1769  0.8186 -0.0040
   59SAPC    HY 4462   5.211   1.369  10.667  1.0737  0.7754  1.7586
   59SAPC   O31 4463   5.258   1.451  10.476 -0.6088 -0.3440 -0.2962
   59SAPC   C31 4464   5.169   1.362  10.420 -0.0913  0.2983  0.3300
   59SAPC   O32 4465   5.136   1.259  10.466 -0.5595 -0.5418  0.5779
   59SAPC   C32 4466   5.115   1.433  10.290  0.1904  0.5923 -0.8936
   59SAPC   H2X 4467   5.188   1.419  10.207  2.3597 -3.5521  1.5550
   59SAPC   H2Y 4468   5.100   1.542  10.302 -0.7388  0.6236 -2.2067
   59SAPC   C23 4469   5.805   1.238  10.343 -0.4520 -0.7146 -0.8403
   59SAPC   H3R 4470   5.732   1.186  10.277 -2.1798 -1.6990  1.7621
   59SAPC   H3S 4471   5.838   1.156  10.411 -3.5308 -0.2657  1.3059
   59SAPC   C24 4472   5.911   1.314  10.259  0.3026  0.2259 -0.3085
   59SAPC   H4R 4473   5.977   1.387  10.311 -1.1939  1.2050  0.2599
   59SAPC   H4S 4474   5.864   1.362  10.171  2.7540 -0.4840 -2.0634
   59SAPC   C25 4475   6.006   1.203  10.210  0.6210  0.4961  0.1085
   59SAPC   H5R 4476   6.056   1.148  10.291  1.8651 -1.6782 -2.0587
   59SAPC   C26 4477   6.045   1.171  10.089  0.2711 -0.4112  0.5551
   59SAPC   H6R 4478   6.103   1.081  10.064  1.8062  1.0799 -1.3595
   59SAPC   C27 4479   5.988   1.238   9.964  0.2446  0.1813 -0.7167
   59SAPC   H7R 4480   6.076   1.260   9.900 -0.1284  3.0061 -0.3129
   59SAPC   H7S 4481   5.946   1.339   9.984  0.2980  0.6237 -2.7569
   59SAPC   C28 4482   5.888   1.158   9.886 -0.6553 -0.4074 -0.3748
   59SAPC   H8R 4483   5.820   1.099   9.949 -1.7801  0.1061 -1.0966
   59SAPC   C29 4484   5.872   1.141   9.756  0.9057  0.6060 -0.2335
   59SAPC   H9R 4485   5.792   1.071   9.726  0.1174 -0.3537  3.8489
   59SAPC  C210 4486   5.949   1.206   9.650 -0.8656 -0.2710 -0.3330
   59SAPC  H10R 4487   6.025   1.136   9.607 -0.4856  0.8143 -1.4451
   59SAPC  H10S 4488   6.002   1.294   9.693 -1.0256 -0.5794  0.5079
   59SAPC  C211 4489   5.857   1.259   9.545  0.1080 -0.2210 -0.1107
   59SAPC  H11R 4490   5.821   1.362   9.562  1.1797 -0.2147  2.4943
   59SAPC  C212 4491   5.829   1.199   9.433  0.1788  0.0673 -0.2036
   59SAPC  H12R 4492   5.774   1.257   9.357  0.1644 -1.3301 -1.2834
   59SAPC  C213 4493   5.870   1.064   9.394 -0.1190 -0.0974 -0.8154
   59SAPC  H13R 4494   5.847   1.005   9.485 -1.6423  0.1592 -1.0285
   59SAPC  H13S 4495   5.981   1.058   9.384 -0.2365 -0.7070 -1.8092
   59SAPC  C214 4496   5.801   1.008   9.274  0.4588  0.1176 -0.0596
   59SAPC  H14R 4497   5.705   0.956   9.291 -0.0994  1.7781  2.0522
   59SAPC  C215 4498   5.846   1.017   9.151  0.4367  0.4220  0.1554
   59SAPC  H15R 4499   5.799   0.967   9.065  1.8537 -1.9650  0.7168
   59SAPC  C216 4500   5.976   1.097   9.118  0.1320  0.1606  0.1086
   59SAPC  H16R 4501   6.060   1.025   9.107 -1.5050 -1.4612 -2.3401
   59SAPC  H16S 4502   6.016   1.164   9.198 -0.8134 -2.2973  2.7477
   59SAPC  C217 4503   5.984   1.184   8.993  0.0204  0.7873 -0.2016
   59SAPC  H17R 4504   6.085   1.229   8.990 -0.6656  2.3026 -1.3170
   59SAPC  H17S 4505   5.909   1.266   8.997  0.2206  0.9054  1.9362
   59SAPC  C218 4506   5.963   1.114   8.858  0.6988 -0.3255 -0.1261
   59SAPC  H18R 4507   5.862   1.069   8.862  0.8858 -0.7391  0.0395
   59SAPC  H18S 4508   6.045   1.040   8.847  2.3882  1.4707  0.0558
   59SAPC  C219 4509   5.967   1.207   8.733 -0.6719  0.4551 -0.1682
   59SAPC  H19R 4510   6.069   1.247   8.713 -0.3569  0.4792  1.4235
   59SAPC  H19S 4511   5.903   1.294   8.757 -1.0762 -0.2098  1.2001
   59SAPC  C220 4512   5.927   1.140   8.593  0.6714  0.3928 -0.2584
   59SAPC  H20R 4513   5.955   1.213   8.514  2.0711 -0.6681 -0.7766
   59SAPC  H20S 4514   5.820   1.110   8.587  0.4208  1.4561 -1.2966
   59SAPC  H20T 4515   5.990   1.052   8.569 -0.7992 -0.0295 -2.7428
   59SAPC   C33 4516   4.977   1.395  10.251  0.2328  0.1617 -0.1996
   59SAPC   H3X 4517   4.904   1.417  10.331 -2.1034 -0.8070 -1.9832
   59SAPC   H3Y 4518   4.976   1.285  10.233  2.4333  0.2312 -0.9687
   59SAPC   C34 4519   4.908   1.460  10.135  0.0147 -0.4429  0.0621
   59SAPC   H4X 4520   4.901   1.569  10.152 -1.4061 -0.6500  0.9575
   59SAPC   H4Y 4521   4.803   1.428  10.118 -0.5012  1.6505 -0.8970
   59SAPC   C35 4522   4.988   1.426  10.004  0.4911 -0.1417 -0.3581
   59SAPC   H5X 4523   4.999   1.317   9.985 -3.0131 -0.4005 -1.3866
   59SAPC   H5Y 4524   5.093   1.462   9.998  0.3422  0.6216  1.3280
   59SAPC   C36 4525   4.924   1.493   9.882 -0.2621  0.8829  0.3207
   59SAPC   H6X 4526   4.920   1.604   9.886  1.7382  0.9452  1.0935
   59SAPC   H6Y 4527   4.817   1.466   9.890 -0.1117  0.1472 -0.1131
   59SAPC   C37 4528   4.992   1.441   9.754 -0.7358 -0.0846 -0.0440
   59SAPC   H7X 4529   4.964   1.334   9.753  0.2601 -0.3490 -0.4886
   59SAPC   H7Y 4530   5.103   1.440   9.759 -0.7774  0.8410  1.3612
   59SAPC   C38 4531   4.942   1.520   9.628  0.0307  0.5939 -0.5813
   59SAPC   H8X 4532   4.959   1.628   9.613  0.7794  1.1089  3.3144
   59SAPC   H8Y 4533   4.831   1.509   9.626  0.2329 -1.5253 -2.7696
   59SAPC   C39 4534   4.988   1.440   9.505 -0.2727  0.1764 -0.2142
   59SAPC   H9X 4535   4.915   1.357   9.501 -1.0339  0.9498 -4.0807
   59SAPC   H9Y 4536   5.084   1.394   9.538 -0.9495 -0.4571  0.8995
   59SAPC  C310 4537   4.992   1.513   9.372  0.2235  0.0183 -0.0149
   59SAPC  H10X 4538   5.068   1.594   9.381 -0.5111  0.5353  1.6717
   59SAPC  H10Y 4539   4.891   1.550   9.344  0.5274  0.4191 -0.5913
   59SAPC  C311 4540   5.046   1.414   9.262 -0.3655 -0.1771  0.0140
   59SAPC  H11X 4541   4.979   1.325   9.260 -0.5772 -0.0158 -0.0374
   59SAPC  H11Y 4542   5.141   1.366   9.295  1.4523  2.2545 -1.4914
   59SAPC  C312 4543   5.060   1.470   9.120 -0.0735  0.1218 -0.3745
   59SAPC  H12X 4544   5.136   1.550   9.136 -1.3975  1.2091  0.6654
   59SAPC  H12Y 4545   4.959   1.506   9.092  0.6901  1.8071 -1.0357
   59SAPC  C313 4546   5.125   1.363   9.021  0.8771  0.0833  0.1093
   59SAPC  H13X 4547   5.048   1.283   9.016 -1.8787  2.5835  1.3311
   59SAPC  H13Y 4548   5.210   1.316   9.075  0.8872 -0.4158 -0.3357
   59SAPC  C314 4549   5.159   1.414   8.882 -0.0632 -0.0904  0.6451
   59SAPC  H14X 4550   5.184   1.329   8.815 -0.3478  0.3499 -0.0254
   59SAPC  H14Y 4551   5.251   1.476   8.884 -2.0634  3.0672 -1.0221
   59SAPC  C315 4552   5.049   1.495   8.815 -0.1678 -0.7197  0.0924
   59SAPC  H15X 4553   5.014   1.582   8.876 -1.2662 -2.7575  2.4736
   59SAPC  H15Y 4554   4.961   1.426   8.813 -3.3259  3.1320 -0.9799
   59SAPC  C316 4555   5.095   1.530   8.670 -0.0544 -0.0468 -0.4170
   59SAPC  H16X 4556   5.131   1.442   8.612  0.3608 -1.9944  2.7035
   59SAPC  H16Y 4557   5.191   1.585   8.676  1.1985 -2.0240 -1.6593
   59SAPC  C317 4558   4.983   1.596   8.599  0.6804 -0.4447  0.0462
   59SAPC  H17X 4559   4.959   1.692   8.649 -0.3077 -1.2388  1.1456
   59SAPC  H17Y 4560   4.896   1.529   8.618 -1.2395  1.6559 -1.1827
   59SAPC  C318 4561   5.000   1.612   8.446  0.4580 -0.1001  0.6464
   59SAPC  H18X 4562   4.984   1.525   8.379  2.0234  0.3178 -0.2801
   59SAPC  H18Y 4563   5.099   1.651   8.417 -0.5231  0.5922 -1.8415
   59SAPC  H18Z 4564   4.926   1.688   8.412  1.0192 -0.6431 -1.8324
   60SAPC     N 4565   0.258   5.971  10.969 -0.3910 -0.1997  0.4247
   60SAPC   C12 4566   0.289   6.002  10.819  0.2537  0.2839 -0.6254
   60SAPC  H12A 4567   0.293   5.911  10.762 -2.4099  0.4258 -1.0633
   60SAPC  H12B 4568   0.390   6.040  10.818  0.5043 -0.3701 -0.6386
   60SAPC   C13 4569   0.359   5.888  11.030  0.1603 -0.3650  0.2196
   60SAPC  H13A 4570   0.385   5.798  10.977 -0.2746 -0.0087 -0.6058
   60SAPC  H13B 4571   0.448   5.939  11.064 -0.1134  0.0078  0.3789
   60SAPC  H13C 4572   0.311   5.850  11.119 -2.0298  0.4255 -0.5857
   60SAPC   C14 4573   0.247   6.094  11.052 -0.8256  0.4147 -0.5685
   60SAPC  H14A 4574   0.226   6.068  11.154  0.1987 -2.1827 -0.9916
   60SAPC  H14B 4575   0.333   6.158  11.064  0.8863 -2.2065  1.8360
   60SAPC  H14C 4576   0.166   6.154  11.012 -0.8100  1.6283  1.1633
   60SAPC   C15 4577   0.126   5.893  10.975 -0.4385  0.1676  0.0150
   60SAPC  H15A 4578   0.102   5.861  11.076  1.1063  1.4304  0.8168
   60SAPC  H15B 4579   0.042   5.957  10.952 -0.2703  0.5813  0.5230
   60SAPC  H15C 4580   0.128   5.803  10.917  0.9402  0.2358 -0.0663
   60SAPC   C11 4581   0.199   6.106  10.744 -0.3209 -0.1336 -0.2313
   60SAPC  H11A 4582   0.096   6.067  10.751 -0.2913 -0.0513  0.6561
   60SAPC  H11B 4583   0.253   6.102  10.647  1.3362  0.3952  0.6363
   60SAPC     P 4584   0.329   6.335  10.776 -0.2144  0.2303 -0.2124
   60SAPC   O13 4585   0.345   6.441  10.873 -0.4677  0.3371 -0.0081
   60SAPC   O14 4586   0.448   6.247  10.754  0.7617 -0.6385 -0.0183
   60SAPC   O12 4587   0.207   6.236  10.804 -0.1606  0.7261  0.5601
   60SAPC   O11 4588   0.288   6.406  10.638 -0.6696 -0.7536  0.1800
   60SAPC    C1 4589   0.155   6.444  10.607  0.6809 -1.0595 -0.0281
   60SAPC    HA 4590   0.090   6.355  10.626 -2.6292  0.8899 -1.7227
   60SAPC    HB 4591   0.124   6.530  10.669 -0.3575  0.5837 -2.7370
   60SAPC    C2 4592   0.155   6.484  10.458  0.1638  0.1863  0.7070
   60SAPC    HS 4593   0.056   6.513  10.416  1.0286 -0.8757 -2.2204
   60SAPC   O21 4594   0.209   6.371  10.382  0.0260  0.2848  0.3599
   60SAPC   C21 4595   0.121   6.274  10.370  0.0184 -1.0016 -0.1059
   60SAPC   O22 4596   0.009   6.267  10.417  0.1158  0.2246  0.2653
   60SAPC   C22 4597   0.186   6.159  10.294  0.3051  1.4080 -0.0222
   60SAPC   H2R 4598   0.271   6.117  10.352 -1.1116 -0.0767  1.0237
   60SAPC   H2S 4599   0.102   6.093  10.262  1.0605  0.7782 -0.7308
   60SAPC    C3 4600   0.246   6.606  10.437 -0.4112  0.3705 -0.6938
   60SAPC    HX 4601   0.348   6.592  10.478 -1.1100 -2.7119  0.1498
   60SAPC    HY 4602   0.206   6.684  10.506  0.9341  0.7741 -0.3540
   60SAPC   O31 4603   0.236   6.652  10.308  0.1656  0.3457  0.3221
   60SAPC   C31 4604   0.326   6.607  10.222 -0.4459  0.3180  0.2736
   60SAPC   O32 4605   0.410   6.521  10.233 -1.0169 -0.7293  0.2903
   60SAPC   C32 4606   0.301   6.689  10.096 -0.6485 -0.3623  0.1717
   60SAPC   H2X 4607   0.395   6.740  10.065 -0.6950  0.0752  0.7354
   60SAPC   H2Y 4608   0.220   6.764  10.109 -0.9186 -0.4231 -1.1027
   60SAPC   C23 4609   0.253   6.208  10.155 -0.0721 -0.5132 -0.0237
   60SAPC   H3R 4610   0.337   6.276  10.181 -0.1742 -1.1036  1.9284
   60SAPC   H3S 4611   0.180   6.266  10.095  0.4544  0.6580  0.4388
   60SAPC   C24 4612   0.304   6.092  10.071  0.4793  0.4120 -0.1552
   60SAPC   H4R 4613   0.388   6.042  10.124 -0.1923 -3.4592 -2.5317
   60SAPC   H4S 4614   0.354   6.141   9.985  1.3968  1.4127  0.9283
   60SAPC   C25 4615   0.203   5.989  10.025  0.3798  0.5834 -0.0638
   60SAPC   H5R 4616   0.154   5.941  10.111 -2.6194  2.0595 -0.8540
   60SAPC   C26 4617   0.169   5.952   9.902 -0.2651  0.2294 -0.5795
   60SAPC   H6R 4618   0.082   5.885   9.894 -0.0500 -0.2911  1.1095
   60SAPC   C27 4619   0.222   6.005   9.770 -0.0083  0.6385 -0.9770
   60SAPC   H7R 4620   0.262   5.925   9.705 -1.0028 -0.5467 -0.1668
   60SAPC   H7S 4621   0.306   6.074   9.791 -0.2529  0.6159  0.1570
   60SAPC   C28 4622   0.124   6.082   9.691  0.2941 -0.3659 -0.4655
   60SAPC   H8R 4623   0.117   6.183   9.734  0.1653 -0.8945  0.7848
   60SAPC   C29 4624   0.044   6.047   9.587  0.4850 -0.2451  0.1620
   60SAPC   H9R 4625  -0.029   6.120   9.548 -1.1034 -2.2327 -0.7203
   60SAPC  C210 4626   0.041   5.908   9.523 -0.0907 -0.2626 -0.3938
   60SAPC  H10R 4627  -0.061   5.874   9.549  0.5218  0.3650  3.0457
   60SAPC  H10S 4628   0.106   5.835   9.576 -0.1198 -1.8596 -2.4965
   60SAPC  C211 4629   0.071   5.892   9.374 -0.2082  0.3213  0.9332
   60SAPC  H11R 4630   0.133   5.803   9.354 -0.8909 -0.0091  0.2520
   60SAPC  C212 4631   0.033   5.963   9.264 -0.2074 -0.0780  0.0808
   60SAPC  H12R 4632   0.057   5.918   9.166 -1.8731  0.7404 -0.7223
   60SAPC  C213 4633  -0.052   6.086   9.252  0.9014 -0.4852  0.7920
   60SAPC  H13R 4634  -0.018   6.129   9.155 -2.5166  1.2622  0.2831
   60SAPC  H13S 4635  -0.016   6.155   9.331 -0.1221 -0.0951  0.9297
   60SAPC  C214 4636  -0.202   6.075   9.272 -0.4758 -0.0108  0.4486
   60SAPC  H14R 4637  -0.230   6.007   9.354 -0.0585 -1.0243 -0.2447
   60SAPC  C215 4638  -0.298   6.147   9.214  0.4147  0.6950  0.1187
   60SAPC  H15R 4639  -0.403   6.124   9.238 -0.1315  2.0134 -0.9753
   60SAPC  C216 4640  -0.282   6.245   9.098  0.4266  1.1283  0.2364
   60SAPC  H16R 4641  -0.182   6.293   9.099  1.5611 -0.9439 -4.0994
   60SAPC  H16S 4642  -0.339   6.337   9.123 -0.6319  0.1546  1.5513
   60SAPC  C217 4643  -0.322   6.189   8.959  0.1340  0.1462 -0.0584
   60SAPC  H17R 4644  -0.427   6.153   8.966  0.4347 -0.3784  2.2601
   60SAPC  H17S 4645  -0.263   6.099   8.931 -1.2057 -0.4706 -0.9210
   60SAPC  C218 4646  -0.312   6.301   8.853  0.6128 -0.3161 -0.3507
   60SAPC  H18R 4647  -0.368   6.392   8.884  1.1414 -0.1043 -0.0077
   60SAPC  H18S 4648  -0.371   6.262   8.767 -1.6608  1.1287  0.4927
   60SAPC  C219 4649  -0.176   6.354   8.814 -0.1275  0.1360  0.5521
   60SAPC  H19R 4650  -0.139   6.391   8.912 -0.4889 -2.9403  1.9248
   60SAPC  H19S 4651  -0.177   6.437   8.740  1.7913 -0.0815  0.2504
   60SAPC  C220 4652  -0.086   6.243   8.754  0.3597 -0.7632 -0.2011
   60SAPC  H20R 4653  -0.047   6.168   8.827  0.9327 -3.2652 -3.0059
   60SAPC  H20S 4654   0.009   6.280   8.710  0.3384  0.0167  0.4101
   60SAPC  H20T 4655  -0.136   6.192   8.669  0.1405 -1.9576  0.6242
   60SAPC   C33 4656   0.264   6.600   9.977 -0.2260 -0.2184  0.0619
   60SAPC   H3X 4657   0.222   6.668   9.899  0.0377  2.0105  1.8156
   60SAPC   H3Y 4658   0.177   6.535  10.004  1.6521 -2.2924  1.2729
   60SAPC   C34 4659   0.369   6.500   9.919  0.1351 -0.3439 -0.5755
   60SAPC   H4X 4660   0.396   6.432  10.002 -2.6506  0.7716  1.3018
   60SAPC   H4Y 4661   0.458   6.561   9.893 -0.5538  0.3719 -1.2739
   60SAPC   C35 4662   0.315   6.421   9.798  0.3622 -0.2150 -0.2767
   60SAPC   H5X 4663   0.211   6.389   9.820 -0.0443  1.3391  0.1195
   60SAPC   H5Y 4664   0.368   6.324   9.786 -0.7857 -0.5154 -3.3961
   60SAPC   C36 4665   0.296   6.506   9.672 -0.3879  0.3154  0.6330
   60SAPC   H6X 4666   0.392   6.553   9.643  0.0824 -0.7763  0.3983
   60SAPC   H6Y 4667   0.224   6.586   9.701  1.1324  1.6438  0.8099
   60SAPC   C37 4668   0.234   6.429   9.551 -0.1537  0.0806  0.0391
   60SAPC   H7X 4669   0.131   6.391   9.567  0.8713 -1.5305  3.3559
   60SAPC   H7Y 4670   0.299   6.339   9.547 -1.9487 -1.3032  0.9654
   60SAPC   C38 4671   0.237   6.522   9.426 -0.3935 -0.7726 -0.0092
   60SAPC   H8X 4672   0.327   6.588   9.423 -1.3881  0.5759 -2.1064
   60SAPC   H8Y 4673   0.149   6.589   9.434 -0.7640 -1.3349  0.6449
   60SAPC   C39 4674   0.231   6.436   9.305  0.4084  0.0960 -0.7479
   60SAPC   H9X 4675   0.132   6.387   9.297 -0.0233  0.5641  1.5455
   60SAPC   H9Y 4676   0.307   6.356   9.322  1.8990  1.2653 -1.7563
   60SAPC  C310 4677   0.254   6.512   9.175 -0.3260  0.7163 -1.0492
   60SAPC  H10X 4678   0.352   6.564   9.172  0.3773 -0.3547  1.4870
   60SAPC  H10Y 4679   0.177   6.589   9.153 -2.1020 -1.2465 -1.8485
   60SAPC  C311 4680   0.257   6.411   9.054 -0.5856 -0.0101  0.3375
   60SAPC  H11X 4681   0.266   6.479   8.967 -1.6480  1.1266  1.1173
   60SAPC  H11Y 4682   0.159   6.359   9.046 -0.7035  0.4059 -1.0471
   60SAPC  C312 4683   0.381   6.318   9.057 -0.0438  0.3764  0.0064
   60SAPC  H12X 4684   0.347   6.250   9.138 -0.4521  0.0314 -0.4545
   60SAPC  H12Y 4685   0.479   6.364   9.080  2.4764 -4.5315 -0.2249
   60SAPC  C313 4686   0.404   6.241   8.921  0.8794  0.0664 -0.4203
   60SAPC  H13X 4687   0.504   6.194   8.913 -0.4458 -2.3180 -4.2410
   60SAPC  H13Y 4688   0.406   6.314   8.837  2.6096 -0.0412 -0.4834
   60SAPC  C314 4689   0.292   6.127   8.896 -0.4095  0.2273 -0.1463
   60SAPC  H14X 4690   0.191   6.160   8.863 -1.3100 -1.7478  0.5494
   60SAPC  H14Y 4691   0.277   6.079   8.995  0.5047 -0.8093 -0.5010
   60SAPC  C315 4692   0.330   6.013   8.810  0.1916 -0.7144  0.4726
   60SAPC  H15X 4693   0.251   5.936   8.817 -0.9266  0.3462 -0.1969
   60SAPC  H15Y 4694   0.423   5.967   8.849  0.9567  0.5492  0.1810
   60SAPC  C316 4695   0.352   6.061   8.668 -0.3745 -0.2303 -0.1510
   60SAPC  H16X 4696   0.414   6.152   8.676  0.4865 -0.6458 -1.9341
   60SAPC  H16Y 4697   0.257   6.103   8.629 -1.4136 -1.1248  1.3539
   60SAPC  C317 4698   0.416   5.958   8.578 -0.0958  0.3705 -0.1034
   60SAPC  H17X 4699   0.403   6.008   8.480 -3.1075  1.3955  0.7608
   60SAPC  H17Y 4700   0.361   5.862   8.570  0.3944  0.1683 -1.0972
   60SAPC  C318 4701   0.565   5.932   8.604  0.1977 -0.6332 -0.1155
   60SAPC  H18X 4702   0.596   5.866   8.521 -0.2086 -0.7863 -0.1430
   60SAPC  H18Y 4703   0.593   5.881   8.699  0.1502  0.1801  0.3477
   60SAPC  H18Z 4704   0.626   6.025   8.601  1.5753 -1.4969  0.6681
   61SAPC     N 4705   2.040   5.429  10.794 -0.6517  0.2301 -0.1032
   61SAPC   C12 4706   1.901   5.382  10.801  0.0573  0.1408  0.3657
   61SAPC  H12A 4707   1.895   5.275  10.791  1.7311  0.0111  0.4811
   61SAPC  H12B 4708   1.840   5.418  10.720 -0.4984 -0.8339  0.3464
   61SAPC   C13 4709   2.117   5.340  10.697 -0.5696  0.3331  0.1382
   61SAPC  H13A 4710   2.115   5.235  10.723  1.7146  0.6172  1.6200
   61SAPC  H13B 4711   2.096   5.349  10.591  2.3499 -1.3025 -0.6402
   61SAPC  H13C 4712   2.221   5.368  10.709 -0.3223  0.1932 -1.4984
   61SAPC   C14 4713   2.041   5.566  10.740  0.1699  0.8916  0.4610
   61SAPC  H14A 4714   2.015   5.567  10.635 -1.3235 -1.3269  0.7877
   61SAPC  H14B 4715   1.971   5.630  10.793 -0.0827  0.7372  0.3149
   61SAPC  H14C 4716   2.142   5.605  10.743  1.2463 -1.6592 -1.3539
   61SAPC   C15 4717   2.101   5.423  10.930 -0.3795 -0.2944 -0.0542
   61SAPC  H15A 4718   2.205   5.447  10.913 -0.4416  0.1351  0.1661
   61SAPC  H15B 4719   2.053   5.488  11.001 -1.5283 -2.5953  1.3383
   61SAPC  H15C 4720   2.088   5.323  10.970  0.0501  0.4064  1.8747
   61SAPC   C11 4721   1.824   5.421  10.928  0.3304 -0.1080 -0.2787
   61SAPC  H11A 4722   1.869   5.391  11.025 -2.1360  2.8720  1.8660
   61SAPC  H11B 4723   1.735   5.355  10.924 -0.6944  1.2029  0.7654
   61SAPC     P 4724   1.662   5.630  10.864  0.4128 -0.0214  0.1321
   61SAPC   O13 4725   1.545   5.596  10.952  0.0147 -0.2715  0.0294
   61SAPC   O14 4726   1.684   5.775  10.849  0.6854 -0.5779 -0.6047
   61SAPC   O12 4727   1.789   5.557  10.933  0.6407 -0.3520  0.8969
   61SAPC   O11 4728   1.651   5.554  10.733  0.3726 -0.1063 -0.0810
   61SAPC    C1 4729   1.547   5.463  10.695  0.0639  0.2942 -0.3231
   61SAPC    HA 4730   1.595   5.365  10.676  0.1816  0.7476 -2.5191
   61SAPC    HB 4731   1.472   5.449  10.775 -0.1019 -0.1682 -0.5554
   61SAPC    C2 4732   1.485   5.519  10.563 -0.4960  0.1798  0.2132
   61SAPC    HS 4733   1.385   5.471  10.553 -0.8360  0.8898  0.2029
   61SAPC   O21 4734   1.569   5.484  10.447  0.3361 -0.6945 -0.1959
   61SAPC   C21 4735   1.554   5.363  10.410 -0.3536  0.9069 -0.8084
   61SAPC   O22 4736   1.477   5.282  10.467 -0.0290 -0.3040  0.1498
   61SAPC   C22 4737   1.641   5.329  10.288 -0.2420  0.5164 -0.3156
   61SAPC   H2R 4738   1.707   5.415  10.267 -0.7653  1.3474  1.4262
   61SAPC   H2S 4739   1.696   5.237  10.318 -0.8804  0.3882  0.4643
   61SAPC    C3 4740   1.450   5.667  10.563 -0.1467 -0.2019 -0.4053
   61SAPC    HX 4741   1.544   5.719  10.534 -1.1509  1.5893 -0.5470
   61SAPC    HY 4742   1.412   5.709  10.659 -0.8345 -0.6341 -0.4855
   61SAPC   O31 4743   1.359   5.699  10.456  0.3912  0.1763 -0.0740
   61SAPC   C31 4744   1.258   5.776  10.472 -0.4140 -0.1389  0.7517
   61SAPC   O32 4745   1.228   5.840  10.571  0.2206  0.0539  0.2901
   61SAPC   C32 4746   1.189   5.796  10.339  0.6122 -0.0858  0.1437
   61SAPC   H2X 4747   1.081   5.794  10.368  0.3682 -0.8169 -0.7839
   61SAPC   H2Y 4748   1.208   5.713  10.268  0.1706  0.3042 -0.4442
   61SAPC   C23 4749   1.559   5.281  10.159 -0.6820 -1.1571 -0.0619
   61SAPC   H3R 4750   1.492   5.195  10.179 -1.0795 -1.0303 -0.8618
   61SAPC   H3S 4751   1.629   5.255  10.077  1.2166  1.7250  0.5628
   61SAPC   C24 4752   1.457   5.395  10.106  0.2964  0.2133 -0.6059
   61SAPC   H4R 4753   1.512   5.471  10.046  1.0835  0.3509  0.2826
   61SAPC   H4S 4754   1.421   5.446  10.198 -0.7832  0.1051 -0.9544
   61SAPC   C25 4755   1.342   5.332  10.044  0.0695  0.1575 -0.0523
   61SAPC   H5R 4756   1.253   5.330  10.109  0.3225 -0.7261  0.2720
   61SAPC   C26 4757   1.337   5.277   9.922 -0.3519  0.2602 -0.0256
   61SAPC   H6R 4758   1.235   5.253   9.888 -0.3532  0.2865 -0.0404
   61SAPC   C27 4759   1.443   5.260   9.817  0.3221  0.3740  0.0232
   61SAPC   H7R 4760   1.520   5.181   9.836 -1.4969 -1.1130  1.3898
   61SAPC   H7S 4761   1.508   5.349   9.825  0.0438  0.3580  2.8651
   61SAPC   C28 4762   1.393   5.233   9.678  0.0594  1.1772  0.2272
   61SAPC   H8R 4763   1.381   5.130   9.642  2.2513  0.3614  1.7443
   61SAPC   C29 4764   1.341   5.327   9.596  0.5315  0.2969  0.6626
   61SAPC   H9R 4765   1.319   5.291   9.494 -0.3134 -2.7605  1.8406
   61SAPC  C210 4766   1.325   5.471   9.621  0.0129  0.1642 -0.4223
   61SAPC  H10R 4767   1.273   5.491   9.717 -1.0323 -1.5685 -0.5964
   61SAPC  H10S 4768   1.253   5.499   9.541 -0.3647  0.8749  0.1599
   61SAPC  C211 4769   1.455   5.549   9.620 -0.2660  0.0573  0.0616
   61SAPC  H11R 4770   1.525   5.518   9.699  1.7685  2.1292 -0.8739
   61SAPC  C212 4771   1.498   5.656   9.539  0.1965  0.4331 -0.0295
   61SAPC  H12R 4772   1.600   5.693   9.560  0.2951  0.6239 -0.8501
   61SAPC  C213 4773   1.422   5.719   9.421 -0.0939  0.0537  0.7268
   61SAPC  H13R 4774   1.367   5.812   9.443  0.0389  0.7430 -1.6512
   61SAPC  H13S 4775   1.344   5.651   9.381 -0.7496  0.5513  1.1598
   61SAPC  C214 4776   1.529   5.749   9.318  0.8609  0.7890 -0.2264
   61SAPC  H14R 4777   1.591   5.839   9.331  4.0356 -1.1979 -0.9455
   61SAPC  C215 4778   1.553   5.675   9.211 -0.0889 -0.0923  0.3809
   61SAPC  H15R 4779   1.627   5.712   9.138  0.3363  1.0351  1.3651
   61SAPC  C216 4780   1.478   5.547   9.169 -0.7354  0.4811  0.0978
   61SAPC  H16R 4781   1.373   5.546   9.205  0.2124  1.3121  3.0580
   61SAPC  H16S 4782   1.537   5.462   9.211 -0.9768  0.5749  0.6309
   61SAPC  C217 4783   1.487   5.546   9.018 -0.6734  0.3955 -0.0317
   61SAPC  H17R 4784   1.589   5.572   8.982  0.1868  1.6576  3.1299
   61SAPC  H17S 4785   1.418   5.626   8.983 -0.4684 -0.6510 -2.9238
   61SAPC  C218 4786   1.450   5.410   8.953 -0.1468  0.1426 -0.3265
   61SAPC  H18R 4787   1.358   5.372   9.001  0.4952  0.2457  0.9886
   61SAPC  H18S 4788   1.525   5.332   8.978  0.8283  0.7807 -1.2183
   61SAPC  C219 4789   1.425   5.408   8.802  0.0083 -0.5180 -0.8748
   61SAPC  H19R 4790   1.348   5.486   8.788 -0.8841 -1.0312  1.1086
   61SAPC  H19S 4791   1.377   5.314   8.766  0.6623 -1.9298  1.8442
   61SAPC  C220 4792   1.555   5.426   8.728 -0.3999  0.2291 -0.4350
   61SAPC  H20R 4793   1.630   5.343   8.732  1.1002  1.6455  3.7187
   61SAPC  H20S 4794   1.603   5.514   8.775 -0.2464 -0.8277  1.4504
   61SAPC  H20T 4795   1.537   5.452   8.622  0.0480 -0.4163 -0.6742
   61SAPC   C33 4796   1.227   5.932  10.265  0.2752 -0.2492  0.0065
   61SAPC   H3X 4797   1.336   5.934  10.247  0.9245 -0.1854  3.4846
   61SAPC   H3Y 4798   1.193   6.016  10.330 -0.7602 -0.1155 -0.6934
   61SAPC   C34 4799   1.169   5.942  10.122  0.4603 -0.0873  0.2770
   61SAPC   H4X 4800   1.212   6.026  10.063  1.3380 -0.2420  0.7011
   61SAPC   H4Y 4801   1.060   5.964  10.127  0.0234 -1.5658 -2.0138
   61SAPC   C35 4802   1.199   5.820  10.037 -0.2049 -0.2915 -0.1018
   61SAPC   H5X 4803   1.133   5.738  10.073 -0.1125 -0.5634 -0.5398
   61SAPC   H5Y 4804   1.304   5.784  10.034 -0.3354 -0.6746 -0.1950
   61SAPC   C36 4805   1.162   5.838   9.889  0.3694 -0.1695 -0.4255
   61SAPC   H6X 4806   1.197   5.749   9.832  0.0547 -0.9761  0.6139
   61SAPC   H6Y 4807   1.220   5.922   9.847  0.2907  0.4987  0.7679
   61SAPC   C37 4808   1.013   5.869   9.863 -0.1195  0.2737 -0.2637
   61SAPC   H7X 4809   0.977   5.966   9.903  0.0583  0.9150 -1.6564
   61SAPC   H7Y 4810   0.948   5.791   9.909 -1.2393  1.3344 -0.0192
   61SAPC   C38 4811   0.974   5.880   9.715 -0.1762 -0.3427  0.1920
   61SAPC   H8X 4812   1.016   5.972   9.671 -0.3169  0.4754  1.7311
   61SAPC   H8Y 4813   0.863   5.890   9.714 -0.0415  1.3292  0.4399
   61SAPC   C39 4814   1.000   5.756   9.628 -0.0828  0.7857  0.3971
   61SAPC   H9X 4815   0.957   5.665   9.676 -1.0134  1.7259  1.3818
   61SAPC   H9Y 4816   1.106   5.723   9.618 -0.0055  1.0555  0.3244
   61SAPC  C310 4817   0.950   5.776   9.486 -0.0719  0.6761 -0.3385
   61SAPC  H10X 4818   0.980   5.875   9.448  3.2730 -0.3260 -0.4288
   61SAPC  H10Y 4819   0.840   5.762   9.492  0.0085  0.0167 -0.3376
   61SAPC  C311 4820   0.988   5.664   9.379  0.3552 -0.7371 -0.1077
   61SAPC  H11X 4821   0.965   5.563   9.418  0.0363 -0.2930  0.8548
   61SAPC  H11Y 4822   1.098   5.650   9.382  0.2799 -1.0715  1.4193
   61SAPC  C312 4823   0.927   5.674   9.245 -0.3650 -0.4496 -0.2366
   61SAPC  H12X 4824   0.955   5.774   9.204  3.4974 -2.0896 -1.9235
   61SAPC  H12Y 4825   0.818   5.658   9.234 -0.2470 -1.4178 -0.0431
   61SAPC  C313 4826   1.013   5.591   9.150  0.1511  0.5024 -0.2283
   61SAPC  H13X 4827   0.995   5.483   9.173  2.2137  0.5392  1.8041
   61SAPC  H13Y 4828   1.119   5.619   9.167  0.5897 -1.1538 -0.0896
   61SAPC  C314 4829   0.963   5.616   9.004 -0.4249  0.1839  0.1733
   61SAPC  H14X 4830   0.985   5.721   8.974 -0.1952  0.9441  2.8344
   61SAPC  H14Y 4831   0.858   5.582   8.990 -0.2306 -0.3278 -0.0528
   61SAPC  C315 4832   1.038   5.529   8.902 -0.2539 -0.3368  0.5074
   61SAPC  H15X 4833   1.019   5.422   8.922 -1.5101  0.0974  1.8063
   61SAPC  H15Y 4834   1.148   5.539   8.909 -0.3320 -0.1835  1.5691
   61SAPC  C316 4835   0.996   5.563   8.760  0.3450 -0.0094  0.6681
   61SAPC  H16X 4836   1.066   5.639   8.721  0.6970 -1.0856 -0.8234
   61SAPC  H16Y 4837   0.897   5.613   8.755  0.8634  1.1315  1.4869
   61SAPC  C317 4838   0.987   5.453   8.662 -0.4892 -0.4507  0.1479
   61SAPC  H17X 4839   0.920   5.473   8.575  0.6266 -1.6023 -0.9904
   61SAPC  H17Y 4840   0.945   5.364   8.714  0.8843 -1.2475 -0.0963
   61SAPC  C318 4841   1.110   5.390   8.612  0.1031  0.3406 -0.0229
   61SAPC  H18X 4842   1.080   5.313   8.538  1.0538 -0.7036  0.6502
   61SAPC  H18Y 4843   1.171   5.340   8.690  0.2019 -3.0396 -2.1775
   61SAPC  H18Z 4844   1.181   5.456   8.557  0.7880 -0.5177 -0.1886
   62SAPC     N 4845   0.839   4.322  11.080  0.3880  0.2081  0.3340
   62SAPC   C12 4846   0.745   4.292  10.964 -0.0841  0.4488 -0.2592
   62SAPC  H12A 4847   0.667   4.367  10.975  0.2071  0.3837  2.4934
   62SAPC  H12B 4848   0.698   4.195  10.969 -0.6001  0.6773 -0.5895
   62SAPC   C13 4849   0.903   4.457  11.055  0.1387  0.2741 -0.4339
   62SAPC  H13A 4850   0.959   4.479  11.145  0.6398 -0.5251 -0.5433
   62SAPC  H13B 4851   0.967   4.426  10.973  0.0768  0.0370 -0.3902
   62SAPC  H13C 4852   0.832   4.532  11.022  2.2837  3.2712  1.3986
   62SAPC   C14 4853   0.765   4.319  11.203  0.1850 -0.1418 -0.2609
   62SAPC  H14A 4854   0.824   4.349  11.288 -1.3524  0.0062  0.7789
   62SAPC  H14B 4855   0.680   4.385  11.191  1.4881  1.7736  0.7892
   62SAPC  H14C 4856   0.723   4.221  11.218 -0.0169  0.1569  1.1772
   62SAPC   C15 4857   0.949   4.217  11.085 -0.1331 -0.3994 -0.1834
   62SAPC  H15A 4858   1.046   4.249  11.120 -0.5824  0.5903  0.1781
   62SAPC  H15B 4859   0.914   4.134  11.145 -2.0013 -1.1905 -2.3368
   62SAPC  H15C 4860   0.962   4.186  10.983 -3.7118  1.8865 -1.4334
   62SAPC   C11 4861   0.801   4.329  10.825  0.0110  0.0799  0.0386
   62SAPC  H11A 4862   0.745   4.274  10.746  0.1552 -2.2001  1.4861
   62SAPC  H11B 4863   0.904   4.286  10.816 -0.1019 -0.2314  0.2325
   62SAPC     P 4864   0.684   4.554  10.746 -0.0995  0.0758 -0.2135
   62SAPC   O13 4865   0.580   4.564  10.852 -0.1576 -0.1872  0.0306
   62SAPC   O14 4866   0.735   4.678  10.686 -0.3177  0.2188 -0.0898
   62SAPC   O12 4867   0.808   4.470  10.797  0.5718  0.6742 -0.0501
   62SAPC   O11 4868   0.629   4.460  10.630  0.5184  0.4024 -0.2682
   62SAPC    C1 4869   0.708   4.407  10.521 -0.3870  0.6937 -0.0654
   62SAPC    HA 4870   0.811   4.449  10.528 -0.9912  2.5418 -1.8056
   62SAPC    HB 4871   0.701   4.296  10.525  1.0099  0.5874 -0.2992
   62SAPC    C2 4872   0.666   4.458  10.383 -0.7917 -0.1450  0.0747
   62SAPC    HS 4873   0.742   4.444  10.303 -1.2545 -0.0330 -0.3875
   62SAPC   O21 4874   0.650   4.604  10.388  0.2540  0.3690  0.1149
   62SAPC   C21 4875   0.764   4.675  10.365 -0.8949 -0.2510  0.1902
   62SAPC   O22 4876   0.873   4.626  10.337 -0.5376  0.1868  0.1490
   62SAPC   C22 4877   0.739   4.820  10.379 -0.4156  0.1767  0.0707
   62SAPC   H2R 4878   0.645   4.846  10.325 -0.4680  0.8290  0.4836
   62SAPC   H2S 4879   0.712   4.845  10.483 -2.0329 -0.7188 -0.0946
   62SAPC    C3 4880   0.524   4.390  10.354 -0.5390  0.1688 -0.5295
   62SAPC    HX 4881   0.444   4.452  10.401 -1.8857 -2.4560  0.7717
   62SAPC    HY 4882   0.526   4.302  10.422  0.1308 -1.3497 -2.4796
   62SAPC   O31 4883   0.489   4.363  10.218  0.0189 -0.3962 -0.4060
   62SAPC   C31 4884   0.521   4.237  10.181 -0.5758  0.1312  0.0868
   62SAPC   O32 4885   0.605   4.167  10.240  0.0517  0.1091 -0.0887
   62SAPC   C32 4886   0.435   4.178  10.063  0.1250 -0.1523 -0.9067
   62SAPC   H2X 4887   0.331   4.216  10.055 -0.5852 -1.3704  1.8799
   62SAPC   H2Y 4888   0.435   4.067  10.075 -0.6792 -0.1163 -0.4974
   62SAPC   C23 4889   0.861   4.913  10.342 -0.7467  0.0080  0.2010
   62SAPC   H3R 4890   0.955   4.860  10.369 -1.0118 -0.2977  0.5360
   62SAPC   H3S 4891   0.851   5.005  10.404  1.8257 -0.6654  1.6708
   62SAPC   C24 4892   0.875   4.956  10.197 -0.0183  0.9828 -0.0289
   62SAPC   H4R 4893   0.976   5.000  10.184  0.8762 -1.1745 -0.7645
   62SAPC   H4S 4894   0.797   5.027  10.163 -1.3892  0.2180  1.4487
   62SAPC   C25 4895   0.879   4.831  10.110  0.3477 -0.4264  0.0653
   62SAPC   H5R 4896   0.962   4.763  10.133 -0.4728 -1.7536 -0.8206
   62SAPC   C26 4897   0.785   4.784  10.022 -0.1926 -0.0338 -0.9698
   62SAPC   H6R 4898   0.800   4.697   9.955  2.0448 -0.1408 -0.3744
   62SAPC   C27 4899   0.662   4.859   9.985 -0.0041  0.2223 -0.0956
   62SAPC   H7R 4900   0.685   4.927   9.900 -1.4224  0.5550 -0.2148
   62SAPC   H7S 4901   0.633   4.934  10.061 -0.1406  1.1660 -1.0744
   62SAPC   C28 4902   0.547   4.774   9.944 -0.2343  0.3414  0.2453
   62SAPC   H8R 4903   0.474   4.754  10.024 -2.2472  0.1750 -1.5877
   62SAPC   C29 4904   0.513   4.739   9.816  0.2302 -0.2128  0.5199
   62SAPC   H9R 4905   0.416   4.689   9.797 -0.1481 -0.6571  3.4035
   62SAPC  C210 4906   0.581   4.758   9.686  0.4391  0.3935 -0.3948
   62SAPC  H10R 4907   0.563   4.861   9.649 -0.6761  0.5191  0.4489
   62SAPC  H10S 4908   0.543   4.690   9.607 -0.5405  1.6099 -1.0041
   62SAPC  C211 4909   0.732   4.739   9.670 -0.3450  0.3517 -0.0676
   62SAPC  H11R 4910   0.787   4.707   9.759 -3.0697  0.7726  1.8261
   62SAPC  C212 4911   0.794   4.732   9.555 -0.6635 -0.5296 -0.3779
   62SAPC  H12R 4912   0.901   4.709   9.563 -0.5779 -0.5905 -1.6901
   62SAPC  C213 4913   0.747   4.753   9.416  0.3262  0.6191  0.4763
   62SAPC  H13R 4914   0.808   4.838   9.379  0.5689  0.0077 -0.5673
   62SAPC  H13S 4915   0.640   4.786   9.415  0.0899 -0.0538  2.4722
   62SAPC  C214 4916   0.776   4.631   9.331  0.4852 -0.1476 -0.4598
   62SAPC  H14R 4917   0.746   4.534   9.372  2.9103 -0.8729 -0.3081
   62SAPC  C215 4918   0.800   4.638   9.201  0.4231  0.1498  0.6360
   62SAPC  H15R 4919   0.808   4.543   9.146  1.8986  0.8886 -0.4801
   62SAPC  C216 4920   0.806   4.758   9.111  0.2085 -0.5275  0.2053
   62SAPC  H16R 4921   0.896   4.761   9.047 -0.9941 -0.5659 -1.5268
   62SAPC  H16S 4922   0.805   4.850   9.172 -1.3521 -1.2886  1.3893
   62SAPC  C217 4923   0.685   4.772   9.011  0.0092 -0.1415 -0.1887
   62SAPC  H17R 4924   0.682   4.866   8.952 -0.0725 -1.0659 -1.6842
   62SAPC  H17S 4925   0.592   4.759   9.070 -0.1294  1.9995  0.0914
   62SAPC  C218 4926   0.685   4.663   8.898 -0.4199 -0.3260  0.4070
   62SAPC  H18R 4927   0.677   4.565   8.949  0.0613 -0.8682 -0.5647
   62SAPC  H18S 4928   0.781   4.651   8.843  0.6783 -0.5737  2.3166
   62SAPC  C219 4929   0.579   4.684   8.791  0.2608 -0.1666 -0.4887
   62SAPC  H19R 4930   0.477   4.699   8.834  1.0025  0.5086  1.0749
   62SAPC  H19S 4931   0.570   4.585   8.741 -0.8281 -0.4321  0.2006
   62SAPC  C220 4932   0.596   4.799   8.691 -0.0259 -0.5221  0.1155
   62SAPC  H20R 4933   0.526   4.790   8.606 -2.8517 -1.1051  2.4176
   62SAPC  H20S 4934   0.702   4.808   8.658 -1.1211 -0.9780 -3.7911
   62SAPC  H20T 4935   0.580   4.899   8.738 -1.0711 -1.2175  1.2651
   62SAPC   C33 4936   0.500   4.205   9.933 -0.3409  0.9467  0.7644
   62SAPC   H3X 4937   0.608   4.181   9.930 -0.5877 -0.0961 -0.2875
   62SAPC   H3Y 4938   0.485   4.310   9.899 -0.3265  0.5125 -0.6096
   62SAPC   C34 4939   0.422   4.140   9.820 -0.3787  0.4564 -0.1923
   62SAPC   H4X 4940   0.316   4.171   9.825 -0.3803  0.2060  1.9308
   62SAPC   H4Y 4941   0.422   4.030   9.832 -0.0641  0.3343 -1.3283
   62SAPC   C35 4942   0.470   4.182   9.680 -0.3991  0.2321  0.0818
   62SAPC   H5X 4943   0.419   4.115   9.607 -1.5066 -0.5996  1.5959
   62SAPC   H5Y 4944   0.579   4.158   9.673 -0.5121 -0.3595  0.2921
   62SAPC   C36 4945   0.442   4.334   9.641  0.3489  0.2214  0.1182
   62SAPC   H6X 4946   0.476   4.407   9.717 -0.0857  0.4515  0.0919
   62SAPC   H6Y 4947   0.334   4.356   9.632  0.9461  2.9008 -0.7572
   62SAPC   C37 4948   0.499   4.359   9.498  0.0403 -0.1018  0.3731
   62SAPC   H7X 4949   0.607   4.341   9.517  0.1811 -0.1674 -0.4658
   62SAPC   H7Y 4950   0.482   4.468   9.483 -0.2772 -0.0469  1.0674
   62SAPC   C38 4951   0.439   4.278   9.384 -0.5240 -0.6089  0.2079
   62SAPC   H8X 4952   0.331   4.304   9.369 -0.1650  1.8272  1.4989
   62SAPC   H8Y 4953   0.439   4.170   9.409  1.0238 -0.4454  0.9467
   62SAPC   C39 4954   0.512   4.302   9.248  0.5026  0.7883  0.0026
   62SAPC   H9X 4955   0.606   4.242   9.249 -0.9317 -1.5869 -1.1600
   62SAPC   H9Y 4956   0.536   4.410   9.246 -0.7680  1.1193  1.5279
   62SAPC  C310 4957   0.435   4.268   9.119 -0.0818  0.2734 -0.5370
   62SAPC  H10X 4958   0.356   4.346   9.121  0.2819  0.6270  0.3050
   62SAPC  H10Y 4959   0.403   4.162   9.122  1.7988 -0.2778  2.5639
   62SAPC  C311 4960   0.506   4.288   8.988 -0.1551  0.1801 -0.0641
   62SAPC  H11X 4961   0.583   4.367   8.996 -1.6208  1.7129 -0.7930
   62SAPC  H11Y 4962   0.433   4.325   8.913  1.3657 -0.3876 -1.8729
   62SAPC  C312 4963   0.577   4.162   8.927 -0.6533 -0.7166 -0.2746
   62SAPC  H12X 4964   0.500   4.082   8.923  0.9944 -2.3986  0.5244
   62SAPC  H12Y 4965   0.667   4.129   8.983  1.0397 -0.0688 -2.5391
   62SAPC  C313 4966   0.628   4.189   8.782 -0.4718 -0.1510  0.0767
   62SAPC  H13X 4967   0.681   4.286   8.777 -1.9641  0.7179  0.6452
   62SAPC  H13Y 4968   0.536   4.206   8.721 -1.0538  0.2992  1.0630
   62SAPC  C314 4969   0.722   4.075   8.729 -0.7882 -0.0596 -0.8104
   62SAPC  H14X 4970   0.807   4.045   8.794 -2.3734  0.8525  1.7468
   62SAPC  H14Y 4971   0.765   4.106   8.631 -1.2282 -1.5561 -1.4844
   62SAPC  C315 4972   0.634   3.951   8.695  0.0390 -0.2169 -0.9026
   62SAPC  H15X 4973   0.542   3.980   8.641  0.1447  0.9714 -0.4811
   62SAPC  H15Y 4974   0.601   3.887   8.779 -1.3289  0.6745 -0.7551
   62SAPC  C316 4975   0.711   3.865   8.596  0.5134 -0.5623  0.0874
   62SAPC  H16X 4976   0.819   3.869   8.620  0.4101 -0.7905  0.6026
   62SAPC  H16Y 4977   0.701   3.899   8.491 -2.0689 -0.8221  0.2156
   62SAPC  C317 4978   0.676   3.720   8.599 -0.4260  0.2729  0.6970
   62SAPC  H17X 4979   0.573   3.705   8.560  0.4329 -0.1616 -1.4275
   62SAPC  H17Y 4980   0.689   3.670   8.698 -2.8821 -4.5259 -1.2213
   62SAPC  C318 4981   0.755   3.643   8.497  0.2172  0.0119  0.1794
   62SAPC  H18X 4982   0.732   3.667   8.390  0.0037 -0.2442  0.1691
   62SAPC  H18Y 4983   0.728   3.538   8.520  2.4600 -0.4219  0.9674
   62SAPC  H18Z 4984   0.865   3.656   8.510  0.6614 -3.4369  0.3918
   63SAPC     N 4985   4.808   3.567   6.361  0.5997 -0.1004  0.3487
   63SAPC   C12 4986   4.719   3.663   6.276  0.4644  0.0357 -0.3048
   63SAPC  H12A 4987   4.629   3.693   6.328 -0.8577  0.2043 -2.5897
   63SAPC  H12B 4988   4.696   3.606   6.187  0.7140  0.7699 -0.8477
   63SAPC   C13 4989   4.875   3.646   6.472  0.1225  0.5164  0.2895
   63SAPC  H13A 4990   4.958   3.590   6.514 -0.2121 -2.0244 -2.2396
   63SAPC  H13B 4991   4.910   3.738   6.428 -2.5160  1.1607 -0.5739
   63SAPC  H13C 4992   4.799   3.673   6.544  0.2283 -0.4863  0.7967
   63SAPC   C14 4993   4.727   3.454   6.419 -0.1724 -0.1751  0.5134
   63SAPC  H14A 4994   4.793   3.384   6.467 -1.2963 -2.6309 -1.3610
   63SAPC  H14B 4995   4.659   3.485   6.497 -2.1288  0.0946 -1.2331
   63SAPC  H14C 4996   4.672   3.409   6.337 -0.5391  0.8854  0.1653
   63SAPC   C15 4997   4.900   3.497   6.264 -0.8109  0.5306  0.2994
   63SAPC  H15A 4998   4.836   3.457   6.187  0.0148 -0.5244  0.1481
   63SAPC  H15B 4999   4.981   3.551   6.217  0.0618 -0.3424  0.7688
   63SAPC  H15C 5000   4.957   3.423   6.318 -1.9436  0.0278  0.8213
   63SAPC   C11 5001   4.788   3.796   6.233  0.0124 -0.1427  0.2119
   63SAPC  H11A 5002   4.731   3.841   6.149  0.3189 -2.0602 -1.0708
   63SAPC  H11B 5003   4.885   3.756   6.196  0.0487 -1.9427  2.1581
   63SAPC     P 5004   4.689   3.953   6.419  0.5288  0.2614 -0.4229
   63SAPC   O13 5005   4.585   3.993   6.322 -0.4389  0.2391  0.3135
   63SAPC   O14 5006   4.647   3.867   6.534  0.1160 -0.0409  0.3781
   63SAPC   O12 5007   4.808   3.890   6.339 -0.0218 -0.4839 -0.0193
   63SAPC   O11 5008   4.753   4.084   6.487 -0.0758  0.3354  0.2634
   63SAPC    C1 5009   4.891   4.082   6.526  0.1008 -0.5509  0.6163
   63SAPC    HA 5010   4.954   4.064   6.436 -0.4306 -0.9477  0.3211
   63SAPC    HB 5011   4.920   4.185   6.557 -1.4864  1.1618 -3.2661
   63SAPC    C2 5012   4.931   3.989   6.639 -0.2385 -0.2828  0.3168
   63SAPC    HS 5013   4.928   3.886   6.598  0.0367 -0.5250  0.8986
   63SAPC   O21 5014   4.836   4.005   6.744 -0.4499 -0.4805  0.2081
   63SAPC   C21 5015   4.806   3.894   6.812 -0.3342 -0.5740  0.3263
   63SAPC   O22 5016   4.852   3.782   6.798 -0.7876 -0.0202  0.6803
   63SAPC   C22 5017   4.698   3.936   6.909 -0.2626 -0.0630  0.6361
   63SAPC   H2R 5018   4.627   3.998   6.851 -2.1414 -1.8105  1.0012
   63SAPC   H2S 5019   4.644   3.847   6.949 -0.0901 -0.0705  0.8507
   63SAPC    C3 5020   5.081   4.003   6.697  0.3641 -0.1352 -0.7186
   63SAPC    HX 5021   5.088   4.110   6.726 -0.4756  0.2910 -2.0066
   63SAPC    HY 5022   5.143   3.987   6.606  0.4378 -0.1834 -0.6596
   63SAPC   O31 5023   5.111   3.925   6.811 -0.2697 -0.1659  0.0941
   63SAPC   C31 5024   5.192   3.809   6.791  0.2259 -0.2170 -0.4154
   63SAPC   O32 5025   5.247   3.796   6.686  0.2683 -0.1196 -0.2384
   63SAPC   C32 5026   5.186   3.711   6.914 -0.6101  0.6256 -0.2334
   63SAPC   H2X 5027   5.113   3.633   6.884  0.0177 -0.2667  0.5361
   63SAPC   H2Y 5028   5.145   3.771   6.998 -1.4854 -0.3826  0.0715
   63SAPC   C23 5029   4.755   4.023   7.026  0.4485 -0.3471  0.4947
   63SAPC   H3R 5030   4.671   4.069   7.083  0.9561  3.0459 -1.3892
   63SAPC   H3S 5031   4.805   4.109   6.977  1.3473 -1.1867 -0.0638
   63SAPC   C24 5032   4.858   3.951   7.120 -0.0904  0.2469  0.0748
   63SAPC   H4R 5033   4.898   4.034   7.181 -0.9779  0.6658  0.1000
   63SAPC   H4S 5034   4.944   3.918   7.058 -0.3463  1.7094 -1.0621
   63SAPC   C25 5035   4.809   3.833   7.191  0.6677  0.0422 -0.1909
   63SAPC   H5R 5036   4.756   3.759   7.129 -1.6991 -2.4185  4.5486
   63SAPC   C26 5037   4.830   3.803   7.315  0.5779  0.8278 -0.8588
   63SAPC   H6R 5038   4.809   3.701   7.350 -2.1568  0.9964 -1.8605
   63SAPC   C27 5039   4.898   3.879   7.427  0.3706  0.2018  0.4901
   63SAPC   H7R 5040   4.907   3.980   7.381 -1.5560  0.0002 -0.4142
   63SAPC   H7S 5041   4.998   3.838   7.451 -0.3623 -1.5100  0.6577
   63SAPC   C28 5042   4.799   3.905   7.537  0.0955  0.5492  0.1659
   63SAPC   H8R 5043   4.742   3.999   7.534  0.7852  1.0020  1.2628
   63SAPC   C29 5044   4.772   3.835   7.645  0.2023  0.0902 -0.6629
   63SAPC   H9R 5045   4.704   3.881   7.719  1.1320  2.6523 -1.3422
   63SAPC  C210 5046   4.834   3.698   7.677  0.3480  0.7888  0.1802
   63SAPC  H10R 5047   4.888   3.702   7.774  2.1614 -1.5248 -0.6932
   63SAPC  H10S 5048   4.905   3.666   7.598 -0.4800 -1.0679  0.1559
   63SAPC  C211 5049   4.734   3.592   7.692 -0.5697 -0.4751 -0.0998
   63SAPC  H11R 5050   4.701   3.549   7.596 -2.2665  0.4392  0.0587
   63SAPC  C212 5051   4.675   3.547   7.802  0.9144 -0.4818 -0.0868
   63SAPC  H12R 5052   4.598   3.469   7.793 -0.4193  0.4443  2.7960
   63SAPC  C213 5053   4.703   3.601   7.940  0.0690 -0.3470  0.5281
   63SAPC  H13R 5054   4.607   3.583   7.993  0.4881  0.8857  1.7660
   63SAPC  H13S 5055   4.698   3.712   7.944  0.3090 -0.1941 -2.2945
   63SAPC  C214 5056   4.825   3.558   8.017 -0.1787  0.7939  0.9509
   63SAPC  H14R 5057   4.910   3.576   7.949 -0.4910 -0.3422  0.2529
   63SAPC  C215 5058   4.840   3.504   8.131 -0.1974  0.1294 -0.5869
   63SAPC  H15R 5059   4.940   3.477   8.169 -1.2570  0.6244  2.6387
   63SAPC  C216 5060   4.729   3.462   8.220  0.0695 -0.0941 -0.0045
   63SAPC  H16R 5061   4.748   3.355   8.245  2.4088 -0.0222 -1.3339
   63SAPC  H16S 5062   4.634   3.471   8.164  0.8310 -2.0355 -1.6833
   63SAPC  C217 5063   4.730   3.542   8.346  0.4358  0.2048  0.0597
   63SAPC  H17R 5064   4.685   3.641   8.323 -0.4648 -0.3935 -0.7800
   63SAPC  H17S 5065   4.836   3.562   8.375  0.5651 -1.5847  0.8760
   63SAPC  C218 5066   4.650   3.478   8.456  0.3989  0.4824  1.2765
   63SAPC  H18R 5067   4.666   3.522   8.557 -0.5450  0.9076  1.2390
   63SAPC  H18S 5068   4.682   3.372   8.467  0.3669  0.2288 -0.7470
   63SAPC  C219 5069   4.495   3.481   8.438  0.2006 -0.6996 -0.2049
   63SAPC  H19R 5070   4.474   3.429   8.342 -2.1064 -0.3951  0.0991
   63SAPC  H19S 5071   4.452   3.582   8.422 -1.1306 -0.9813  1.3574
   63SAPC  C220 5072   4.428   3.412   8.563  0.7428  0.0974 -0.1594
   63SAPC  H20R 5073   4.455   3.466   8.656  1.6895 -1.1218  0.2849
   63SAPC  H20S 5074   4.454   3.304   8.560  1.8017  0.3747 -1.8159
   63SAPC  H20T 5075   4.319   3.431   8.564  0.6773 -0.2532  2.0060
   63SAPC   C33 5076   5.323   3.646   6.945  0.2871  0.5154 -0.7110
   63SAPC   H3X 5077   5.397   3.727   6.957  1.8964 -1.2602  1.8299
   63SAPC   H3Y 5078   5.361   3.582   6.863  1.7894 -0.9190  1.0585
   63SAPC   C34 5079   5.320   3.564   7.073  0.0755 -0.5853  0.8582
   63SAPC   H4X 5080   5.409   3.497   7.077  2.5038  2.6004  2.6460
   63SAPC   H4Y 5081   5.233   3.500   7.098 -0.9871  0.6091  0.2755
   63SAPC   C35 5082   5.343   3.663   7.187 -0.3197  0.0123 -0.5042
   63SAPC   H5X 5083   5.280   3.755   7.184  1.3895  1.2165 -0.3016
   63SAPC   H5Y 5084   5.451   3.690   7.190 -0.3545 -0.0394  1.7730
   63SAPC   C36 5085   5.325   3.598   7.325  0.1906 -0.1840 -0.3103
   63SAPC   H6X 5086   5.385   3.505   7.332 -1.6784 -1.3763  0.0807
   63SAPC   H6Y 5087   5.217   3.574   7.333 -0.0499  0.8788 -0.3100
   63SAPC   C37 5088   5.372   3.691   7.434  0.0178  0.3353 -0.4646
   63SAPC   H7X 5089   5.328   3.792   7.427  0.6898  0.4822 -2.9732
   63SAPC   H7Y 5090   5.481   3.700   7.416  0.0399  0.2216 -0.3914
   63SAPC   C38 5091   5.361   3.620   7.566  0.5066  0.5273 -0.7985
   63SAPC   H8X 5092   5.398   3.516   7.575 -1.0524  0.0308  0.2045
   63SAPC   H8Y 5093   5.253   3.621   7.593  0.6927  0.7462 -0.0602
   63SAPC   C39 5094   5.422   3.703   7.685 -0.4111  0.0347  0.0365
   63SAPC   H9X 5095   5.382   3.807   7.684 -1.1475 -0.2440  0.3720
   63SAPC   H9Y 5096   5.533   3.710   7.687 -0.2777 -1.8667 -0.1294
   63SAPC  C310 5097   5.374   3.638   7.823 -0.5647  0.3974  0.8057
   63SAPC  H10X 5098   5.416   3.535   7.823 -1.6261 -0.0623 -0.4483
   63SAPC  H10Y 5099   5.265   3.630   7.840 -0.9529  1.7344 -0.9494
   63SAPC  C311 5100   5.448   3.699   7.941 -1.1489 -0.6126  0.8331
   63SAPC  H11X 5101   5.380   3.779   7.980  1.3713  1.2692  1.5103
   63SAPC  H11Y 5102   5.538   3.746   7.898 -2.4309  0.8433 -0.3194
   63SAPC  C312 5103   5.490   3.599   8.046 -0.5350  0.3210 -1.2558
   63SAPC  H12X 5104   5.553   3.513   8.014 -1.3356 -1.1109  0.8390
   63SAPC  H12Y 5105   5.394   3.556   8.083 -0.5642  1.4522  0.0100
   63SAPC  C313 5106   5.554   3.653   8.176  0.1755 -0.4554 -0.0915
   63SAPC  H13X 5107   5.477   3.714   8.228  1.1294 -1.8215  2.9952
   63SAPC  H13Y 5108   5.644   3.714   8.156  1.3048 -1.6318  1.3619
   63SAPC  C314 5109   5.609   3.541   8.265  0.3402  0.2222  0.0193
   63SAPC  H14X 5110   5.686   3.480   8.213  0.2421 -0.7979  1.0435
   63SAPC  H14Y 5111   5.541   3.464   8.308  0.1312 -0.1626 -0.9984
   63SAPC  C315 5112   5.685   3.598   8.386 -0.5988 -0.3073  0.3637
   63SAPC  H15X 5113   5.718   3.704   8.378  0.0996 -0.6988 -2.6232
   63SAPC  H15Y 5114   5.777   3.538   8.402 -1.8634 -2.4279 -0.1204
   63SAPC  C316 5115   5.594   3.576   8.513 -1.0818 -0.6579  0.1493
   63SAPC  H16X 5116   5.490   3.607   8.486 -1.9614 -0.1079  3.8945
   63SAPC  H16Y 5117   5.619   3.640   8.600  2.8525 -2.1499  0.2120
   63SAPC  C317 5118   5.592   3.426   8.562  0.1733 -0.3609  0.9720
   63SAPC  H17X 5119   5.689   3.378   8.586 -0.5559 -1.9838  0.7288
   63SAPC  H17Y 5120   5.547   3.361   8.484 -1.8273  0.1771  1.6486
   63SAPC  C318 5121   5.499   3.412   8.686  0.1687 -0.7202  1.1948
   63SAPC  H18X 5122   5.537   3.468   8.774 -1.7427  0.2711  1.4135
   63SAPC  H18Y 5123   5.494   3.304   8.711  0.3137 -1.4449 -1.8268
   63SAPC  H18Z 5124   5.397   3.454   8.668  0.3065 -1.2469 -0.8532
   64SAPC     N 5125   0.991   4.104   6.127  0.3010 -0.2319  0.3891
   64SAPC   C12 5126   0.941   3.970   6.078  0.0034  0.2878 -0.2041
   64SAPC  H12A 5127   1.006   3.890   6.108  0.8010  0.8897 -0.3197
   64SAPC  H12B 5128   0.960   3.967   5.972 -1.8401 -0.8807 -0.5265
   64SAPC   C13 5129   0.937   4.132   6.266 -0.7158  0.2431  0.2667
   64SAPC  H13A 5130   0.968   4.228   6.305 -1.1724  1.1819 -1.6018
   64SAPC  H13B 5131   0.829   4.133   6.272 -0.7274  4.1392  0.6141
   64SAPC  H13C 5132   0.977   4.057   6.333 -1.1642 -0.4951 -0.2939
   64SAPC   C14 5133   1.138   4.108   6.136 -0.0464 -0.4947 -0.3014
   64SAPC  H14A 5134   1.176   4.027   6.196  0.8073 -0.7592 -1.1697
   64SAPC  H14B 5135   1.184   4.097   6.038  0.0168  1.4252 -0.5190
   64SAPC  H14C 5136   1.179   4.197   6.183 -1.0060  0.1485 -0.6636
   64SAPC   C15 5137   0.937   4.222   6.046 -0.4304 -0.0115 -0.3894
   64SAPC  H15A 5138   0.965   4.319   6.084 -0.6149 -0.0881 -0.0567
   64SAPC  H15B 5139   0.972   4.214   5.944 -1.0466  0.2983 -0.6292
   64SAPC  H15C 5140   0.830   4.205   6.044  0.0443 -3.3294 -0.4321
   64SAPC   C11 5141   0.795   3.932   6.098  0.1734 -0.5059  0.3096
   64SAPC  H11A 5142   0.774   3.901   6.203 -1.7398  1.1371  0.4390
   64SAPC  H11B 5143   0.786   3.835   6.045  2.6278  0.0679 -1.2040
   64SAPC     P 5144   0.538   4.013   6.080  0.0534  0.1286 -0.6569
   64SAPC   O13 5145   0.470   4.124   6.010 -0.1674 -0.8085 -0.3549
   64SAPC   O14 5146   0.494   3.876   6.039  0.4868  0.0073  0.8683
   64SAPC   O12 5147   0.692   4.024   6.055 -0.2592 -0.2987  0.2167
   64SAPC   O11 5148   0.529   4.027   6.240 -0.0223 -0.7524  0.2029
   64SAPC    C1 5149   0.554   4.154   6.307 -0.3687  0.7667 -0.4527
   64SAPC    HA 5150   0.658   4.161   6.344 -0.5323  0.3532  0.0823
   64SAPC    HB 5151   0.549   4.237   6.233 -1.1439  1.8044  0.7447
   64SAPC    C2 5152   0.465   4.175   6.431  0.0716  0.0791  0.3129
   64SAPC    HS 5153   0.492   4.278   6.463  0.2368  0.2343 -0.3016
   64SAPC   O21 5154   0.507   4.078   6.528 -0.2944  0.0122  0.2767
   64SAPC   C21 5155   0.497   4.114   6.655 -0.3119  0.6398  0.1950
   64SAPC   O22 5156   0.462   4.227   6.687 -0.4993 -0.1364 -0.3231
   64SAPC   C22 5157   0.530   3.993   6.748  0.5394  0.4070 -0.0136
   64SAPC   H2R 5158   0.490   3.897   6.708 -0.1735  0.3495  0.8165
   64SAPC   H2S 5159   0.640   3.982   6.741  0.3920 -0.8846 -0.4098
   64SAPC    C3 5160   0.312   4.169   6.394  0.0926  0.1556  0.0460
   64SAPC    HX 5161   0.291   4.061   6.377 -2.4025  0.8143 -1.2606
   64SAPC    HY 5162   0.282   4.211   6.296 -3.1910 -2.3114 -0.0691
   64SAPC   O31 5163   0.233   4.237   6.494  0.3278  0.0449 -0.4783
   64SAPC   C31 5164   0.185   4.156   6.580  0.2989  0.7115 -0.7518
   64SAPC   O32 5165   0.194   4.034   6.572 -0.0710 -0.3619  0.3804
   64SAPC   C32 5166   0.126   4.232   6.696 -0.5031 -0.3330 -0.4885
   64SAPC   H2X 5167   0.059   4.310   6.655 -0.0673 -0.4271 -1.3762
   64SAPC   H2Y 5168   0.213   4.284   6.742 -1.1774  0.1284  0.2688
   64SAPC   C23 5169   0.485   4.011   6.891  0.0829 -0.2284 -0.0194
   64SAPC   H3R 5170   0.376   4.030   6.901  0.2144 -0.6463  2.6215
   64SAPC   H3S 5171   0.532   4.102   6.934  0.3472 -0.6485  0.5903
   64SAPC   C24 5172   0.531   3.893   6.974  0.0151  0.0811 -0.3946
   64SAPC   H4R 5173   0.523   3.926   7.080  0.0425  2.0089 -0.9588
   64SAPC   H4S 5174   0.635   3.869   6.942 -1.1099 -0.4336 -3.9339
   64SAPC   C25 5175   0.442   3.780   6.943 -0.5166  0.3286  0.4331
   64SAPC   H5R 5176   0.468   3.721   6.853 -0.6453 -0.0920  0.6717
   64SAPC   C26 5177   0.335   3.742   7.015  1.0806  0.4095 -0.0620
   64SAPC   H6R 5178   0.296   3.643   6.984 -0.8466 -0.0265  3.4849
   64SAPC   C27 5179   0.270   3.799   7.141  0.5546  0.0156  0.2556
   64SAPC   H7R 5180   0.343   3.781   7.222  3.4448  0.7291 -2.0961
   64SAPC   H7S 5181   0.184   3.734   7.171  0.9071 -0.2490  0.6888
   64SAPC   C28 5182   0.222   3.941   7.148 -0.0709 -0.0909 -0.0684
   64SAPC   H8R 5183   0.225   3.995   7.052  1.3672 -1.4203 -0.7742
   64SAPC   C29 5184   0.164   4.008   7.251  0.3549 -0.7203 -0.1602
   64SAPC   H9R 5185   0.127   4.110   7.238 -0.5759 -1.0204  0.1246
   64SAPC  C210 5186   0.136   3.946   7.385  0.3121  0.0139  1.0013
   64SAPC  H10R 5187   0.129   3.836   7.374  0.3629  0.1466 -0.4958
   64SAPC  H10S 5188   0.035   3.978   7.418  1.1403  1.0570  2.5782
   64SAPC  C211 5189   0.229   3.979   7.489  0.4725  0.2677 -0.0395
   64SAPC  H11R 5190   0.336   3.969   7.463  0.2958  1.2458 -1.2176
   64SAPC  C212 5191   0.203   4.028   7.612 -0.1386  0.3265 -0.7499
   64SAPC  H12R 5192   0.282   4.051   7.686 -1.0914  0.6625  0.1740
   64SAPC  C213 5193   0.070   4.051   7.667 -0.1348 -0.5008 -0.9035
   64SAPC  H13R 5194   0.023   3.955   7.696  1.1894 -0.1272  2.6746
   64SAPC  H13S 5195   0.001   4.095   7.591 -1.1100  1.8506  1.2657
   64SAPC  C214 5196   0.062   4.153   7.778  0.4012 -0.1029  0.4417
   64SAPC  H14R 5197   0.063   4.259   7.749  0.6701 -0.8657 -2.4625
   64SAPC  C215 5198   0.048   4.126   7.906 -0.0914  0.0801 -0.5522
   64SAPC  H15R 5199   0.037   4.202   7.985  0.1854  0.7172 -1.1166
   64SAPC  C216 5200   0.048   3.984   7.968  0.0581 -0.6985  0.5388
   64SAPC  H16R 5201   0.086   3.903   7.902  0.3783 -1.1281  1.2434
   64SAPC  H16S 5202  -0.056   3.954   7.989 -0.8916  1.9060 -0.2942
   64SAPC  C217 5203   0.122   3.967   8.095  0.3878  0.4046  0.3372
   64SAPC  H17R 5204   0.088   4.032   8.178  0.1333  1.8199 -0.8508
   64SAPC  H17S 5205   0.225   4.009   8.090  0.5595  0.3789  3.0379
   64SAPC  C218 5206   0.130   3.815   8.143  0.2871  0.0330  0.1032
   64SAPC  H18R 5207   0.206   3.770   8.074 -0.1118  0.6463 -0.7526
   64SAPC  H18S 5208   0.033   3.761   8.138  1.0073 -1.2741  0.0526
   64SAPC  C219 5209   0.176   3.803   8.287  0.0823 -0.1311 -0.7615
   64SAPC  H19R 5210   0.101   3.858   8.347 -0.6317 -0.5745 -1.2464
   64SAPC  H19S 5211   0.274   3.854   8.299 -0.9065  1.5196  0.5783
   64SAPC  C220 5212   0.167   3.658   8.337 -0.7179 -0.3209 -0.1372
   64SAPC  H20R 5213   0.193   3.663   8.445 -1.8449 -0.4350  0.1493
   64SAPC  H20S 5214   0.235   3.595   8.276  2.5542  1.1248  1.8671
   64SAPC  H20T 5215   0.058   3.637   8.330 -0.9584 -0.8879  3.8148
   64SAPC   C33 5216   0.060   4.138   6.798  0.2814 -0.4746 -0.0570
   64SAPC   H3X 5217   0.117   4.043   6.810  1.4429  0.2069 -0.0981
   64SAPC   H3Y 5218  -0.045   4.124   6.763  0.2582 -2.2961  0.7020
   64SAPC   C34 5219   0.042   4.203   6.942 -0.5875 -0.1323 -0.1542
   64SAPC   H4X 5220   0.139   4.228   6.990 -0.5023 -0.9034  0.0938
   64SAPC   H4Y 5221  -0.009   4.133   7.012 -0.2958 -0.6639 -0.4622
   64SAPC   C35 5222  -0.046   4.329   6.939 -0.1677  0.0269 -0.3150
   64SAPC   H5X 5223  -0.139   4.289   6.893 -0.1889  1.7829 -1.8470
   64SAPC   H5Y 5224  -0.013   4.406   6.866 -1.3326  0.9304  0.1055
   64SAPC   C36 5225  -0.085   4.386   7.079  0.0657  0.0874 -0.3853
   64SAPC   H6X 5226  -0.130   4.299   7.131  1.1764  0.6543  1.5618
   64SAPC   H6Y 5227  -0.175   4.449   7.064  0.6985  1.0143 -0.3321
   64SAPC   C37 5228   0.027   4.443   7.156  0.2840 -1.1842  0.1482
   64SAPC   H7X 5229   0.074   4.525   7.097  0.9527 -1.8024 -0.1893
   64SAPC   H7Y 5230   0.106   4.365   7.163 -1.0476 -2.6922 -1.1477
   64SAPC   C38 5231  -0.004   4.515   7.290 -0.1904 -0.6015 -0.7522
   64SAPC   H8X 5232  -0.076   4.596   7.264  0.8977  0.7134  0.2676
   64SAPC   H8Y 5233   0.082   4.564   7.341 -1.4645 -0.7011  1.6101
   64SAPC   C39 5234  -0.072   4.426   7.396  0.0258  0.0337 -0.2449
   64SAPC   H9X 5235  -0.004   4.341   7.419  2.4961  1.7485 -0.9555
   64SAPC   H9Y 5236  -0.168   4.392   7.352  0.8495  0.1702 -2.1959
   64SAPC  C310 5237  -0.103   4.507   7.520  0.8283 -0.4372 -0.5621
   64SAPC  H10X 5238  -0.163   4.590   7.477  1.0959  0.7889  1.3442
   64SAPC  H10Y 5239  -0.007   4.538   7.568  1.5301 -0.8274 -1.6970
   64SAPC  C311 5240  -0.172   4.447   7.648  0.5050  0.0897  0.0755
   64SAPC  H11X 5241  -0.104   4.378   7.702 -1.5140 -1.7325  0.3979
   64SAPC  H11Y 5242  -0.268   4.402   7.612 -0.3164  1.6634  0.2758
   64SAPC  C312 5243  -0.204   4.562   7.741 -0.0736 -0.4829  0.8342
   64SAPC  H12X 5244  -0.263   4.634   7.681 -1.3008 -1.6256  0.6576
   64SAPC  H12Y 5245  -0.120   4.624   7.780 -1.4725  2.0096  0.0125
   64SAPC  C313 5246  -0.277   4.539   7.866 -0.0178  0.9463  0.6725
   64SAPC  H13X 5247  -0.222   4.460   7.921  0.4735 -0.7484 -2.1628
   64SAPC  H13Y 5248  -0.376   4.492   7.849  0.2268 -0.2643  2.4123
   64SAPC  C314 5249  -0.300   4.666   7.953 -0.2960 -0.4454 -0.5317
   64SAPC  H14X 5250  -0.362   4.733   7.889  0.0060 -0.7126 -1.1081
   64SAPC  H14Y 5251  -0.201   4.712   7.973  0.1104 -0.8221 -1.6605
   64SAPC  C315 5252  -0.378   4.620   8.075  0.2506 -0.3622  0.7001
   64SAPC  H15X 5253  -0.315   4.547   8.131 -0.7242 -0.4363  1.7295
   64SAPC  H15Y 5254  -0.475   4.569   8.055 -0.1035  1.1445 -1.5669
   64SAPC  C316 5255  -0.395   4.736   8.180 -0.0281 -0.1917 -0.1711
   64SAPC  H16X 5256  -0.464   4.810   8.134 -0.7752 -1.7103 -1.5239
   64SAPC  H16Y 5257  -0.293   4.776   8.199  1.2458 -3.6022  0.4342
   64SAPC  C317 5258  -0.461   4.686   8.311 -0.1794  1.1091 -0.1336
   64SAPC  H17X 5259  -0.404   4.601   8.354 -4.0643 -2.0002 -0.7774
   64SAPC  H17Y 5260  -0.560   4.647   8.278  1.1078 -0.0217 -2.8414
   64SAPC  C318 5261  -0.496   4.792   8.413  0.4754  0.3024  0.1623
   64SAPC  H18X 5262  -0.399   4.841   8.432  1.1505 -1.5662  1.7286
   64SAPC  H18Y 5263  -0.549   4.746   8.499  1.6815 -1.7285 -0.1341
   64SAPC  H18Z 5264  -0.565   4.868   8.371 -0.2236 -0.6599 -0.4597
   65SAPC     N 5265   6.479   4.424   5.762 -0.0432 -0.5218 -0.0319
   65SAPC   C12 5266   6.383   4.540   5.734  0.2340 -0.8847 -0.1540
   65SAPC  H12A 5267   6.307   4.497   5.671 -0.6362 -0.7899  0.8145
   65SAPC  H12B 5268   6.433   4.612   5.671  0.6530 -1.3474 -0.3496
   65SAPC   C13 5269   6.515   4.357   5.634  0.6659 -0.4436  0.3894
   65SAPC  H13A 5270   6.445   4.289   5.590  0.7482 -0.5541  0.4323
   65SAPC  H13B 5271   6.547   4.435   5.567  0.2631 -0.1014  0.5891
   65SAPC  H13C 5272   6.604   4.301   5.659  0.8381 -0.8472 -1.0799
   65SAPC   C14 5273   6.612   4.478   5.816 -0.3620 -0.6154 -0.0068
   65SAPC  H14A 5274   6.686   4.399   5.823 -0.6180 -0.7666  1.2914
   65SAPC  H14B 5275   6.660   4.548   5.750 -1.5008 -0.1138 -0.3147
   65SAPC  H14C 5276   6.612   4.526   5.913  1.4725 -0.3056 -0.1456
   65SAPC   C15 5277   6.419   4.328   5.864  0.3636  0.2023 -0.3866
   65SAPC  H15A 5278   6.330   4.282   5.825 -0.0163  0.4722  0.1558
   65SAPC  H15B 5279   6.485   4.243   5.875 -2.0757 -1.3638  2.6743
   65SAPC  H15C 5280   6.401   4.376   5.959 -0.7159 -2.0684  0.5750
   65SAPC   C11 5281   6.336   4.616   5.861 -0.0328  0.3544  0.0693
   65SAPC  H11A 5282   6.280   4.546   5.927  0.2833  0.0822  0.0511
   65SAPC  H11B 5283   6.262   4.692   5.827  1.8971  2.3063  0.1068
   65SAPC     P 5284   6.477   4.832   5.924 -0.1377  0.0079 -0.5734
   65SAPC   O13 5285   6.564   4.858   6.036  0.4310 -0.1178 -0.5631
   65SAPC   O14 5286   6.528   4.873   5.790  0.9389  0.1475 -0.3055
   65SAPC   O12 5287   6.439   4.681   5.927 -0.4423 -0.8588 -0.8074
   65SAPC   O11 5288   6.339   4.904   5.954  0.1990  0.5581 -0.2763
   65SAPC    C1 5289   6.283   4.876   6.084  0.3917 -0.2732  0.8995
   65SAPC    HA 5290   6.274   4.769   6.110  0.8133 -0.8589 -1.2725
   65SAPC    HB 5291   6.354   4.910   6.163  0.3317 -1.5542  1.5096
   65SAPC    C2 5292   6.150   4.960   6.104 -0.2593 -0.3414 -0.0676
   65SAPC    HS 5293   6.096   4.952   6.007 -2.3732 -0.3969  1.0793
   65SAPC   O21 5294   6.190   5.096   6.136  0.9702 -0.1564  0.9005
   65SAPC   C21 5295   6.101   5.187   6.118  0.2262  0.3885 -1.0919
   65SAPC   O22 5296   5.983   5.176   6.082 -0.2239 -0.5565  0.3632
   65SAPC   C22 5297   6.182   5.320   6.128  0.0156 -0.4290 -1.1340
   65SAPC   H2R 5298   6.222   5.319   6.232 -0.7485 -2.4670 -0.8199
   65SAPC   H2S 5299   6.257   5.327   6.047 -1.9581  0.2422 -2.9296
   65SAPC    C3 5300   6.064   4.898   6.215  0.3516 -0.1420  0.1045
   65SAPC    HX 5301   6.009   4.806   6.186  0.4187 -0.3765  0.7174
   65SAPC    HY 5302   5.983   4.968   6.244 -1.0301 -1.5767 -0.2731
   65SAPC   O31 5303   6.144   4.873   6.330  0.0970  0.0327  0.0194
   65SAPC   C31 5304   6.158   4.966   6.421  0.0136  0.2304 -0.4131
   65SAPC   O32 5305   6.099   5.068   6.435 -0.0097 -0.0563 -0.1827
   65SAPC   C32 5306   6.269   4.923   6.508 -0.3688  0.2230 -0.1164
   65SAPC   H2X 5307   6.367   4.905   6.458 -0.6362 -0.8600 -0.2685
   65SAPC   H2Y 5308   6.234   4.824   6.545 -2.4661  0.4926 -1.3217
   65SAPC   C23 5309   6.089   5.447   6.121 -0.2028  0.5912 -0.5016
   65SAPC   H3R 5310   5.984   5.425   6.150 -0.6840  2.3893 -0.8222
   65SAPC   H3S 5311   6.098   5.478   6.014 -0.8164 -1.5849 -1.2174
   65SAPC   C24 5312   6.140   5.560   6.209  0.0938  0.0020 -0.2406
   65SAPC   H4R 5313   6.149   5.521   6.312  0.0627  1.2564  0.2485
   65SAPC   H4S 5314   6.071   5.646   6.227 -1.7586 -1.4291 -0.3398
   65SAPC   C25 5315   6.267   5.621   6.158 -0.5292  0.5631  0.1416
   65SAPC   H5R 5316   6.260   5.675   6.062  3.3162  1.4690  0.2952
   65SAPC   C26 5317   6.387   5.621   6.224  0.5930 -0.4086  0.3307
   65SAPC   H6R 5318   6.473   5.676   6.182  1.1112 -1.0009  0.6151
   65SAPC   C27 5319   6.416   5.549   6.355  0.6553 -0.4492  0.3484
   65SAPC   H7R 5320   6.523   5.517   6.355  0.2139 -1.9511 -0.8365
   65SAPC   H7S 5321   6.366   5.450   6.360 -2.3592  0.9552 -0.6403
   65SAPC   C28 5322   6.385   5.642   6.467  0.2207 -0.4848 -0.1606
   65SAPC   H8R 5323   6.278   5.667   6.478  0.6194  0.9818  0.5046
   65SAPC   C29 5324   6.472   5.729   6.527 -0.3280  0.9550 -0.2385
   65SAPC   H9R 5325   6.425   5.794   6.603  0.4309 -0.1148  1.1716
   65SAPC  C210 5326   6.622   5.745   6.506 -0.1655 -0.0697  0.4063
   65SAPC  H10R 5327   6.653   5.744   6.399  1.0984 -1.7525  0.7726
   65SAPC  H10S 5328   6.677   5.662   6.554  1.5438  1.4640  1.1941
   65SAPC  C211 5329   6.670   5.869   6.572  0.3591 -0.3160  0.9817
   65SAPC  H11R 5330   6.658   5.966   6.522 -1.4505  0.2228  2.3885
   65SAPC  C212 5331   6.734   5.870   6.688  0.4879 -0.2723 -0.2725
   65SAPC  H12R 5332   6.757   5.969   6.731  0.2766 -0.5006  0.3754
   65SAPC  C213 5333   6.767   5.753   6.787 -0.3391 -0.0848  0.0984
   65SAPC  H13R 5334   6.736   5.657   6.740  1.1314 -0.4316 -0.1975
   65SAPC  H13S 5335   6.716   5.765   6.885 -0.6399  0.7533 -0.1589
   65SAPC  C214 5336   6.918   5.744   6.810  0.3453 -0.4964  0.2811
   65SAPC  H14R 5337   6.973   5.766   6.717 -1.3564 -1.8055 -1.0513
   65SAPC  C215 5338   6.986   5.712   6.926  0.2652 -0.1469  0.3837
   65SAPC  H15R 5339   7.095   5.703   6.928  0.1401 -1.9319 -0.0410
   65SAPC  C216 5340   6.922   5.679   7.056  0.7377  0.0837 -0.3597
   65SAPC  H16R 5341   6.944   5.573   7.081 -0.1291 -0.6965 -2.7050
   65SAPC  H16S 5342   6.811   5.686   7.056  0.5930 -1.6296 -1.6518
   65SAPC  C217 5343   6.970   5.766   7.170  0.3381 -0.0690 -0.3973
   65SAPC  H17R 5344   6.952   5.870   7.133  2.7012  0.4617 -0.1328
   65SAPC  H17S 5345   7.080   5.751   7.171  0.7108  1.8571 -3.1888
   65SAPC  C218 5346   6.894   5.750   7.304  0.0213 -0.5510 -0.1936
   65SAPC  H18R 5347   6.940   5.818   7.378 -0.0356 -1.8093  1.0096
   65SAPC  H18S 5348   6.910   5.646   7.341 -1.2706 -0.6450  0.0983
   65SAPC  C219 5349   6.745   5.777   7.294 -0.4591 -0.1475  0.1111
   65SAPC  H19R 5350   6.695   5.704   7.227 -1.1538  0.1193  0.3381
   65SAPC  H19S 5351   6.740   5.882   7.259  2.8844 -0.3817 -1.2623
   65SAPC  C220 5352   6.686   5.763   7.430  0.3037 -0.6697  0.2979
   65SAPC  H20R 5353   6.720   5.670   7.479 -1.7338 -1.0620  1.0045
   65SAPC  H20S 5354   6.576   5.745   7.425  0.1554  0.4806 -0.8216
   65SAPC  H20T 5355   6.713   5.849   7.495  0.5478 -2.0358  2.0233
   65SAPC   C33 5356   6.304   5.016   6.627 -0.2687 -0.0125  0.9365
   65SAPC   H3X 5357   6.284   5.120   6.595 -0.0772 -0.8266 -2.0368
   65SAPC   H3Y 5358   6.414   5.018   6.640 -0.4752  0.8927  2.5728
   65SAPC   C34 5359   6.237   4.964   6.757 -0.0205  0.3304 -1.2479
   65SAPC   H4X 5360   6.281   5.015   6.845  2.0764 -1.8644 -0.9739
   65SAPC   H4Y 5361   6.268   4.858   6.772 -0.1109  0.1993 -1.9429
   65SAPC   C35 5362   6.084   4.990   6.766 -0.4497 -0.4462  0.0053
   65SAPC   H5X 5363   6.038   4.928   6.686  0.4161 -1.0213 -0.0542
   65SAPC   H5Y 5364   6.053   5.097   6.757 -1.6000 -0.8893 -1.5439
   65SAPC   C36 5365   6.031   4.946   6.905  0.1043  0.3737  0.3333
   65SAPC   H6X 5366   6.066   4.841   6.907 -0.0135  0.3261 -0.0444
   65SAPC   H6Y 5367   5.921   4.932   6.907  0.1916 -0.1230  2.4169
   65SAPC   C37 5368   6.077   5.014   7.036 -0.6349 -0.3432  0.0644
   65SAPC   H7X 5369   6.043   5.120   7.031 -0.6582 -0.3563 -0.0479
   65SAPC   H7Y 5370   6.187   5.031   7.037 -0.8716  1.3169 -0.0468
   65SAPC   C38 5371   6.027   4.934   7.157 -0.2947  0.4833 -0.0344
   65SAPC   H8X 5372   6.092   4.844   7.164  0.7775  1.2886  0.6209
   65SAPC   H8Y 5373   5.922   4.901   7.147 -0.1864  0.8898 -3.0089
   65SAPC   C39 5374   6.049   5.018   7.286 -0.1140 -0.3416 -0.6412
   65SAPC   H9X 5375   5.984   5.106   7.302  2.0980  0.7893  2.6995
   65SAPC   H9Y 5376   6.155   5.053   7.284  0.8139 -2.9593  0.6939
   65SAPC  C310 5377   6.046   4.941   7.424  0.0357  0.1294  0.4642
   65SAPC  H10X 5378   6.134   4.873   7.425 -1.7534 -2.3254 -1.2827
   65SAPC  H10Y 5379   5.959   4.872   7.423 -0.7212  1.0745  0.4864
   65SAPC  C311 5380   6.028   5.021   7.548 -0.4781  0.0787 -0.7516
   65SAPC  H11X 5381   5.922   5.057   7.553 -0.0170  1.2552  1.1563
   65SAPC  H11Y 5382   6.097   5.108   7.553 -2.1663  1.3874  0.5809
   65SAPC  C312 5383   6.047   4.945   7.675 -0.1645  0.8997  0.1581
   65SAPC  H12X 5384   6.147   4.897   7.681  0.8958  3.2635  2.2343
   65SAPC  H12Y 5385   5.971   4.864   7.675  1.1524 -0.3767 -1.3439
   65SAPC  C313 5386   6.040   5.034   7.792 -0.0811 -0.5628  0.3541
   65SAPC  H13X 5387   5.939   5.080   7.805  0.8538  1.3258  0.9918
   65SAPC  H13Y 5388   6.109   5.119   7.778  2.5641 -2.8073 -0.6150
   65SAPC  C314 5389   6.083   4.972   7.923  0.3427 -0.5206 -0.1888
   65SAPC  H14X 5390   6.087   5.054   7.999  0.1770  1.6566 -2.4622
   65SAPC  H14Y 5391   6.180   4.918   7.924  1.2294  1.0055 -0.9215
   65SAPC  C315 5392   5.970   4.881   7.975 -0.0903  0.1527 -0.5906
   65SAPC  H15X 5393   5.973   4.799   7.901  1.1772  1.0258 -1.5319
   65SAPC  H15Y 5394   5.868   4.924   7.962 -0.9585 -1.4615  0.7276
   65SAPC  C316 5395   5.995   4.837   8.122 -0.7582 -0.2154 -0.3293
   65SAPC  H16X 5396   6.056   4.915   8.172 -2.0419  0.7222 -0.2085
   65SAPC  H16Y 5397   6.060   4.747   8.127 -0.5259  0.0522  2.1833
   65SAPC  C317 5398   5.873   4.814   8.205 -0.1925 -0.4127 -0.4627
   65SAPC  H17X 5399   5.814   4.747   8.139  1.2299 -0.7529 -1.4126
   65SAPC  H17Y 5400   5.816   4.909   8.204 -0.0093 -0.2526  1.7214
   65SAPC  C318 5401   5.910   4.761   8.345 -0.2750 -0.3358  0.2491
   65SAPC  H18X 5402   5.970   4.668   8.354 -1.0397 -0.9914 -1.3863
   65SAPC  H18Y 5403   5.841   4.773   8.431 -1.5870 -3.2752 -0.3527
   65SAPC  H18Z 5404   5.982   4.841   8.374  0.0106  0.0797 -1.5738
   66SAPC     N 5405   4.588   5.214   5.804 -0.1504  0.0758  0.9624
   66SAPC   C12 5406   4.627   5.079   5.738 -0.1922 -0.5488 -0.5901
   66SAPC  H12A 5407   4.729   5.064   5.769 -0.5077  0.6852  1.0884
   66SAPC  H12B 5408   4.632   5.105   5.633 -1.1593  1.6224 -0.1172
   66SAPC   C13 5409   4.448   5.239   5.761 -0.0845  0.0066 -0.0102
   66SAPC  H13A 5410   4.436   5.245   5.654 -1.1101  1.0439  0.1464
   66SAPC  H13B 5411   4.386   5.156   5.790  0.9281 -0.6678  0.2395
   66SAPC  H13C 5412   4.419   5.335   5.803 -0.0104 -0.0027  0.0629
   66SAPC   C14 5413   4.589   5.212   5.951 -0.1243  0.5145 -0.2387
   66SAPC  H14A 5414   4.527   5.131   5.985  0.0290  0.8671  0.9108
   66SAPC  H14B 5415   4.691   5.203   5.986 -0.7464 -0.8120  1.3006
   66SAPC  H14C 5416   4.545   5.300   5.997  0.0383 -0.0582  1.0407
   66SAPC   C15 5417   4.670   5.333   5.758 -0.9093  0.1631  1.4631
   66SAPC  H15A 5418   4.628   5.428   5.787 -0.8818  0.5235  0.3489
   66SAPC  H15B 5419   4.770   5.326   5.797 -0.5219  0.4229  0.5308
   66SAPC  H15C 5420   4.688   5.337   5.651 -0.6219  2.2931  1.5695
   66SAPC   C11 5421   4.536   4.957   5.762  0.0090  0.7544 -0.6148
   66SAPC  H11A 5422   4.593   4.871   5.721  1.6629  0.9147  1.2311
   66SAPC  H11B 5423   4.449   4.957   5.693 -0.4705 -0.7371 -0.0235
   66SAPC     P 5424   4.370   4.890   5.938 -0.1770  0.0453 -0.4664
   66SAPC   O13 5425   4.276   4.981   5.872  0.0930  0.0564  0.6941
   66SAPC   O14 5426   4.340   4.745   5.906 -0.2600 -0.0723 -0.5274
   66SAPC   O12 5427   4.514   4.936   5.900 -0.3782  0.0878  0.0960
   66SAPC   O11 5428   4.359   4.910   6.096  0.0398 -0.3240 -0.9242
   66SAPC    C1 5429   4.250   4.862   6.181  0.4840  0.6022 -0.1262
   66SAPC    HA 5430   4.169   4.816   6.121 -1.7904  2.9215  1.0632
   66SAPC    HB 5431   4.297   4.784   6.245  1.7027 -0.2646 -2.0447
   66SAPC    C2 5432   4.206   4.970   6.270 -0.6094 -0.2342  0.7502
   66SAPC    HS 5433   4.142   5.034   6.206 -1.6821 -1.8725  0.1634
   66SAPC   O21 5434   4.315   5.040   6.329  0.3343  0.3831  0.3553
   66SAPC   C21 5435   4.271   5.152   6.393 -0.2200  0.8580  0.0119
   66SAPC   O22 5436   4.165   5.207   6.373 -0.2699 -0.0955  1.2474
   66SAPC   C22 5437   4.363   5.193   6.508 -0.6278 -0.2182  0.4800
   66SAPC   H2R 5438   4.461   5.145   6.487 -0.1890  0.6947  0.3790
   66SAPC   H2S 5439   4.375   5.304   6.503 -1.0847 -0.2820 -3.2770
   66SAPC    C3 5440   4.113   4.909   6.378 -0.1900  0.7621  0.5935
   66SAPC    HX 5441   4.040   4.845   6.323  1.6650  0.5277 -1.6784
   66SAPC    HY 5442   4.063   5.001   6.417 -0.7359  0.5788  0.3376
   66SAPC   O31 5443   4.182   4.838   6.478  0.3291 -0.1226 -0.2179
   66SAPC   C31 5444   4.104   4.766   6.565 -0.1882 -0.2345 -0.5988
   66SAPC   O32 5445   3.985   4.781   6.567  0.0396 -0.0972 -0.3934
   66SAPC   C32 5446   4.187   4.683   6.660  0.3954  0.1500 -0.5376
   66SAPC   H2X 5447   4.294   4.686   6.631  0.0664 -2.0041 -2.1391
   66SAPC   H2Y 5448   4.148   4.579   6.664  0.2972  0.1955 -0.3079
   66SAPC   C23 5449   4.322   5.136   6.645  0.1361  0.3330 -0.3177
   66SAPC   H3R 5450   4.350   5.029   6.638 -2.2798 -0.4227  0.9643
   66SAPC   H3S 5451   4.214   5.155   6.664 -0.2796  1.0551 -3.1542
   66SAPC   C24 5452   4.404   5.199   6.759 -0.3869  0.1452 -0.0513
   66SAPC   H4R 5453   4.364   5.301   6.771  0.8125  0.9901 -2.9211
   66SAPC   H4S 5454   4.505   5.207   6.715  0.4089 -0.4465  1.5950
   66SAPC   C25 5455   4.412   5.114   6.881  0.6434 -0.1611  0.3511
   66SAPC   H5R 5456   4.358   5.018   6.873 -1.3147  0.8982  0.6130
   66SAPC   C26 5457   4.456   5.154   7.001  0.5652  0.6904 -0.1081
   66SAPC   H6R 5458   4.444   5.085   7.086  1.9692 -1.7194 -1.8002
   66SAPC   C27 5459   4.516   5.291   7.039  0.6042 -0.3192  0.8340
   66SAPC   H7R 5460   4.532   5.351   6.947 -1.4780  0.8358  1.2058
   66SAPC   H7S 5461   4.616   5.269   7.084  2.0094  3.0930 -0.4899
   66SAPC   C28 5462   4.420   5.368   7.129  0.1757 -0.0663 -0.3277
   66SAPC   H8R 5463   4.329   5.406   7.081 -0.2766 -1.4775 -0.6178
   66SAPC   C29 5464   4.431   5.376   7.262  0.3448 -0.5065  0.4473
   66SAPC   H9R 5465   4.360   5.436   7.320  0.3840 -0.0761  0.0518
   66SAPC  C210 5466   4.530   5.306   7.361 -0.1320  0.4755  0.5967
   66SAPC  H10R 5467   4.597   5.383   7.404  1.1619 -0.3473  0.1178
   66SAPC  H10S 5468   4.597   5.236   7.305 -1.1791  1.2989 -1.7328
   66SAPC  C211 5469   4.451   5.224   7.459 -0.5023 -0.2932 -0.1712
   66SAPC  H11R 5470   4.376   5.161   7.408  0.8273 -1.1913 -1.0678
   66SAPC  C212 5471   4.475   5.217   7.589  0.1038  0.0681 -1.0922
   66SAPC  H12R 5472   4.412   5.147   7.647 -0.8756  1.9799  0.2120
   66SAPC  C213 5473   4.586   5.283   7.671  0.0935  0.1041 -0.0553
   66SAPC  H13R 5474   4.555   5.283   7.777  0.1161  0.9245 -0.0475
   66SAPC  H13S 5475   4.586   5.390   7.642  0.8896  0.8568  2.6335
   66SAPC  C214 5476   4.721   5.216   7.651 -0.5344 -0.0258 -0.4936
   66SAPC  H14R 5477   4.717   5.124   7.592 -0.2906 -1.8559  2.2525
   66SAPC  C215 5478   4.840   5.263   7.704 -0.1113 -0.3955 -0.2755
   66SAPC  H15R 5479   4.932   5.207   7.683 -1.3020 -2.6559  0.3412
   66SAPC  C216 5480   4.871   5.381   7.794 -0.2289 -0.2691  0.3879
   66SAPC  H16R 5481   4.776   5.405   7.847 -1.3537  0.1335 -1.7570
   66SAPC  H16S 5482   4.896   5.474   7.739  1.7327 -1.4254 -0.7569
   66SAPC  C217 5483   4.975   5.372   7.907 -0.2091 -0.0539  0.0933
   66SAPC  H17R 5484   5.075   5.351   7.864 -0.0968  1.1893 -0.2646
   66SAPC  H17S 5485   4.953   5.288   7.977 -1.0311 -0.6192 -0.8270
   66SAPC  C218 5486   4.990   5.499   7.984 -1.0153  0.7135 -0.1565
   66SAPC  H18R 5487   4.899   5.549   8.023 -3.6041 -3.5865 -0.3975
   66SAPC  H18S 5488   5.044   5.570   7.917 -2.2828  1.1573 -0.7121
   66SAPC  C219 5489   5.081   5.481   8.114 -0.4421 -0.0860 -0.6026
   66SAPC  H19R 5490   5.171   5.416   8.114  0.1896  0.7799 -0.6740
   66SAPC  H19S 5491   5.022   5.423   8.188  0.6023  0.8592  1.0124
   66SAPC  C220 5492   5.112   5.622   8.171  0.0015  0.0086 -0.2193
   66SAPC  H20R 5493   5.179   5.613   8.258 -0.0284  2.4050  0.0923
   66SAPC  H20S 5494   5.021   5.681   8.196 -0.7648 -0.4858 -1.7488
   66SAPC  H20T 5495   5.173   5.674   8.094 -0.0657 -2.5445 -2.0926
   66SAPC   C33 5496   4.172   4.748   6.803 -0.5455  0.2185 -0.0640
   66SAPC   H3X 5497   4.065   4.748   6.834 -0.9658 -3.3703 -1.2697
   66SAPC   H3Y 5498   4.209   4.853   6.795 -1.1829  0.3025 -2.3779
   66SAPC   C34 5499   4.249   4.672   6.907  0.1361  0.0412  0.7054
   66SAPC   H4X 5500   4.350   4.654   6.864 -0.4539 -0.1747 -0.6185
   66SAPC   H4Y 5501   4.206   4.573   6.934 -0.3585 -0.2528 -1.0520
   66SAPC   C35 5502   4.275   4.764   7.030 -0.7990  0.3948 -0.4487
   66SAPC   H5X 5503   4.177   4.813   7.048  0.4201  2.5808  0.4598
   66SAPC   H5Y 5504   4.352   4.840   7.005 -1.3878  1.2918  0.4391
   66SAPC   C36 5505   4.321   4.681   7.150  0.1680  0.6858  0.5743
   66SAPC   H6X 5506   4.401   4.612   7.116 -0.8429  0.0195 -0.5053
   66SAPC   H6Y 5507   4.241   4.604   7.159  1.0369 -0.2028  0.8173
   66SAPC   C37 5508   4.356   4.754   7.275  0.1398  0.2018 -0.4980
   66SAPC   H7X 5509   4.272   4.810   7.321  2.7870  1.8856  2.4788
   66SAPC   H7Y 5510   4.430   4.834   7.254  0.7249  0.5876  2.7141
   66SAPC   C38 5511   4.412   4.679   7.392 -0.7176  0.4673  1.0617
   66SAPC   H8X 5512   4.514   4.643   7.364 -0.6554 -0.6179  2.5888
   66SAPC   H8Y 5513   4.364   4.581   7.412  0.4402 -0.1674  0.7959
   66SAPC   C39 5514   4.416   4.758   7.517 -0.0676 -0.0371  0.0841
   66SAPC   H9X 5515   4.317   4.779   7.563  1.3026  0.2177  2.9958
   66SAPC   H9Y 5516   4.438   4.863   7.487 -2.2814  0.1663 -0.9358
   66SAPC  C310 5517   4.507   4.710   7.620  0.4349  0.7026  0.2926
   66SAPC  H10X 5518   4.604   4.679   7.575  0.1891  2.0724 -1.1992
   66SAPC  H10Y 5519   4.464   4.619   7.667 -2.3424  0.8544 -1.8361
   66SAPC  C311 5520   4.535   4.824   7.714 -0.7969 -0.0982 -0.5167
   66SAPC  H11X 5521   4.444   4.860   7.767 -0.1785 -2.5502  2.2982
   66SAPC  H11Y 5522   4.579   4.910   7.659 -0.0223  0.1155  0.4373
   66SAPC  C312 5523   4.638   4.792   7.821  0.0854  0.6645 -0.1363
   66SAPC  H12X 5524   4.727   4.750   7.768  0.0455  1.9218 -1.2257
   66SAPC  H12Y 5525   4.594   4.716   7.889  2.1047 -0.4470 -0.0347
   66SAPC  C313 5526   4.670   4.924   7.899  0.4594 -0.3580  0.1579
   66SAPC  H13X 5527   4.571   4.970   7.919 -0.8885 -3.6778  1.3069
   66SAPC  H13Y 5528   4.732   5.003   7.850  1.6063 -0.5357  1.3036
   66SAPC  C314 5529   4.738   4.915   8.034 -0.8775 -0.1513 -0.0041
   66SAPC  H14X 5530   4.834   4.861   8.019  0.4693  1.6208  1.9975
   66SAPC  H14Y 5531   4.686   4.849   8.106  2.1386 -0.8866  1.5766
   66SAPC  C315 5532   4.773   5.056   8.090  0.1905 -0.1286  0.2380
   66SAPC  H15X 5533   4.688   5.127   8.085 -0.1595 -0.5969 -0.7424
   66SAPC  H15Y 5534   4.857   5.106   8.037  0.9515  1.7835  3.1472
   66SAPC  C316 5535   4.810   5.039   8.238  0.7375 -0.1475  0.1767
   66SAPC  H16X 5536   4.900   4.973   8.233  0.4640 -0.4918 -0.2935
   66SAPC  H16Y 5537   4.729   4.987   8.293 -0.6930  3.4070  1.5485
   66SAPC  C317 5538   4.852   5.169   8.298 -0.3815 -0.7484 -0.1447
   66SAPC  H17X 5539   4.770   5.242   8.318 -0.3301 -0.5922 -0.4927
   66SAPC  H17Y 5540   4.914   5.210   8.215 -0.2004 -2.5887 -0.9418
   66SAPC  C318 5541   4.955   5.149   8.414 -0.7660 -0.1410 -0.2168
   66SAPC  H18X 5542   4.916   5.134   8.517  2.0176  2.5624  1.3187
   66SAPC  H18Y 5543   5.018   5.240   8.422  0.4148 -1.0857  1.6089
   66SAPC  H18Z 5544   5.017   5.063   8.381  1.0118  1.3725 -0.8615
   67SAPC     N 5545   1.156   6.430   6.322 -0.4884  0.7157 -0.1099
   67SAPC   C12 5546   1.037   6.344   6.371 -0.7239 -0.1058  0.7465
   67SAPC  H12A 5547   1.075   6.267   6.437  1.5919 -1.2896 -1.8413
   67SAPC  H12B 5548   0.992   6.289   6.290 -0.2034  0.7462 -0.1427
   67SAPC   C13 5549   1.113   6.524   6.222 -0.6293 -0.3275 -1.0783
   67SAPC  H13A 5550   1.055   6.598   6.275 -0.2381 -0.1035 -0.9674
   67SAPC  H13B 5551   1.192   6.566   6.163  1.0087 -0.9504  0.6270
   67SAPC  H13C 5552   1.040   6.470   6.162  0.0611 -3.9717  1.2037
   67SAPC   C14 5553   1.225   6.486   6.443  0.6170  0.5682  0.4982
   67SAPC  H14A 5554   1.159   6.540   6.509  0.2464 -0.1964  0.7565
   67SAPC  H14B 5555   1.268   6.412   6.509 -0.5541 -2.0670 -1.6010
   67SAPC  H14C 5556   1.303   6.554   6.409 -0.8992  1.3232 -1.5946
   67SAPC   C15 5557   1.254   6.340   6.261 -0.2264 -0.0816  0.3170
   67SAPC  H15A 5558   1.291   6.271   6.336 -0.2934 -0.4895 -0.0247
   67SAPC  H15B 5559   1.213   6.271   6.189  1.3001 -1.5973  0.8765
   67SAPC  H15C 5560   1.325   6.397   6.204 -1.2797 -0.9933 -1.9683
   67SAPC   C11 5561   0.909   6.430   6.424 -0.2657  0.2536  0.2901
   67SAPC  H11A 5562   0.954   6.501   6.496  0.2197  1.4966 -1.2174
   67SAPC  H11B 5563   0.844   6.360   6.481 -0.9865  1.5079  1.0249
   67SAPC     P 5564   0.775   6.615   6.325 -0.1713  0.0778 -0.1536
   67SAPC   O13 5565   0.884   6.710   6.343 -0.6764  0.0362  0.2143
   67SAPC   O14 5566   0.671   6.640   6.223  0.2532 -0.1448 -0.1516
   67SAPC   O12 5567   0.839   6.475   6.309 -0.0417 -0.0707  0.3744
   67SAPC   O11 5568   0.697   6.617   6.464  0.4415  0.2258 -0.3757
   67SAPC    C1 5569   0.547   6.621   6.464 -0.2748 -0.2024  0.2188
   67SAPC    HA 5570   0.514   6.725   6.444  0.3441 -0.1019 -0.3042
   67SAPC    HB 5571   0.509   6.555   6.383 -0.0753  2.2039 -1.8711
   67SAPC    C2 5572   0.472   6.573   6.595 -0.3198 -0.3380  0.3782
   67SAPC    HS 5573   0.365   6.570   6.568  0.2654  0.3174 -2.1663
   67SAPC   O21 5574   0.504   6.655   6.704  0.0277  0.6597  0.3801
   67SAPC   C21 5575   0.437   6.765   6.714 -0.0695 -0.0953 -0.0748
   67SAPC   O22 5576   0.349   6.798   6.638 -0.3817 -0.0665 -0.4331
   67SAPC   C22 5577   0.479   6.841   6.837  0.0679  0.6847 -0.3708
   67SAPC   H2R 5578   0.491   6.774   6.925 -0.1456  0.3932 -0.5657
   67SAPC   H2S 5579   0.576   6.893   6.820  0.1308 -0.0496 -2.2697
   67SAPC    C3 5580   0.513   6.424   6.618 -0.1765 -0.4930 -0.4385
   67SAPC    HX 5581   0.615   6.416   6.661  0.2893  0.4995 -1.3430
   67SAPC    HY 5582   0.533   6.382   6.517  1.1724 -1.9871  0.4262
   67SAPC   O31 5583   0.402   6.354   6.688 -0.4685 -0.0857  0.7131
   67SAPC   C31 5584   0.421   6.221   6.697  0.2314  0.0782  0.8020
   67SAPC   O32 5585   0.523   6.159   6.665  0.0675  0.1000 -0.4571
   67SAPC   C32 5586   0.293   6.152   6.747 -0.0015 -0.6103 -0.1818
   67SAPC   H2X 5587   0.314   6.043   6.754  0.8031 -0.4530 -0.0378
   67SAPC   H2Y 5588   0.219   6.181   6.670  0.9951 -0.2818 -1.0356
   67SAPC   C23 5589   0.367   6.934   6.892 -0.5734 -0.1210 -0.1190
   67SAPC   H3R 5590   0.264   6.893   6.899 -0.3252 -0.3021  3.2899
   67SAPC   H3S 5591   0.357   7.013   6.815  0.6096 -1.2409 -1.4450
   67SAPC   C24 5592   0.425   7.016   7.011 -1.0079 -0.5289 -0.3852
   67SAPC   H4R 5593   0.532   7.024   6.986 -1.6210  2.9349 -2.1072
   67SAPC   H4S 5594   0.420   6.949   7.100  0.2806 -2.0554 -1.4303
   67SAPC   C25 5595   0.368   7.155   7.028  0.0348 -0.5515  0.1498
   67SAPC   H5R 5596   0.377   7.211   6.934 -0.7586  0.3517  0.6007
   67SAPC   C26 5597   0.316   7.207   7.140 -0.1303 -0.5999 -0.3801
   67SAPC   H6R 5598   0.265   7.305   7.136 -0.3597 -0.7146 -0.2784
   67SAPC   C27 5599   0.307   7.133   7.271  0.0845  0.5369  0.7298
   67SAPC   H7R 5600   0.347   7.197   7.353  1.2070 -1.2746  1.6129
   67SAPC   H7S 5601   0.385   7.054   7.271 -1.0138 -0.5639  0.1833
   67SAPC   C28 5602   0.169   7.069   7.295 -0.7234 -0.4013 -0.4954
   67SAPC   H8R 5603   0.130   7.008   7.212 -1.0661 -0.7968 -0.0419
   67SAPC   C29 5604   0.097   7.087   7.407  0.1349  0.0872  0.3032
   67SAPC   H9R 5605   0.007   7.024   7.410  0.0607  0.2768  2.4858
   67SAPC  C210 5606   0.117   7.173   7.529 -0.0493  0.8574 -1.3230
   67SAPC  H10R 5607   0.154   7.277   7.517  2.2527  0.4600  1.7790
   67SAPC  H10S 5608   0.198   7.124   7.588  1.3437  1.9186 -2.3141
   67SAPC  C211 5609  -0.015   7.162   7.598 -0.1196  0.3539 -0.8813
   67SAPC  H11R 5610  -0.098   7.218   7.552 -1.3651  0.4902  1.4661
   67SAPC  C212 5611  -0.041   7.089   7.710  0.0934 -0.0545 -0.0247
   67SAPC  H12R 5612  -0.143   7.080   7.750 -0.3966  2.7126 -0.5101
   67SAPC  C213 5613   0.060   7.007   7.787  0.5942 -0.4763 -0.3585
   67SAPC  H13R 5614   0.033   7.016   7.895 -0.8719  1.1856 -0.8388
   67SAPC  H13S 5615   0.163   7.048   7.784 -0.1295  1.4711  0.4461
   67SAPC  C214 5616   0.060   6.862   7.742 -0.2575  0.1893  0.0594
   67SAPC  H14R 5617   0.099   6.847   7.640  0.2925 -0.4951  0.3661
   67SAPC  C215 5618   0.016   6.751   7.807  0.5847 -0.7126  0.0932
   67SAPC  H15R 5619   0.035   6.650   7.769 -0.6999 -0.9942  0.1578
   67SAPC  C216 5620  -0.045   6.751   7.940 -0.6340  0.6880  0.6419
   67SAPC  H16R 5621  -0.120   6.670   7.955  1.5134 -1.1820  1.5631
   67SAPC  H16S 5622  -0.081   6.853   7.967 -1.8286  0.5055 -0.2321
   67SAPC  C217 5623   0.060   6.738   8.056  0.1617 -0.0077 -0.4331
   67SAPC  H17R 5624   0.135   6.818   8.039 -0.4533  0.6983  0.1341
   67SAPC  H17S 5625   0.108   6.638   8.055  0.6260  0.2124 -0.2248
   67SAPC  C218 5626   0.001   6.776   8.200 -0.4599 -0.3124 -0.0907
   67SAPC  H18R 5627  -0.071   6.699   8.235  0.7331 -0.1119  2.9190
   67SAPC  H18S 5628  -0.056   6.871   8.197 -0.1585 -0.0921  1.0308
   67SAPC  C219 5629   0.108   6.780   8.310 -0.2701  0.4523  0.1219
   67SAPC  H19R 5630   0.189   6.850   8.281 -1.2247  0.0987 -3.6145
   67SAPC  H19S 5631   0.163   6.684   8.297  0.4299  0.6693  1.3653
   67SAPC  C220 5632   0.066   6.802   8.452 -0.9419 -0.1826 -0.3001
   67SAPC  H20R 5633   0.144   6.788   8.529 -0.1706 -1.7817 -1.3451
   67SAPC  H20S 5634  -0.020   6.734   8.471 -0.3435 -0.4864  1.3689
   67SAPC  H20T 5635   0.025   6.906   8.454  0.8119  0.5058  0.3741
   67SAPC   C33 5636   0.249   6.197   6.885 -0.1120  0.3494  0.1138
   67SAPC   H3X 5637   0.139   6.182   6.884 -0.2212  1.0305  1.0601
   67SAPC   H3Y 5638   0.251   6.303   6.917 -0.9419  0.1489  0.8555
   67SAPC   C34 5639   0.302   6.107   6.992  0.4352 -0.4133 -0.3358
   67SAPC   H4X 5640   0.412   6.096   6.979  0.5140  0.9153 -0.7578
   67SAPC   H4Y 5641   0.255   6.006   6.990 -2.0243  0.7102 -1.8787
   67SAPC   C35 5642   0.282   6.158   7.138  0.5724 -0.4188 -0.1911
   67SAPC   H5X 5643   0.343   6.249   7.160 -2.1950  0.8216  2.6816
   67SAPC   H5Y 5644   0.327   6.076   7.198  1.6362 -1.0402 -1.7832
   67SAPC   C36 5645   0.130   6.185   7.176 -0.8333  0.6462 -0.3969
   67SAPC   H6X 5646   0.083   6.088   7.151 -0.1242  1.0095 -3.3810
   67SAPC   H6Y 5647   0.086   6.265   7.114 -1.4471  1.2879  0.8552
   67SAPC   C37 5648   0.117   6.221   7.326 -0.0697  0.3949  0.4937
   67SAPC   H7X 5649   0.179   6.310   7.350  2.3673 -0.8684 -0.9275
   67SAPC   H7Y 5650   0.150   6.136   7.390  0.8686  0.3295 -0.0764
   67SAPC   C38 5651  -0.024   6.252   7.362  0.0821 -0.6512  0.2088
   67SAPC   H8X 5652  -0.092   6.166   7.345 -1.7582  0.3106  2.3335
   67SAPC   H8Y 5653  -0.055   6.336   7.295 -0.3365 -0.0450  1.1533
   67SAPC   C39 5654  -0.058   6.303   7.500  0.0210 -0.1610 -0.1021
   67SAPC   H9X 5655  -0.161   6.270   7.526 -1.0164  1.6080 -1.8516
   67SAPC   H9Y 5656  -0.071   6.413   7.490 -0.9049 -0.2703 -0.0999
   67SAPC  C310 5657   0.044   6.270   7.617 -0.1205 -0.0796  0.7619
   67SAPC  H10X 5658   0.013   6.342   7.696  3.7244  0.7396  1.6238
   67SAPC  H10Y 5659   0.148   6.291   7.586 -0.9582  0.2425 -2.0113
   67SAPC  C311 5660   0.044   6.127   7.669  0.3316 -0.5896 -0.3496
   67SAPC  H11X 5661   0.082   6.053   7.596 -1.1242 -2.0185  0.3113
   67SAPC  H11Y 5662  -0.059   6.107   7.705  0.5874 -2.3067 -0.5500
   67SAPC  C312 5663   0.125   6.113   7.793  0.3632  0.0174 -0.2444
   67SAPC  H12X 5664   0.082   6.188   7.862  0.6553 -0.4552  0.4529
   67SAPC  H12Y 5665   0.228   6.152   7.781 -0.5544  2.1885 -1.2529
   67SAPC  C313 5666   0.111   5.978   7.865 -0.0328 -0.4148 -0.4692
   67SAPC  H13X 5667   0.133   5.904   7.785 -0.0783 -0.4626 -0.4368
   67SAPC  H13Y 5668   0.002   5.968   7.887 -0.1211 -0.3181 -0.8625
   67SAPC  C314 5669   0.206   5.970   7.984  0.0123  0.3849 -0.3202
   67SAPC  H14X 5670   0.303   6.017   7.957  0.3148  0.2940  0.6119
   67SAPC  H14Y 5671   0.234   5.866   8.010  1.5247  1.1250  1.1193
   67SAPC  C315 5672   0.161   6.037   8.107  0.7324 -0.2333  0.0876
   67SAPC  H15X 5673   0.100   6.124   8.078 -0.1088 -1.3847 -1.6498
   67SAPC  H15Y 5674   0.249   6.069   8.167  1.1747 -0.5641 -0.3782
   67SAPC  C316 5675   0.073   5.952   8.208  0.3688  0.2598  0.6012
   67SAPC  H16X 5676   0.065   5.998   8.309 -0.4257  0.8987  0.2497
   67SAPC  H16Y 5677   0.142   5.866   8.222  0.6433  0.6161  1.5212
   67SAPC  C317 5678  -0.062   5.907   8.155 -0.3094  0.1578  0.3640
   67SAPC  H17X 5679  -0.052   5.853   8.058  2.3055  2.2231 -0.5886
   67SAPC  H17Y 5680  -0.115   6.004   8.146  1.0844  1.0087  1.1128
   67SAPC  C318 5681  -0.143   5.827   8.258  0.5130  0.0509 -0.1742
   67SAPC  H18X 5682  -0.147   5.897   8.344  5.6985  1.8615 -1.2013
   67SAPC  H18Y 5683  -0.100   5.729   8.287 -0.7054 -0.8412 -1.3231
   67SAPC  H18Z 5684  -0.248   5.828   8.222 -0.0030  1.1669  1.3232
   68SAPC     N 5685   4.455   6.007   6.043 -0.0660 -0.1771  0.4581
   68SAPC   C12 5686   4.544   5.994   6.167 -0.0404 -0.6808  0.4076
   68SAPC  H12A 5687   4.629   5.935   6.138  0.7503  0.4193  0.4666
   68SAPC  H12B 5688   4.486   5.950   6.247 -0.9103 -1.8904 -0.8614
   68SAPC   C13 5689   4.342   6.094   6.076 -0.0912  0.4992  0.9584
   68SAPC  H13A 5690   4.375   6.197   6.076  0.0713  0.5248 -3.1837
   68SAPC  H13B 5691   4.262   6.092   6.003 -0.4278 -1.5001  1.3466
   68SAPC  H13C 5692   4.288   6.065   6.165  0.4302 -1.6906  0.5913
   68SAPC   C14 5693   4.542   6.068   5.937 -0.3024  0.6796  0.0312
   68SAPC  H14A 5694   4.615   5.992   5.917 -0.4690  0.0722  1.6872
   68SAPC  H14B 5695   4.492   6.077   5.842  0.0708 -1.9824 -0.4583
   68SAPC  H14C 5696   4.587   6.160   5.972  0.4773  0.3701 -0.1604
   68SAPC   C15 5697   4.412   5.871   5.992 -0.1846  0.0141 -0.6304
   68SAPC  H15A 5698   4.364   5.867   5.895  2.4905  2.6211 -2.1391
   68SAPC  H15B 5699   4.498   5.807   5.988 -0.1735 -0.0853  0.8179
   68SAPC  H15C 5700   4.344   5.835   6.067  0.6169 -0.6454 -0.2222
   68SAPC   C11 5701   4.593   6.127   6.231  0.1741 -0.6824  0.2633
   68SAPC  H11A 5702   4.631   6.105   6.333  1.0546  2.5431  0.6837
   68SAPC  H11B 5703   4.506   6.192   6.254 -0.2028 -0.9383 -0.4105
   68SAPC     P 5704   4.843   6.133   6.156  0.0923  0.0596  0.0658
   68SAPC   O13 5705   4.843   5.986   6.162 -0.2364 -0.3618  0.2911
   68SAPC   O14 5706   4.921   6.203   6.047  0.2636  0.2188 -0.1123
   68SAPC   O12 5707   4.695   6.186   6.149  0.4210 -0.3752 -0.3768
   68SAPC   O11 5708   4.891   6.186   6.294  0.2760  0.1143  0.0853
   68SAPC    C1 5709   4.868   6.313   6.349 -0.2152  0.4903 -0.1529
   68SAPC    HA 5710   4.768   6.356   6.327 -0.6034 -0.0921  0.4515
   68SAPC    HB 5711   4.882   6.306   6.459  0.5105  3.8216  0.0233
   68SAPC    C2 5712   4.978   6.416   6.313 -0.9152 -0.8285 -0.3030
   68SAPC    HS 5713   4.952   6.447   6.210 -2.6346 -1.3246 -0.0439
   68SAPC   O21 5714   5.111   6.368   6.324 -0.6372 -0.0603  0.1665
   68SAPC   C21 5715   5.206   6.445   6.280  0.2146 -0.1292 -0.2482
   68SAPC   O22 5716   5.189   6.547   6.214  1.4713 -0.1996 -0.0791
   68SAPC   C22 5717   5.343   6.370   6.308 -0.3974 -0.5005  0.2886
   68SAPC   H2R 5718   5.339   6.320   6.407  0.3956 -3.5536 -1.1629
   68SAPC   H2S 5719   5.345   6.286   6.236 -2.7090 -0.0833 -0.3009
   68SAPC    C3 5720   4.967   6.540   6.409  0.3287 -0.9306  0.1355
   68SAPC    HX 5721   4.863   6.577   6.402  0.6137 -0.2027 -0.2955
   68SAPC    HY 5722   5.030   6.625   6.375 -1.8271  0.9982  0.8253
   68SAPC   O31 5723   5.001   6.524   6.549 -0.5501 -0.2542 -0.5292
   68SAPC   C31 5724   5.106   6.583   6.604  0.3084  0.1042  0.4583
   68SAPC   O32 5725   5.181   6.660   6.551  0.0082  0.0732  0.4433
   68SAPC   C32 5726   5.107   6.529   6.746  0.7855 -0.2220  0.8583
   68SAPC   H2X 5727   5.201   6.472   6.760  1.5427  0.8989  0.4238
   68SAPC   H2Y 5728   5.020   6.461   6.757  0.3560  0.0035 -0.9398
   68SAPC   C23 5729   5.469   6.462   6.305 -0.0908  0.2900  0.5221
   68SAPC   H3R 5730   5.455   6.567   6.339  1.9146 -0.4044  3.6719
   68SAPC   H3S 5731   5.501   6.465   6.198  0.0268  0.2065  0.5547
   68SAPC   C24 5732   5.592   6.405   6.383  0.0662  0.2782  0.1728
   68SAPC   H4R 5733   5.683   6.456   6.346 -0.7914  1.2966 -0.5562
   68SAPC   H4S 5734   5.601   6.298   6.353 -1.3163  0.2818 -0.2604
   68SAPC   C25 5735   5.572   6.409   6.533 -0.4779 -0.1462 -0.2778
   68SAPC   H5R 5736   5.590   6.506   6.581 -1.2747  0.2609 -0.8024
   68SAPC   C26 5737   5.556   6.300   6.619 -0.1268 -0.3922 -0.2314
   68SAPC   H6R 5738   5.555   6.323   6.727 -2.0465  0.9462 -0.4854
   68SAPC   C27 5739   5.556   6.156   6.587  0.4950  0.3440  0.1561
   68SAPC   H7R 5740   5.497   6.141   6.494  0.2247  1.6656  0.1015
   68SAPC   H7S 5741   5.493   6.099   6.658  1.0356 -0.3513  0.0923
   68SAPC   C28 5742   5.686   6.088   6.572 -0.0030  0.1987 -0.0658
   68SAPC   H8R 5743   5.713   6.057   6.470 -0.2608  0.1095 -0.1071
   68SAPC   C29 5744   5.785   6.066   6.665  0.2219  0.3752 -0.1270
   68SAPC   H9R 5745   5.876   6.009   6.641 -0.9381 -0.8284 -1.7384
   68SAPC  C210 5746   5.765   6.111   6.810 -0.2092 -0.5123  0.1913
   68SAPC  H10R 5747   5.672   6.069   6.855 -0.8153  0.9964  0.3719
   68SAPC  H10S 5748   5.748   6.220   6.806  1.2104 -0.3608 -1.7549
   68SAPC  C211 5749   5.878   6.085   6.900 -0.2478  0.6799  0.1959
   68SAPC  H11R 5750   5.957   6.017   6.866 -2.0847 -0.6586 -1.5523
   68SAPC  C212 5751   5.897   6.137   7.023  0.2337  0.4456 -0.9303
   68SAPC  H12R 5752   5.991   6.112   7.073  0.1069  1.7706 -0.0105
   68SAPC  C213 5753   5.818   6.241   7.104  0.3263  1.1475 -0.1333
   68SAPC  H13R 5754   5.776   6.183   7.189 -0.2180  2.2624  0.3643
   68SAPC  H13S 5755   5.732   6.273   7.041  1.1755 -0.0680 -1.9636
   68SAPC  C214 5756   5.891   6.361   7.157 -0.3703 -0.7489  0.7549
   68SAPC  H14R 5757   5.918   6.428   7.075 -2.5727  1.3709  1.6910
   68SAPC  C215 5758   5.911   6.399   7.287  0.5863 -0.2907  0.0120
   68SAPC  H15R 5759   5.966   6.490   7.314  3.1670 -1.5219 -1.0015
   68SAPC  C216 5760   5.865   6.329   7.413 -0.0550 -0.2453  0.2356
   68SAPC  H16R 5761   5.826   6.229   7.383  2.3440 -1.8422  2.1477
   68SAPC  H16S 5762   5.780   6.381   7.460 -0.7283 -2.6385  1.7854
   68SAPC  C217 5763   5.969   6.307   7.518 -0.6079  0.3139 -0.0218
   68SAPC  H17R 5764   6.017   6.396   7.565  0.7728 -0.9291  0.9394
   68SAPC  H17S 5765   6.057   6.258   7.469 -0.3367  1.5549 -0.8107
   68SAPC  C218 5766   5.915   6.216   7.632 -0.2016  0.2957  0.5134
   68SAPC  H18R 5767   5.857   6.138   7.578 -2.5928  2.1945  0.2312
   68SAPC  H18S 5768   5.848   6.275   7.698  0.3814  0.3390  1.0715
   68SAPC  C219 5769   6.025   6.153   7.719  0.0506  0.3389 -0.4396
   68SAPC  H19R 5770   6.089   6.231   7.765  0.4413 -0.9271  1.1989
   68SAPC  H19S 5771   6.074   6.091   7.641 -1.5847 -1.7560  0.1418
   68SAPC  C220 5772   5.974   6.056   7.837  0.7764 -0.3989  0.1815
   68SAPC  H20R 5773   6.050   5.998   7.893 -0.2886  0.9579  3.1892
   68SAPC  H20S 5774   5.911   5.981   7.785 -1.8306  1.2880  0.8220
   68SAPC  H20T 5775   5.903   6.119   7.896 -0.4204 -1.1143 -0.4678
   68SAPC   C33 5776   5.096   6.632   6.860 -0.8620  0.4243  0.3803
   68SAPC   H3X 5777   5.005   6.695   6.850  0.2643  2.3598  1.8958
   68SAPC   H3Y 5778   5.178   6.707   6.851 -1.7043  1.3363  0.2296
   68SAPC   C34 5779   5.100   6.570   6.995  0.4759 -0.1845 -0.2462
   68SAPC   H4X 5780   5.201   6.526   7.008  0.3960 -0.5079 -0.7292
   68SAPC   H4Y 5781   5.020   6.494   6.987 -0.0239  0.3122  0.0547
   68SAPC   C35 5782   5.081   6.663   7.119  0.4651  0.1344 -0.0943
   68SAPC   H5X 5783   4.995   6.733   7.117  0.2770 -0.0408  1.5799
   68SAPC   H5Y 5784   5.176   6.722   7.118 -1.0461  2.6378 -0.9260
   68SAPC   C36 5785   5.087   6.582   7.251 -0.0308 -0.2412  0.8386
   68SAPC   H6X 5786   5.180   6.521   7.260 -0.8733 -1.7351 -0.5211
   68SAPC   H6Y 5787   5.001   6.513   7.258  0.7332 -1.2087  0.7743
   68SAPC   C37 5788   5.088   6.670   7.383  1.4812  0.3316 -0.1849
   68SAPC   H7X 5789   4.989   6.719   7.376  1.5374  0.1233 -2.8486
   68SAPC   H7Y 5790   5.178   6.735   7.385  0.5344  1.6229  1.9029
   68SAPC   C38 5791   5.083   6.586   7.506  0.3806  1.0801 -0.2034
   68SAPC   H8X 5792   5.183   6.597   7.554  1.9283 -1.3193 -2.7753
   68SAPC   H8Y 5793   5.074   6.479   7.481 -2.4876  0.6053  2.5097
   68SAPC   C39 5794   4.960   6.621   7.600 -0.3949  0.3975 -0.3470
   68SAPC   H9X 5795   4.864   6.615   7.543 -1.0633  1.4997  0.6228
   68SAPC   H9Y 5796   4.965   6.727   7.632 -0.4146  0.1519  0.4594
   68SAPC  C310 5797   4.957   6.528   7.718  0.5971  0.0729  0.4447
   68SAPC  H10X 5798   4.967   6.419   7.700 -0.2129 -0.2315  1.7916
   68SAPC  H10Y 5799   4.855   6.553   7.754  0.3219  3.8442 -2.5505
   68SAPC  C311 5800   5.058   6.580   7.830  0.2669  0.2572 -0.0096
   68SAPC  H11X 5801   5.059   6.690   7.842  0.4521 -0.0100  2.5654
   68SAPC  H11Y 5802   5.153   6.552   7.779  1.4525  0.1196  2.2522
   68SAPC  C312 5803   5.044   6.497   7.951  0.0806 -0.2539  0.0880
   68SAPC  H12X 5804   5.023   6.391   7.924 -0.1010  0.3031 -2.0395
   68SAPC  H12Y 5805   4.957   6.539   8.004  0.7072 -0.9637  1.7049
   68SAPC  C313 5806   5.175   6.487   8.044  0.0607  0.5799  0.6179
   68SAPC  H13X 5807   5.211   6.587   8.076  0.7105  0.3442  0.6293
   68SAPC  H13Y 5808   5.255   6.446   7.978 -0.5706  0.8313 -0.3128
   68SAPC  C314 5809   5.142   6.397   8.168 -0.3211  0.3054  0.0197
   68SAPC  H14X 5810   5.096   6.299   8.142 -0.4876  0.5949 -0.8004
   68SAPC  H14Y 5811   5.072   6.450   8.236 -0.0445  1.1143 -0.3174
   68SAPC  C315 5812   5.269   6.353   8.245  0.2886 -0.1655  0.0518
   68SAPC  H15X 5813   5.336   6.287   8.185 -1.5876 -1.9601 -0.1589
   68SAPC  H15Y 5814   5.238   6.297   8.336 -2.3821  1.4840  0.2139
   68SAPC  C316 5815   5.355   6.476   8.276  0.2241  0.0412  0.2661
   68SAPC  H16X 5816   5.278   6.550   8.308 -0.7634 -0.0580 -1.8357
   68SAPC  H16Y 5817   5.401   6.520   8.185 -1.2570 -0.0510 -0.5368
   68SAPC  C317 5818   5.459   6.460   8.385 -0.1289 -0.6331 -0.1086
   68SAPC  H17X 5819   5.510   6.559   8.393 -0.2092 -0.5869 -0.1690
   68SAPC  H17Y 5820   5.531   6.386   8.344 -2.0041 -0.5294 -3.8476
   68SAPC  C318 5821   5.409   6.408   8.518 -0.7577 -0.3985  0.0525
   68SAPC  H18X 5822   5.372   6.303   8.519  1.1624 -1.0932  0.2836
   68SAPC  H18Y 5823   5.325   6.472   8.553  0.4586 -0.0968  2.5707
   68SAPC  H18Z 5824   5.496   6.416   8.587 -0.5247  0.2861 -0.3151
   69SLPC     N 5825   2.815   3.971  11.278 -0.1984 -0.0509  0.3942
   69SLPC   C13 5826   2.766   3.839  11.332 -0.3006  0.6099 -0.0776
   69SLPC  H13A 5827   2.825   3.812  11.418  0.7050 -2.8610 -1.7491
   69SLPC  H13B 5828   2.661   3.847  11.354 -1.0068 -0.9689 -2.6287
   69SLPC  H13C 5829   2.769   3.758  11.260  3.6590  1.3895 -0.9483
   69SLPC   C14 5830   2.948   4.011  11.333 -0.1227  0.2647  0.0709
   69SLPC  H14A 5831   3.015   3.927  11.325  0.9105  1.2491 -2.1105
   69SLPC  H14B 5832   2.993   4.094  11.281 -1.1660 -0.6518 -2.3273
   69SLPC  H14C 5833   2.928   4.032  11.438  0.9622  0.7629  0.1829
   69SLPC   C15 5834   2.714   4.076  11.318  0.1465  0.5326  0.0972
   69SLPC  H15A 5835   2.746   4.170  11.278 -1.7185  0.3524 -1.9129
   69SLPC  H15B 5836   2.622   4.056  11.264  1.2206 -2.0989 -0.8509
   69SLPC  H15C 5837   2.714   4.080  11.426 -0.3552  1.1295  0.0720
   69SLPC   C12 5838   2.825   3.951  11.126  0.6422 -0.5984  0.9694
   69SLPC  H12A 5839   2.730   3.911  11.094  0.4495  1.5545 -1.2219
   69SLPC  H12B 5840   2.899   3.876  11.103  1.3666  0.5342 -0.4239
   69SLPC   C11 5841   2.874   4.075  11.043  0.6456 -1.2045 -0.2513
   69SLPC  H11A 5842   2.867   4.061  10.933  1.2785  0.7721 -0.5640
   69SLPC  H11B 5843   2.975   4.102  11.081  0.1072  2.4838 -1.2828
   69SLPC     P 5844   2.839   4.333  11.057 -0.3980 -0.0478  0.2905
   69SLPC   O13 5845   2.716   4.412  11.076 -0.9878 -0.4251 -0.1165
   69SLPC   O14 5846   2.943   4.357  11.159 -0.4722 -0.5146 -0.0326
   69SLPC   O12 5847   2.786   4.188  11.071 -0.2949  0.2054  0.1048
   69SLPC   O11 5848   2.882   4.353  10.906  0.0574  0.0858 -0.1788
   69SLPC    C1 5849   2.792   4.365  10.791 -0.3236  0.2432 -0.2920
   69SLPC    HA 5850   2.685   4.342  10.812 -0.0261 -0.4273  0.4913
   69SLPC    HB 5851   2.793   4.471  10.759  0.4677  0.5455  0.7064
   69SLPC    C2 5852   2.846   4.290  10.667  0.3652  0.0085  0.0071
   69SLPC    HS 5853   2.862   4.185  10.699  0.7805  0.1014  0.1055
   69SLPC   O21 5854   2.956   4.356  10.612 -0.7333 -0.2300 -0.0042
   69SLPC   C21 5855   3.056   4.289  10.567  0.2723  0.7391 -0.2615
   69SLPC   O22 5856   3.071   4.169  10.546 -0.4925 -0.9831 -0.0639
   69SLPC   C22 5857   3.167   4.396  10.553  0.2030  0.3524  0.3440
   69SLPC   H2R 5858   3.115   4.486  10.514 -0.6967 -1.2317 -2.2871
   69SLPC   H2S 5859   3.206   4.411  10.656  0.9554 -0.8297  0.2490
   69SLPC    C3 5860   2.734   4.281  10.553 -0.1229  0.4146  0.3888
   69SLPC    HX 5861   2.642   4.251  10.606 -0.0921  1.4323  1.0312
   69SLPC    HY 5862   2.744   4.204  10.473  1.8344 -0.7987  1.7478
   69SLPC   O31 5863   2.705   4.409  10.497 -0.1861 -0.3399 -0.7361
   69SLPC   C31 5864   2.611   4.416  10.403 -0.4528 -0.5406 -0.3502
   69SLPC   O32 5865   2.538   4.328  10.371  0.3612  0.0508 -0.1386
   69SLPC   C32 5866   2.609   4.561  10.350  0.7607  0.1892  0.0766
   69SLPC   H2X 5867   2.705   4.610  10.379  1.4865 -2.0141  1.5361
   69SLPC   H2Y 5868   2.536   4.617  10.412 -2.6404 -0.2956 -3.3555
   69SLPC   C23 5869   3.285   4.353  10.467  0.3088  0.4461  0.0455
   69SLPC   H3R 5870   3.243   4.312  10.372 -0.4995 -2.4158  1.5580
   69SLPC   H3S 5871   3.354   4.275  10.506  0.4187  0.5578  0.0731
   69SLPC   C24 5872   3.384   4.469  10.456 -0.1193 -0.3149 -0.2752
   69SLPC   H4R 5873   3.484   4.436  10.420  0.6291  0.8837  0.6384
   69SLPC   H4S 5874   3.395   4.524  10.552 -2.5555 -1.7367  0.8418
   69SLPC   C25 5875   3.336   4.582  10.359 -0.3505  0.1087 -0.5461
   69SLPC   H5R 5876   3.418   4.657  10.361 -0.8886  0.6997  2.6510
   69SLPC   H5S 5877   3.243   4.629  10.399 -1.2632  0.1375 -2.6519
   69SLPC   C26 5878   3.317   4.536  10.213 -0.1418 -0.7666 -0.9029
   69SLPC   H6R 5879   3.222   4.478  10.213  0.5876 -1.9912  0.5281
   69SLPC   H6S 5880   3.402   4.473  10.179 -0.1437 -0.5592 -1.3002
   69SLPC   C27 5881   3.281   4.654  10.128 -0.0697 -0.5456  0.4826
   69SLPC   H7R 5882   3.374   4.713  10.112  0.1370 -1.0891 -0.3548
   69SLPC   H7S 5883   3.200   4.706  10.182 -0.4758  1.6617 -2.1767
   69SLPC   C28 5884   3.224   4.603   9.992  0.1639  1.4408  0.4793
   69SLPC   H8R 5885   3.153   4.678   9.951 -1.1033 -0.0136 -0.0191
   69SLPC   H8S 5886   3.150   4.524  10.015 -0.8494  3.0235  2.8811
   69SLPC   C29 5887   3.331   4.567   9.893  0.6121  0.2118 -0.2642
   69SLPC   H9R 5888   3.417   4.635   9.902 -1.1951  2.7685 -1.3028
   69SLPC  C210 5889   3.317   4.470   9.805  0.2533 -0.3374 -0.1675
   69SLPC  H10R 5890   3.398   4.441   9.737 -0.4685  1.5218 -1.8600
   69SLPC  C211 5891   3.204   4.368   9.797  0.2338  0.4673  0.0823
   69SLPC  H11R 5892   3.181   4.353   9.690 -0.1294  0.3036  0.1817
   69SLPC  H11S 5893   3.110   4.395   9.849 -0.1802 -0.2264 -0.3089
   69SLPC  C212 5894   3.244   4.241   9.865 -0.3228 -0.2587 -0.1209
   69SLPC  H12R 5895   3.299   4.253   9.960 -2.9517  0.9715  1.2961
   69SLPC  C213 5896   3.205   4.121   9.836  0.1060  0.1936  0.0422
   69SLPC  H13R 5897   3.235   4.040   9.906 -2.7141  0.0940  1.2049
   69SLPC  C214 5898   3.104   4.090   9.730  0.1149 -0.0014  0.2716
   69SLPC  H14R 5899   3.032   4.174   9.738  0.1751  0.2111 -1.3285
   69SLPC  H14S 5900   3.046   3.996   9.745 -0.5437  0.3549 -0.0229
   69SLPC  C215 5901   3.164   4.071   9.590  0.3389  0.1308 -0.2773
   69SLPC  H15R 5902   3.206   4.169   9.558 -0.3540  0.8857  1.1175
   69SLPC  H15S 5903   3.082   4.051   9.518 -0.9696 -1.1181  1.5105
   69SLPC  C216 5904   3.277   3.968   9.593  0.8363  0.5468  0.1386
   69SLPC  H16R 5905   3.230   3.875   9.630  3.4678 -0.3034  1.4549
   69SLPC  H16S 5906   3.368   3.985   9.654 -0.5308 -0.4987  2.5200
   69SLPC  C217 5907   3.320   3.916   9.460  0.2401  0.5805 -0.0653
   69SLPC  H17R 5908   3.231   3.877   9.406  1.6285 -1.9416 -0.5870
   69SLPC  H17S 5909   3.392   3.832   9.465 -1.5274 -1.1314 -2.3884
   69SLPC  C218 5910   3.387   4.022   9.374  0.0608 -0.2208 -0.2831
   69SLPC  H18R 5911   3.453   3.980   9.295 -0.7143 -3.9034  0.9331
   69SLPC  H18S 5912   3.454   4.070   9.448  0.4568 -0.9924 -0.1353
   69SLPC  H18T 5913   3.312   4.086   9.322  0.8549  1.3183  0.4363
   69SLPC   C33 5914   2.590   4.576  10.197 -0.8678 -0.1312  0.8328
   69SLPC   H3X 5915   2.580   4.684  10.173  2.2015  0.0393  0.1018
   69SLPC   H3Y 5916   2.490   4.540  10.165 -0.6863 -1.4801  1.7605
   69SLPC   C34 5917   2.709   4.546  10.108  0.2354 -0.4908  0.2921
   69SLPC   H4X 5918   2.767   4.457  10.138 -1.5785 -1.8206 -0.0559
   69SLPC   H4Y 5919   2.786   4.625  10.124 -0.9472  1.4046 -2.9459
   69SLPC   C35 5920   2.662   4.527   9.965 -0.0665 -0.1998 -0.4192
   69SLPC   H5X 5921   2.599   4.617   9.950  1.2700  1.3191  2.7214
   69SLPC   H5Y 5922   2.588   4.446   9.950  0.2239 -0.7243  0.8945
   69SLPC   C36 5923   2.767   4.527   9.854  0.9067 -0.2202  0.1030
   69SLPC   H6X 5924   2.845   4.601   9.882 -1.3318  2.2644  0.0095
   69SLPC   H6Y 5925   2.707   4.551   9.764 -0.3020 -1.2732  0.6118
   69SLPC   C37 5926   2.825   4.395   9.805  0.1910 -0.0779  0.1323
   69SLPC   H7X 5927   2.874   4.355   9.896  0.2980 -0.2946 -0.0193
   69SLPC   H7Y 5928   2.909   4.403   9.733  0.4304  0.8854  0.5139
   69SLPC   C38 5929   2.742   4.285   9.734  0.2051  0.0019 -0.3176
   69SLPC   H8X 5930   2.642   4.278   9.782  0.3337 -1.5863 -0.2478
   69SLPC   H8Y 5931   2.786   4.185   9.757  1.5542  0.4573 -0.8441
   69SLPC   C39 5932   2.732   4.301   9.579  0.7775  0.5212  0.2021
   69SLPC   H9X 5933   2.715   4.407   9.550  0.3333  0.1684 -0.8447
   69SLPC   H9Y 5934   2.644   4.242   9.542  2.3872 -1.0489 -1.2066
   69SLPC  C310 5935   2.851   4.239   9.500 -0.3770 -0.2376  0.5705
   69SLPC  H10X 5936   2.874   4.144   9.551 -2.2673 -0.7006  0.6228
   69SLPC  H10Y 5937   2.936   4.309   9.513  0.3787  0.1860 -5.1988
   69SLPC  C311 5938   2.818   4.218   9.353 -0.7162 -0.2698 -0.4322
   69SLPC  H11X 5939   2.795   4.320   9.318  1.2574  1.2403  2.4211
   69SLPC  H11Y 5940   2.730   4.150   9.356 -2.1759  1.5892 -0.0369
   69SLPC  C312 5941   2.922   4.144   9.274  0.1690 -0.4775 -0.2127
   69SLPC  H12X 5942   2.925   4.040   9.314 -4.0656 -0.4029  0.5927
   69SLPC  H12Y 5943   3.024   4.177   9.302 -0.2087  0.3045  0.2717
   69SLPC  C313 5944   2.903   4.137   9.122  0.4042  0.4904 -0.0941
   69SLPC  H13X 5945   2.900   4.233   9.067  2.3253 -0.1689 -1.4281
   69SLPC  H13Y 5946   2.810   4.080   9.100  0.6522  0.2701 -0.5888
   69SLPC  C314 5947   3.017   4.060   9.051 -0.3505  0.1672  0.0348
   69SLPC  H14X 5948   3.108   4.117   9.079  0.0508 -1.0842  1.3447
   69SLPC  H14Y 5949   2.995   4.052   8.942  1.1026 -0.3183 -0.2456
   69SLPC  C315 5950   3.042   3.912   9.104  0.3701  0.5667  0.5266
   69SLPC  H15X 5951   2.945   3.859   9.109 -0.0679  1.1624 -1.2529
   69SLPC  H15Y 5952   3.092   3.914   9.203 -0.6963  1.7542  1.0605
   69SLPC  C316 5953   3.146   3.838   9.021 -0.3801 -0.8288  0.2397
   69SLPC  H16X 5954   3.234   3.905   9.021  0.5312 -2.0147  0.4021
   69SLPC  H16Y 5955   3.102   3.814   8.922 -1.8409 -2.6421  1.2865
   69SLPC  C317 5956   3.192   3.702   9.088 -0.2329 -0.4247  0.5485
   69SLPC  H17X 5957   3.120   3.622   9.059 -0.5418  0.3071 -0.7650
   69SLPC  H17Y 5958   3.199   3.704   9.199 -1.9200 -1.2159  0.6846
   69SLPC  C318 5959   3.328   3.657   9.024 -0.4921  0.3301 -0.6296
   69SLPC  H18X 5960   3.390   3.749   9.012  1.0978 -0.7584 -0.8501
   69SLPC  H18Y 5961   3.304   3.625   8.921  1.8614  0.8107 -1.3450
   69SLPC  H18Z 5962   3.390   3.584   9.080 -1.0562 -1.4152 -2.2171
   70SLPC     N 5963   3.068   2.008  11.177  0.4076  0.1100  0.2385
   70SLPC   C13 5964   3.165   1.908  11.243  0.3008 -0.9120  0.2073
   70SLPC  H13A 5965   3.123   1.813  11.214  1.4511 -0.5500 -2.8100
   70SLPC  H13B 5966   3.253   1.911  11.180 -0.2314  2.9581 -0.5294
   70SLPC  H13C 5967   3.184   1.927  11.348  3.0695  0.4052 -0.4778
   70SLPC   C14 5968   3.122   2.134  11.223 -0.3774 -0.2478  0.3827
   70SLPC  H14A 5969   3.105   2.160  11.326 -0.0927  0.2780  0.2977
   70SLPC  H14B 5970   3.228   2.132  11.204 -0.7647 -0.5769 -1.9297
   70SLPC  H14C 5971   3.074   2.210  11.163  2.0611 -0.5908 -2.0724
   70SLPC   C15 5972   2.931   1.984  11.235  0.2016 -0.3380  0.1458
   70SLPC  H15A 5973   2.935   1.978  11.343 -1.0736 -0.0898  0.2109
   70SLPC  H15B 5974   2.849   2.047  11.204 -2.4670 -4.0347 -0.6528
   70SLPC  H15C 5975   2.898   1.886  11.201 -2.6933  0.7660 -0.3494
   70SLPC   C12 5976   3.060   1.989  11.026 -0.4425 -0.7622  0.6864
   70SLPC  H12A 5977   3.153   2.007  10.975 -0.3047 -1.3354  0.7351
   70SLPC  H12B 5978   2.983   2.054  10.987  1.4143  1.6506  0.9372
   70SLPC   C11 5979   3.020   1.855  10.970 -0.1284 -0.2631 -0.1137
   70SLPC  H11A 5980   3.020   1.875  10.860  0.0105  2.7101  0.3795
   70SLPC  H11B 5981   2.913   1.836  10.993 -0.1139  2.7276  2.7777
   70SLPC     P 5982   3.226   1.704  10.927  0.1521 -0.0089 -0.0664
   70SLPC   O13 5983   3.327   1.809  10.926  0.5776  0.5831 -0.1242
   70SLPC   O14 5984   3.272   1.577  10.995 -0.4138  0.5877 -0.3576
   70SLPC   O12 5985   3.100   1.754  11.001  0.3396 -0.0898 -0.1782
   70SLPC   O11 5986   3.181   1.668  10.785 -0.1642 -0.2436  0.2552
   70SLPC    C1 5987   3.095   1.559  10.753  0.6070  0.2791 -0.6766
   70SLPC    HA 5988   3.144   1.463  10.781  1.0401  0.9863  1.0895
   70SLPC    HB 5989   3.004   1.571  10.816 -0.0758  0.1447 -1.6231
   70SLPC    C2 5990   3.031   1.574  10.610 -0.5548  0.2074 -0.1123
   70SLPC    HS 5991   2.957   1.493  10.596 -2.8013  2.5131 -1.9990
   70SLPC   O21 5992   3.134   1.555  10.509  0.5956  0.6102  0.0046
   70SLPC   C21 5993   3.190   1.444  10.494 -0.3500 -0.0867  0.1803
   70SLPC   O22 5994   3.146   1.336  10.539 -0.0355 -0.7293 -0.0985
   70SLPC   C22 5995   3.329   1.450  10.432  0.7146 -0.5796  0.3743
   70SLPC   H2R 5996   3.338   1.542  10.370 -2.5593 -0.2396  0.3104
   70SLPC   H2S 5997   3.400   1.456  10.517 -0.5863  0.9210  1.3956
   70SLPC    C3 5998   2.969   1.708  10.572 -0.1576  0.8180 -0.0023
   70SLPC    HX 5999   3.049   1.783  10.587 -0.4300  0.8678  1.2323
   70SLPC    HY 6000   2.888   1.731  10.643 -1.0900 -2.9462  0.2966
   70SLPC   O31 6001   2.925   1.700  10.434 -0.2686 -1.3385 -0.3567
   70SLPC   C31 6002   2.890   1.819  10.372 -0.6818 -0.5424  0.0572
   70SLPC   O32 6003   2.909   1.930  10.420 -0.1521 -0.0243  0.5267
   70SLPC   C32 6004   2.824   1.780  10.240 -0.3022 -0.1323 -0.4935
   70SLPC   H2X 6005   2.754   1.698  10.266 -2.1517  1.8322  0.9541
   70SLPC   H2Y 6006   2.901   1.754  10.165  1.6576 -1.2641  1.8652
   70SLPC   C23 6007   3.366   1.335  10.335 -0.1769 -1.1106 -0.3128
   70SLPC   H3R 6008   3.341   1.238  10.381  0.8981 -0.2778  2.1093
   70SLPC   H3S 6009   3.474   1.347  10.314  0.0548  0.1901  1.4799
   70SLPC   C24 6010   3.282   1.351  10.211  0.3237 -0.1972  0.1257
   70SLPC   H4R 6011   3.296   1.458  10.183 -1.0238  0.4040  1.6866
   70SLPC   H4S 6012   3.182   1.314  10.241 -0.3049 -1.1653 -2.9392
   70SLPC   C25 6013   3.355   1.263  10.110  0.2890 -0.2584 -0.9870
   70SLPC   H5R 6014   3.351   1.159  10.149  0.5290 -0.3767 -1.2746
   70SLPC   H5S 6015   3.457   1.307  10.109  0.1415  0.0854 -1.1167
   70SLPC   C26 6016   3.272   1.274   9.980 -0.2324  0.2167 -0.0885
   70SLPC   H6R 6017   3.270   1.381   9.950 -0.2232  0.5676  1.1316
   70SLPC   H6S 6018   3.167   1.240   9.991 -0.3166  0.5201  0.0449
   70SLPC   C27 6019   3.346   1.198   9.871 -0.2701 -0.0428  0.0557
   70SLPC   H7R 6020   3.369   1.097   9.911 -2.2156 -0.8269 -0.7152
   70SLPC   H7S 6021   3.449   1.237   9.859  0.1541 -1.2495 -0.2965
   70SLPC   C28 6022   3.266   1.187   9.741 -0.3565  0.6149 -0.1326
   70SLPC   H8R 6023   3.165   1.147   9.763  0.1845 -0.9667 -0.4944
   70SLPC   H8S 6024   3.306   1.109   9.673 -0.2265 -0.2106  0.8706
   70SLPC   C29 6025   3.230   1.312   9.668 -0.4767 -0.5347 -0.3377
   70SLPC   H9R 6026   3.155   1.375   9.720  1.7764  1.9447  0.0366
   70SLPC  C210 6027   3.275   1.343   9.540  0.0827  0.2330 -0.2536
   70SLPC  H10R 6028   3.253   1.445   9.507 -0.1022  0.6667  1.1440
   70SLPC  C211 6029   3.368   1.248   9.464 -0.9075  0.3079 -0.0838
   70SLPC  H11R 6030   3.456   1.221   9.526 -0.5984 -1.0250 -1.0696
   70SLPC  H11S 6031   3.417   1.312   9.387 -0.4842 -1.6302 -1.4819
   70SLPC  C212 6032   3.301   1.132   9.398  0.1046  0.1558 -0.0481
   70SLPC  H12R 6033   3.299   1.042   9.460  1.1422  0.9916  1.2238
   70SLPC  C213 6034   3.257   1.117   9.275 -0.3152  0.2727  0.6947
   70SLPC  H13R 6035   3.208   1.022   9.249  0.0025  0.1814  0.4312
   70SLPC  C214 6036   3.249   1.226   9.175  0.7648 -0.3248 -0.7393
   70SLPC  H14R 6037   3.230   1.324   9.224  2.5309  1.2862 -3.1561
   70SLPC  H14S 6038   3.172   1.200   9.099  1.1038 -0.4437 -1.0430
   70SLPC  C215 6039   3.375   1.262   9.090 -0.1361 -0.2537 -0.0385
   70SLPC  H15R 6040   3.415   1.171   9.040 -0.4505 -0.4568  0.0841
   70SLPC  H15S 6041   3.462   1.295   9.150  0.3308  0.6366 -1.1689
   70SLPC  C216 6042   3.339   1.365   8.975 -0.8226  0.0845  0.6522
   70SLPC  H16R 6043   3.309   1.462   9.019 -2.0354  0.8220 -1.7361
   70SLPC  H16S 6044   3.252   1.327   8.916  0.2006 -0.7375 -0.3423
   70SLPC  C217 6045   3.447   1.389   8.875 -0.3332 -0.7442 -0.7850
   70SLPC  H17R 6046   3.472   1.290   8.831 -3.2563 -1.2997 -1.2960
   70SLPC  H17S 6047   3.543   1.434   8.911 -0.6564 -1.0987  0.5590
   70SLPC  C218 6048   3.398   1.476   8.759  0.2777  0.1785  0.4011
   70SLPC  H18R 6049   3.428   1.424   8.666  1.3611 -1.6272  1.7410
   70SLPC  H18S 6050   3.452   1.572   8.743  0.5491 -0.0155  0.1623
   70SLPC  H18T 6051   3.288   1.494   8.749  0.2870 -1.0093 -2.0521
   70SLPC   C33 6052   2.748   1.904  10.178  0.0136  0.6029 -0.0595
   70SLPC   H3X 6053   2.807   1.998  10.175 -0.5571  0.9527 -0.3900
   70SLPC   H3Y 6054   2.672   1.923  10.257  0.5972 -1.0115  0.9316
   70SLPC   C34 6055   2.678   1.878  10.040  0.0194 -0.5350  0.1102
   70SLPC   H4X 6056   2.618   1.966  10.008  2.4598  1.1944  0.1728
   70SLPC   H4Y 6057   2.619   1.789  10.072 -0.6988  0.2994  1.1594
   70SLPC   C35 6058   2.780   1.840   9.929  0.7527 -0.1093  0.2530
   70SLPC   H5X 6059   2.874   1.788   9.959  0.3719 -0.7098  0.4305
   70SLPC   H5Y 6060   2.815   1.939   9.895  3.0317 -0.4161  1.5539
   70SLPC   C36 6061   2.714   1.767   9.811  0.0770 -0.5539  0.0251
   70SLPC   H6X 6062   2.675   1.677   9.862 -0.1087 -0.2862  0.3590
   70SLPC   H6Y 6063   2.796   1.728   9.747 -1.1815  0.0736 -2.0258
   70SLPC   C37 6064   2.607   1.845   9.733 -0.4351  0.0127  1.2470
   70SLPC   H7X 6065   2.636   1.950   9.710  0.1196 -0.3726  0.1927
   70SLPC   H7Y 6066   2.516   1.841   9.797 -0.6827  2.0494  1.0737
   70SLPC   C38 6067   2.570   1.770   9.602  0.3799  0.4152 -0.7170
   70SLPC   H8X 6068   2.469   1.793   9.562  0.5812 -1.1878 -2.2411
   70SLPC   H8Y 6069   2.565   1.661   9.624 -0.9053  0.4837 -0.6545
   70SLPC   C39 6070   2.670   1.794   9.492 -0.2419 -0.1813 -0.1987
   70SLPC   H9X 6071   2.668   1.704   9.426  1.0154 -1.2658  1.2039
   70SLPC   H9Y 6072   2.772   1.798   9.537  0.5231  2.5303 -2.0497
   70SLPC  C310 6073   2.655   1.925   9.405  0.6873  1.3469  0.0743
   70SLPC  H10X 6074   2.740   1.945   9.336  1.0252  0.7766  0.3203
   70SLPC  H10Y 6075   2.642   2.009   9.476  2.1222  2.3112 -0.7600
   70SLPC  C311 6076   2.546   1.905   9.297  0.1247  0.0817 -0.8639
   70SLPC  H11X 6077   2.462   1.853   9.347 -0.6749  1.0013 -1.2236
   70SLPC  H11Y 6078   2.587   1.835   9.222  0.7139 -0.2860 -0.2124
   70SLPC  C312 6079   2.491   2.048   9.245  0.1351  0.8879 -0.1844
   70SLPC  H12X 6080   2.576   2.117   9.225 -0.2213  1.6194  0.7838
   70SLPC  H12Y 6081   2.426   2.095   9.322  0.0574  0.0632  0.2504
   70SLPC  C313 6082   2.413   2.033   9.116  0.1268  1.4216 -0.4135
   70SLPC  H13X 6083   2.366   2.130   9.090 -2.9423  0.0285 -0.3656
   70SLPC  H13Y 6084   2.327   1.964   9.135 -0.3863  2.3760  0.8063
   70SLPC  C314 6085   2.496   1.980   8.999  0.2670 -0.4560  0.2569
   70SLPC  H14X 6086   2.534   1.879   9.024 -1.2283 -1.4395 -1.3526
   70SLPC  H14Y 6087   2.576   2.056   8.984 -1.9693  2.4351  2.1549
   70SLPC  C315 6088   2.411   1.963   8.869 -0.0217  0.1711  0.3902
   70SLPC  H15X 6089   2.370   2.062   8.840 -2.1102 -0.9799 -0.7320
   70SLPC  H15Y 6090   2.335   1.884   8.886 -0.1969 -0.0576 -1.4022
   70SLPC  C316 6091   2.508   1.902   8.759 -0.0734  0.3485  0.3396
   70SLPC  H16X 6092   2.542   1.803   8.796 -0.6226  1.2967  3.5182
   70SLPC  H16Y 6093   2.598   1.967   8.749  0.0206  0.2397  0.5003
   70SLPC  C317 6094   2.450   1.890   8.616  0.1273 -0.2905 -0.3400
   70SLPC  H17X 6095   2.387   1.977   8.587  0.0639 -0.7403 -1.6002
   70SLPC  H17Y 6096   2.380   1.804   8.616  0.1547 -0.3125  0.2277
   70SLPC  C318 6097   2.555   1.883   8.510 -1.1592  0.0273 -0.6001
   70SLPC  H18X 6098   2.643   1.819   8.535 -0.8189  0.1817 -1.3621
   70SLPC  H18Y 6099   2.604   1.982   8.499  1.3050 -1.0916 -0.1088
   70SLPC  H18Z 6100   2.522   1.842   8.412 -0.9342  1.3828 -1.2416
   71SLPC     N 6101   2.994   0.497  10.990  0.4242 -0.2807  0.1306
   71SLPC   C13 6102   3.035   0.429  11.114 -0.2934  0.2317  0.8543
   71SLPC  H13A 6103   2.970   0.363  11.168  1.5201 -0.2446  2.5222
   71SLPC  H13B 6104   3.132   0.383  11.102 -1.6218 -2.1890 -0.7701
   71SLPC  H13C 6105   3.064   0.510  11.180  3.2568 -0.4365  0.2342
   71SLPC   C14 6106   3.102   0.595  10.955 -0.1474 -0.0256 -0.0257
   71SLPC  H14A 6107   3.194   0.541  10.942 -0.8489 -1.3949  0.5392
   71SLPC  H14B 6108   3.070   0.644  10.864 -0.2268 -0.9781 -0.5224
   71SLPC  H14C 6109   3.109   0.671  11.032  2.0099  0.7004 -0.9202
   71SLPC   C15 6110   2.866   0.576  11.015 -0.0851 -0.1576  0.6015
   71SLPC  H15A 6111   2.795   0.517  11.070 -1.8797  1.5966  0.2397
   71SLPC  H15B 6112   2.894   0.670  11.061  3.1200 -1.0425  0.5476
   71SLPC  H15C 6113   2.816   0.603  10.923  1.3553  1.8713  0.3636
   71SLPC   C12 6114   2.966   0.400  10.878 -0.4905 -0.7290 -1.0125
   71SLPC  H12A 6115   2.897   0.322  10.907 -1.6417  0.6320 -0.0560
   71SLPC  H12B 6116   3.056   0.343  10.860  0.3791  0.5982 -0.9757
   71SLPC   C11 6117   2.923   0.459  10.743  0.3431 -0.2669  0.5578
   71SLPC  H11A 6118   2.941   0.387  10.661 -1.0021  0.0548 -0.0248
   71SLPC  H11B 6119   2.990   0.544  10.719  1.0392 -0.1907  2.6626
   71SLPC     P 6120   2.671   0.395  10.760  0.0726  0.0720  0.0670
   71SLPC   O13 6121   2.715   0.273  10.834  0.7215 -0.2071  0.1756
   71SLPC   O14 6122   2.551   0.459  10.814  0.2079  0.3063  0.4920
   71SLPC   O12 6123   2.787   0.499  10.752 -0.4017  0.5060 -0.0561
   71SLPC   O11 6124   2.641   0.359  10.613 -0.0432  0.2193 -0.4751
   71SLPC    C1 6125   2.616   0.452  10.511 -0.0078  0.3117 -0.1267
   71SLPC    HA 6126   2.645   0.557  10.536  0.3635 -0.0493  0.9467
   71SLPC    HB 6127   2.670   0.406  10.426  0.4469 -0.8182  0.7676
   71SLPC    C2 6128   2.470   0.444  10.470  0.1602 -0.0285  0.7024
   71SLPC    HS 6129   2.415   0.445  10.566  0.2623 -0.1093  0.7627
   71SLPC   O21 6130   2.445   0.316  10.408 -1.0130  0.1184  0.0052
   71SLPC   C21 6131   2.320   0.295  10.371  0.9497  0.6023  0.0779
   71SLPC   O22 6132   2.231   0.374  10.403  0.9994  0.2003  0.0480
   71SLPC   C22 6133   2.304   0.150  10.312 -0.4512  0.0263  0.2878
   71SLPC   H2R 6134   2.399   0.116  10.266  0.4252 -0.1442  2.1749
   71SLPC   H2S 6135   2.293   0.098  10.410 -2.1926  0.5556  0.3787
   71SLPC    C3 6136   2.438   0.574  10.383  1.0332 -1.1336 -0.0504
   71SLPC    HX 6137   2.454   0.657  10.454 -1.6949  0.4265 -1.1758
   71SLPC    HY 6138   2.329   0.584  10.361  1.3440 -1.4047 -1.8418
   71SLPC   O31 6139   2.513   0.589  10.260 -0.2069  0.1907 -0.9907
   71SLPC   C31 6140   2.455   0.536  10.151  0.6994  0.5363 -0.0869
   71SLPC   O32 6141   2.352   0.473  10.140  0.0484 -0.4777 -0.1210
   71SLPC   C32 6142   2.568   0.556  10.049  0.2065  0.5196  0.6721
   71SLPC   H2X 6143   2.665   0.568  10.100  0.5113 -3.5834  1.2428
   71SLPC   H2Y 6144   2.537   0.645   9.990 -0.2998 -0.1392 -0.0709
   71SLPC   C23 6145   2.176   0.121  10.233  0.4094 -0.4939 -0.9762
   71SLPC   H3R 6146   2.095   0.163  10.296 -0.1454 -0.6713 -1.5650
   71SLPC   H3S 6147   2.150   0.013  10.224  2.3156 -1.0562 -0.0677
   71SLPC   C24 6148   2.174   0.189  10.091 -0.0675 -0.5701 -0.1847
   71SLPC   H4R 6149   2.272   0.176  10.040 -0.1942  0.8244 -0.8058
   71SLPC   H4S 6150   2.159   0.299  10.095 -1.8973 -0.8112  0.0026
   71SLPC   C25 6151   2.059   0.131  10.013  0.2753 -0.0199  0.3761
   71SLPC   H5R 6152   1.965   0.136  10.072  0.7433 -0.8122  1.2056
   71SLPC   H5S 6153   2.086   0.025   9.995 -0.5046 -0.2410  0.4653
   71SLPC   C26 6154   2.034   0.191   9.871  0.2891 -0.9952 -0.6731
   71SLPC   H6R 6155   1.987   0.291   9.887  2.1757 -0.3687  1.1626
   71SLPC   H6S 6156   1.966   0.123   9.816  3.1031 -2.8965 -1.9333
   71SLPC   C27 6157   2.157   0.199   9.786  0.4734  0.0335 -1.0494
   71SLPC   H7R 6158   2.195   0.096   9.774  1.3927 -0.0407  2.0327
   71SLPC   H7S 6159   2.236   0.264   9.830  0.0847  1.1886 -2.0155
   71SLPC   C28 6160   2.122   0.257   9.649  0.7406  0.3326  0.7264
   71SLPC   H8R 6161   2.078   0.356   9.673 -1.5632 -0.7501  1.1341
   71SLPC   H8S 6162   2.047   0.189   9.603 -1.1705  2.8390  0.0698
   71SLPC   C29 6163   2.239   0.264   9.552 -1.1739  0.6088  0.3589
   71SLPC   H9R 6164   2.332   0.297   9.601  0.0679 -1.5300 -0.4801
   71SLPC  C210 6165   2.223   0.245   9.422 -0.0932  0.3285  0.3459
   71SLPC  H10R 6166   2.317   0.254   9.364  0.1718  4.0368  1.2453
   71SLPC  C211 6167   2.098   0.214   9.343 -0.2715 -0.7036 -0.2763
   71SLPC  H11R 6168   2.077   0.283   9.259  2.5818 -0.1879 -0.6019
   71SLPC  H11S 6169   2.004   0.226   9.402 -0.8100  2.2382 -1.6461
   71SLPC  C212 6170   2.111   0.066   9.313  0.1055 -0.0375  0.1632
   71SLPC  H12R 6171   2.134   0.017   9.409 -1.6370  2.0573  1.6882
   71SLPC  C213 6172   2.081  -0.011   9.208  0.3349  0.9962 -0.3836
   71SLPC  H13R 6173   2.109  -0.117   9.199 -1.1773  0.6655 -1.4174
   71SLPC  C214 6174   2.026   0.035   9.077  0.1432  0.4032 -0.1931
   71SLPC  H14R 6175   2.044   0.143   9.062 -1.3842  0.4898 -1.6417
   71SLPC  H14S 6176   1.916   0.016   9.081 -0.2076  2.6618  1.1978
   71SLPC  C215 6177   2.080  -0.038   8.949  0.2178 -0.7145  0.5485
   71SLPC  H15R 6178   2.099  -0.144   8.975  1.1450 -0.8735 -0.7099
   71SLPC  H15S 6179   2.179   0.011   8.935  0.0080 -0.2907  0.5364
   71SLPC  C216 6180   2.003  -0.024   8.820  0.0871 -0.3451 -0.5114
   71SLPC  H16R 6181   2.081  -0.012   8.742  0.4755 -0.3748 -0.1327
   71SLPC  H16S 6182   1.943   0.069   8.825 -0.0650 -0.4514 -0.3642
   71SLPC  C217 6183   1.905  -0.142   8.792  0.3083  0.1837  0.2785
   71SLPC  H17R 6184   1.843  -0.163   8.882 -1.1329  2.9146 -0.0188
   71SLPC  H17S 6185   1.974  -0.226   8.769  0.9625  0.6648  0.4629
   71SLPC  C218 6186   1.816  -0.098   8.680  0.6117 -0.5657  0.1716
   71SLPC  H18R 6187   1.736  -0.170   8.655 -0.4023  0.0329  1.6398
   71SLPC  H18S 6188   1.883  -0.076   8.594 -0.9373  3.4243 -0.1160
   71SLPC  H18T 6189   1.770   0.001   8.702  2.7800  0.7724 -1.0271
   71SLPC   C33 6190   2.579   0.442   9.947 -0.1095  0.1651 -0.2749
   71SLPC   H3X 6191   2.482   0.388   9.935  0.8737 -1.8165  0.5229
   71SLPC   H3Y 6192   2.645   0.367   9.994  0.3428 -0.4095 -1.8167
   71SLPC   C34 6193   2.627   0.485   9.810  0.7215 -0.2967 -0.2693
   71SLPC   H4X 6194   2.726   0.535   9.802  0.0926  1.0636  0.3697
   71SLPC   H4Y 6195   2.557   0.565   9.778  0.6191 -0.7181 -1.1314
   71SLPC   C35 6196   2.630   0.373   9.709  0.3076  0.3016 -0.4768
   71SLPC   H5X 6197   2.528   0.335   9.686 -0.5019  0.5707  2.4329
   71SLPC   H5Y 6198   2.700   0.290   9.733  0.0940  0.6605  1.4493
   71SLPC   C36 6199   2.685   0.420   9.571  0.2164  0.5120  0.0679
   71SLPC   H6X 6200   2.795   0.439   9.577  0.6572 -0.2843 -3.7031
   71SLPC   H6Y 6201   2.633   0.515   9.548 -1.5158 -1.1513 -3.3081
   71SLPC   C37 6202   2.655   0.324   9.457  0.2691 -0.2206 -0.3684
   71SLPC   H7X 6203   2.545   0.313   9.446 -0.0536  0.0775  2.1794
   71SLPC   H7Y 6204   2.689   0.219   9.468 -1.6135 -1.2752 -3.8558
   71SLPC   C38 6205   2.712   0.379   9.326 -0.3379 -0.1116 -0.6436
   71SLPC   H8X 6206   2.823   0.387   9.323 -0.3209  0.9149  1.5197
   71SLPC   H8Y 6207   2.682   0.486   9.322  0.0796  0.0467  0.3601
   71SLPC   C39 6208   2.652   0.303   9.209 -0.6427 -0.0361  0.6592
   71SLPC   H9X 6209   2.547   0.315   9.177 -0.8427 -0.2373  1.2469
   71SLPC   H9Y 6210   2.662   0.195   9.233 -1.4337 -0.2813 -0.0815
   71SLPC  C310 6211   2.738   0.338   9.085 -0.1673 -0.3554  0.1761
   71SLPC  H10X 6212   2.840   0.309   9.117 -0.3796 -0.7887  0.4589
   71SLPC  H10Y 6213   2.745   0.449   9.075  0.5740 -0.6429 -2.8554
   71SLPC  C311 6214   2.715   0.266   8.953  0.3939  0.1837  0.6709
   71SLPC  H11X 6215   2.779   0.319   8.879 -0.5943  0.6674  0.1353
   71SLPC  H11Y 6216   2.611   0.293   8.921 -0.2943 -3.1180 -0.1166
   71SLPC  C312 6217   2.727   0.117   8.947 -0.7341  0.1885  0.4026
   71SLPC  H12X 6218   2.655   0.068   9.017 -1.2522 -0.3740 -0.5227
   71SLPC  H12Y 6219   2.832   0.085   8.967 -0.5926  0.5962  0.3062
   71SLPC  C313 6220   2.702   0.060   8.807 -0.3368  0.1763 -0.3062
   71SLPC  H13X 6221   2.737  -0.044   8.793  3.2618  1.2605  0.1122
   71SLPC  H13Y 6222   2.767   0.120   8.739 -0.4993  0.0991 -0.5277
   71SLPC  C314 6223   2.565   0.077   8.734  0.3458  0.9212 -0.6450
   71SLPC  H14X 6224   2.528   0.180   8.753  0.5404  0.7472  0.6680
   71SLPC  H14Y 6225   2.478   0.026   8.781  0.5405  1.2755  0.1059
   71SLPC  C315 6226   2.561   0.042   8.586  0.1618 -0.1344  0.0408
   71SLPC  H15X 6227   2.610  -0.056   8.568  0.9540  0.5080 -1.3762
   71SLPC  H15Y 6228   2.624   0.114   8.530  4.8539 -1.8939  2.8078
   71SLPC  C316 6229   2.421   0.044   8.531  0.0338  0.4675  0.3750
   71SLPC  H16X 6230   2.375   0.140   8.564 -1.4597 -1.1562  3.2419
   71SLPC  H16Y 6231   2.367  -0.042   8.577 -0.3650 -0.2155 -1.3232
   71SLPC  C317 6232   2.403   0.027   8.382  0.2331 -0.1441  0.0884
   71SLPC  H17X 6233   2.465  -0.061   8.354  1.6790  0.2505  1.9403
   71SLPC  H17Y 6234   2.455   0.114   8.335  0.9949  0.7460  2.4815
   71SLPC  C318 6235   2.260   0.017   8.335  0.7751 -0.4836 -0.0894
   71SLPC  H18X 6236   2.201   0.111   8.347 -0.6140 -1.3827  0.1283
   71SLPC  H18Y 6237   2.205  -0.054   8.400  0.8754 -0.4685  0.0117
   71SLPC  H18Z 6238   2.252  -0.007   8.227  0.6722  0.6365 -0.3403
   72SLPC     N 6239   4.409   6.272  10.731  0.4885  0.7915  0.4616
   72SLPC   C13 6240   4.271   6.277  10.673  0.6270  0.2323  0.1333
   72SLPC  H13A 6241   4.222   6.373  10.676  1.8308  0.8797 -0.5764
   72SLPC  H13B 6242   4.271   6.239  10.572 -0.6584  0.4435  0.0378
   72SLPC  H13C 6243   4.205   6.207  10.722 -0.9149  2.0698  0.7482
   72SLPC   C14 6244   4.399   6.281  10.878  0.6242 -0.4372  0.2327
   72SLPC  H14A 6245   4.495   6.301  10.924  0.6635 -0.7762  0.2986
   72SLPC  H14B 6246   4.342   6.368  10.905  0.6441  0.6652 -3.0377
   72SLPC  H14C 6247   4.365   6.190  10.926  3.4546 -2.5273 -1.4674
   72SLPC   C15 6248   4.484   6.390  10.668 -0.5465  0.7051  0.7982
   72SLPC  H15A 6249   4.490   6.374  10.562  0.6981  3.0705  0.4783
   72SLPC  H15B 6250   4.432   6.479  10.699 -1.1637  0.1935  1.2566
   72SLPC  H15C 6251   4.585   6.389  10.707 -0.2481  1.6279  0.0720
   72SLPC   C12 6252   4.480   6.148  10.688 -0.0822  0.1377 -0.3441
   72SLPC  H12A 6253   4.564   6.139  10.755 -1.6281 -1.2243  1.4869
   72SLPC  H12B 6254   4.508   6.172  10.586 -1.3422 -0.2162 -0.7782
   72SLPC   C11 6255   4.401   6.013  10.693  0.1860 -0.1420  0.1941
   72SLPC  H11A 6256   4.475   5.931  10.677 -1.3244 -1.4304 -0.3618
   72SLPC  H11B 6257   4.332   6.014  10.606  1.1337 -0.2927 -0.5674
   72SLPC     P 6258   4.193   5.941  10.830 -0.2869 -0.1180 -0.3264
   72SLPC   O13 6259   4.177   5.871  10.958  0.5665 -0.0772 -0.4565
   72SLPC   O14 6260   4.106   6.056  10.808 -0.1940  0.2398  0.2467
   72SLPC   O12 6261   4.345   6.004  10.824  0.6517  0.6061  0.2797
   72SLPC   O11 6262   4.167   5.834  10.716  1.0966 -0.5528  0.1454
   72SLPC    C1 6263   4.026   5.790  10.704 -0.9660 -0.4324 -0.0093
   72SLPC    HA 6264   4.010   5.699  10.764  1.8846 -0.4661  0.7618
   72SLPC    HB 6265   3.957   5.875  10.724  0.5725  0.4460  1.7528
   72SLPC    C2 6266   3.990   5.730  10.558 -0.4651 -1.2299  0.6915
   72SLPC    HS 6267   4.050   5.637  10.559  1.0295 -0.2881  1.2355
   72SLPC   O21 6268   4.038   5.832  10.469  0.0639  0.3845  0.3797
   72SLPC   C21 6269   4.074   5.790  10.354 -0.0252 -0.0749 -0.9125
   72SLPC   O22 6270   4.089   5.677  10.320  0.2519  0.6474 -0.6430
   72SLPC   C22 6271   4.092   5.921  10.266  0.1411  0.2032 -0.1076
   72SLPC   H2R 6272   4.000   5.982  10.263 -1.2115 -1.8242 -1.2883
   72SLPC   H2S 6273   4.164   5.982  10.325  1.2444 -0.3149 -0.8810
   72SLPC    C3 6274   3.842   5.708  10.535  0.3115 -0.5941 -0.0760
   72SLPC    HX 6275   3.794   5.808  10.542 -2.2661 -1.7333 -0.9703
   72SLPC    HY 6276   3.799   5.640  10.612  0.4121  1.7254  2.0721
   72SLPC   O31 6277   3.810   5.662  10.402  0.9928 -0.1936 -0.3634
   72SLPC   C31 6278   3.828   5.532  10.375  0.6251 -0.5361  0.4057
   72SLPC   O32 6279   3.871   5.453  10.456 -0.7441 -1.1284  0.3342
   72SLPC   C32 6280   3.793   5.505  10.231  0.4730 -0.4473 -0.1141
   72SLPC   H2X 6281   3.783   5.597  10.170  0.4254 -1.4300 -1.6251
   72SLPC   H2Y 6282   3.691   5.460  10.227  0.1208  0.2349  0.8296
   72SLPC   C23 6283   4.140   5.908  10.114  0.3622  0.5970  0.4138
   72SLPC   H3R 6284   4.223   5.835  10.104 -0.0104  0.2959 -0.4905
   72SLPC   H3S 6285   4.180   6.000  10.068  1.5340 -0.4910 -0.7677
   72SLPC   C24 6286   4.018   5.861  10.033 -0.1401  0.2077 -0.1978
   72SLPC   H4R 6287   3.947   5.947  10.034  0.7184  0.9115  1.4734
   72SLPC   H4S 6288   3.983   5.768  10.081  1.4198 -0.3818 -0.1727
   72SLPC   C25 6289   4.052   5.835   9.885  0.4049  0.1090  0.5011
   72SLPC   H5R 6290   4.125   5.752   9.879 -1.7011 -1.6136 -2.8047
   72SLPC   H5S 6291   4.108   5.920   9.841  0.1843 -0.5545 -1.0801
   72SLPC   C26 6292   3.926   5.794   9.803 -0.1866  0.8062  0.3219
   72SLPC   H6R 6293   3.857   5.881   9.797 -1.3531 -0.1492 -0.8262
   72SLPC   H6S 6294   3.874   5.710   9.855  1.5434 -1.0043 -0.8247
   72SLPC   C27 6295   3.984   5.738   9.665  0.6061 -0.5434  0.3674
   72SLPC   H7R 6296   4.063   5.664   9.688  0.1219 -1.2477 -0.2317
   72SLPC   H7S 6297   4.030   5.816   9.600  1.4176 -1.3048  0.0278
   72SLPC   C28 6298   3.869   5.667   9.597 -0.1668  0.3555 -0.0768
   72SLPC   H8R 6299   3.788   5.744   9.596 -0.8986 -0.4088 -0.1390
   72SLPC   H8S 6300   3.824   5.582   9.653 -0.3554  0.1243 -0.5711
   72SLPC   C29 6301   3.903   5.609   9.460 -0.2470  0.4111  0.3444
   72SLPC   H9R 6302   3.943   5.506   9.468 -0.2775  0.1534 -2.4194
   72SLPC  C210 6303   3.865   5.651   9.337 -0.3187  0.4269 -0.5758
   72SLPC  H10R 6304   3.889   5.589   9.250 -1.2389 -0.4949 -0.1855
   72SLPC  C211 6305   3.793   5.780   9.317  0.7097 -0.6910  0.2046
   72SLPC  H11R 6306   3.811   5.855   9.397  0.3579  1.4698 -1.7103
   72SLPC  H11S 6307   3.683   5.764   9.327  0.7924 -1.5500 -0.1939
   72SLPC  C212 6308   3.829   5.854   9.191  0.6897  0.4745 -0.2770
   72SLPC  H12R 6309   3.914   5.924   9.189  0.7917  0.3459 -0.4348
   72SLPC  C213 6310   3.774   5.850   9.071  0.2186 -0.4661  0.2807
   72SLPC  H13R 6311   3.813   5.915   8.991  0.7235 -1.3506 -0.1932
   72SLPC  C214 6312   3.648   5.773   9.023  0.1444 -0.0578  0.8807
   72SLPC  H14R 6313   3.557   5.835   9.032  0.5835  1.0218 -1.7247
   72SLPC  H14S 6314   3.628   5.692   9.097  1.6844 -1.1164  0.1739
   72SLPC  C215 6315   3.661   5.739   8.877  0.7888  0.3281  0.0128
   72SLPC  H15R 6316   3.759   5.690   8.858 -0.3970 -1.4534 -1.7707
   72SLPC  H15S 6317   3.654   5.831   8.814  0.8447  0.7499  0.6232
   72SLPC  C216 6318   3.565   5.626   8.833  0.1708 -0.3483  0.4267
   72SLPC  H16R 6319   3.462   5.665   8.843  0.8597  1.4770  0.4882
   72SLPC  H16S 6320   3.579   5.541   8.904 -2.8887 -0.3735  1.0892
   72SLPC  C217 6321   3.568   5.577   8.692 -0.5764  0.1163  0.5255
   72SLPC  H17R 6322   3.559   5.662   8.622 -3.3087  1.7461  2.7252
   72SLPC  H17S 6323   3.483   5.508   8.674  0.3992 -1.1005  0.4716
   72SLPC  C218 6324   3.694   5.504   8.645  0.1000  0.4375  0.4845
   72SLPC  H18R 6325   3.784   5.567   8.659  0.4161  0.4845 -1.5976
   72SLPC  H18S 6326   3.684   5.499   8.534 -0.1641 -3.1580  0.6113
   72SLPC  H18T 6327   3.699   5.409   8.702 -0.0107  1.3720  2.0981
   72SLPC   C33 6328   3.897   5.409  10.163  0.4846  0.4324  0.2315
   72SLPC   H3X 6329   3.897   5.313  10.219  1.2750  0.0784 -0.3509
   72SLPC   H3Y 6330   3.996   5.455  10.183  2.2448 -2.3130 -1.7817
   72SLPC   C34 6331   3.877   5.383  10.008  0.0278 -0.5614 -0.3671
   72SLPC   H4X 6332   3.971   5.351   9.960  1.2213  3.2078 -0.6867
   72SLPC   H4Y 6333   3.843   5.475   9.956  0.8412 -1.1887 -2.0092
   72SLPC   C35 6334   3.776   5.278   9.985  0.3298 -0.3079  0.1369
   72SLPC   H5X 6335   3.695   5.286  10.061  0.5135  1.0684  0.2021
   72SLPC   H5Y 6336   3.822   5.180  10.012  0.3202  0.2490  2.2229
   72SLPC   C36 6337   3.714   5.284   9.842 -0.5801 -0.0727 -0.4162
   72SLPC   H6X 6338   3.667   5.381   9.819 -0.8429 -0.2387 -0.5887
   72SLPC   H6Y 6339   3.633   5.208   9.831 -0.1047 -0.9921  2.0785
   72SLPC   C37 6340   3.819   5.254   9.738 -0.3448 -0.4335 -0.4839
   72SLPC   H7X 6341   3.869   5.157   9.760 -0.2095 -0.2682 -0.0587
   72SLPC   H7Y 6342   3.898   5.330   9.753 -1.3424  0.1957  1.8008
   72SLPC   C38 6343   3.770   5.259   9.590 -0.3661 -0.1353 -0.4238
   72SLPC   H8X 6344   3.737   5.365   9.578 -1.3655 -0.4119 -0.1008
   72SLPC   H8Y 6345   3.687   5.187   9.577 -0.4115 -0.1550 -0.0245
   72SLPC   C39 6346   3.888   5.232   9.480  0.8274  0.1293 -0.4705
   72SLPC   H9X 6347   3.972   5.303   9.493 -0.0491  1.1494 -0.2820
   72SLPC   H9Y 6348   3.836   5.253   9.384 -0.8790  0.4254  0.4874
   72SLPC  C310 6349   3.934   5.092   9.478  0.3821 -0.4964 -0.1800
   72SLPC  H10X 6350   3.858   5.012   9.471 -0.5934  0.4358 -0.2363
   72SLPC  H10Y 6351   4.005   5.074   9.562 -0.2535 -2.4792 -0.0361
   72SLPC  C311 6352   4.032   5.064   9.355 -0.0786 -1.6707 -0.3410
   72SLPC  H11X 6353   3.968   5.071   9.264  2.2634 -0.3637 -1.9464
   72SLPC  H11Y 6354   4.079   4.964   9.367 -0.9779 -1.8963  1.4439
   72SLPC  C312 6355   4.147   5.159   9.327 -0.0785 -0.1182 -0.0575
   72SLPC  H12X 6356   4.211   5.142   9.416  1.7159 -0.3641 -1.3451
   72SLPC  H12Y 6357   4.121   5.267   9.329  0.2369 -0.0537  0.7170
   72SLPC  C313 6358   4.226   5.113   9.199 -0.6289 -0.1859  0.4601
   72SLPC  H13X 6359   4.263   5.010   9.218  0.1823  0.4771  2.6690
   72SLPC  H13Y 6360   4.312   5.183   9.195 -1.8587  1.2737 -0.8048
   72SLPC  C314 6361   4.151   5.125   9.062 -0.1388  0.5457  0.5036
   72SLPC  H14X 6362   4.170   5.229   9.027  2.0011  0.6865  2.0270
   72SLPC  H14Y 6363   4.041   5.115   9.077 -0.3826  1.1116 -0.8553
   72SLPC  C315 6364   4.183   5.021   8.961 -0.0687  0.4249  0.0260
   72SLPC  H15X 6365   4.136   4.925   8.992 -0.4911  0.0779 -1.6443
   72SLPC  H15Y 6366   4.290   5.000   8.941 -0.1393  0.4990 -0.4462
   72SLPC  C316 6367   4.130   5.050   8.820 -0.7840 -0.1032 -0.1778
   72SLPC  H16X 6368   4.176   4.982   8.746  0.7254 -2.1903  2.6288
   72SLPC  H16Y 6369   4.177   5.147   8.792 -0.9350 -0.4278 -1.5802
   72SLPC  C317 6370   3.980   5.055   8.805  0.4240 -1.0071 -0.3666
   72SLPC  H17X 6371   3.934   5.128   8.875  0.4894 -1.1345 -0.1898
   72SLPC  H17Y 6372   3.935   4.955   8.820 -0.7515 -0.7010 -1.7458
   72SLPC  C318 6373   3.932   5.111   8.669  0.6587  0.2902 -0.6092
   72SLPC  H18X 6374   3.970   5.212   8.643 -0.4533  0.5049 -1.4331
   72SLPC  H18Y 6375   3.821   5.103   8.669  0.7796 -1.9198  1.3351
   72SLPC  H18Z 6376   3.967   5.051   8.582  1.1605 -0.7113  0.2759
   73SLPC     N 6377   4.432   4.300  11.237 -0.1064  0.4752 -0.2068
   73SLPC   C13 6378   4.365   4.435  11.222 -0.2555 -0.2045 -0.7314
   73SLPC  H13A 6379   4.342   4.458  11.119  0.6849  1.0100 -0.6841
   73SLPC  H13B 6380   4.277   4.445  11.284  0.7160  0.3315  0.6058
   73SLPC  H13C 6381   4.423   4.517  11.264 -1.5971  0.4135 -0.0526
   73SLPC   C14 6382   4.429   4.258  11.383  0.4170 -0.1270  0.3080
   73SLPC  H14A 6383   4.490   4.323  11.444 -0.1478 -0.3021  1.0850
   73SLPC  H14B 6384   4.326   4.261  11.416  0.0103 -1.5532 -0.7838
   73SLPC  H14C 6385   4.457   4.155  11.396 -0.9291 -0.8249 -2.0529
   73SLPC   C15 6386   4.580   4.294  11.202 -0.5318 -0.3720  0.1526
   73SLPC  H15A 6387   4.598   4.196  11.159  0.6994 -0.0233 -0.1365
   73SLPC  H15B 6388   4.593   4.367  11.124  0.2187 -2.6068 -1.8899
   73SLPC  H15C 6389   4.647   4.323  11.282 -1.1587  0.5065  0.3575
   73SLPC   C12 6390   4.347   4.201  11.167 -0.1971 -0.3965 -0.3367
   73SLPC  H12A 6391   4.313   4.241  11.073  0.8359  0.5510 -0.3083
   73SLPC  H12B 6392   4.255   4.192  11.224  0.9017 -0.7274  1.4319
   73SLPC   C11 6393   4.400   4.056  11.157 -0.2516 -0.0980 -0.2020
   73SLPC  H11A 6394   4.313   3.992  11.134  1.7397 -2.3836 -1.6273
   73SLPC  H11B 6395   4.434   4.023  11.257  0.0267  2.1350  0.4719
   73SLPC     P 6396   4.467   4.071  10.906 -0.2578 -0.4352  0.2525
   73SLPC   O13 6397   4.390   4.196  10.897 -0.1328 -0.1215  0.0750
   73SLPC   O14 6398   4.590   4.064  10.817 -0.8272 -0.1493 -0.2715
   73SLPC   O12 6399   4.509   4.050  11.064  0.4293 -0.3818 -0.2007
   73SLPC   O11 6400   4.373   3.948  10.878 -0.6988 -0.1171 -0.2929
   73SLPC    C1 6401   4.433   3.825  10.832 -0.0395 -1.1182 -0.1917
   73SLPC    HA 6402   4.518   3.797  10.897  0.3240  1.5922  0.5864
   73SLPC    HB 6403   4.360   3.742  10.843 -0.4087 -1.2474 -3.1085
   73SLPC    C2 6404   4.464   3.830  10.680  0.1477 -0.2249 -0.7199
   73SLPC    HS 6405   4.557   3.886  10.654 -0.1508 -0.2185 -1.7844
   73SLPC   O21 6406   4.346   3.874  10.615 -0.1447 -0.4395  0.5110
   73SLPC   C21 6407   4.356   3.988  10.555  0.0887  0.5542 -0.3948
   73SLPC   O22 6408   4.463   4.047  10.532 -0.1259 -0.2216 -0.1099
   73SLPC   C22 6409   4.217   4.051  10.557  0.2051 -0.0223  0.9556
   73SLPC   H2R 6410   4.140   3.976  10.529  1.1283  0.0010 -1.8703
   73SLPC   H2S 6411   4.198   4.077  10.663  1.1227 -0.1920  1.1663
   73SLPC    C3 6412   4.501   3.694  10.624 -0.0038  0.4299  0.3037
   73SLPC    HX 6413   4.409   3.634  10.641  0.7646 -0.7456  0.3898
   73SLPC    HY 6414   4.580   3.643  10.683 -1.7021  3.1218  5.2242
   73SLPC   O31 6415   4.549   3.699  10.485  0.1639 -0.2564 -0.1227
   73SLPC   C31 6416   4.481   3.639  10.390  0.1531  0.1245 -0.1805
   73SLPC   O32 6417   4.373   3.581  10.405 -0.0113 -0.6927 -0.2683
   73SLPC   C32 6418   4.559   3.654  10.264 -0.3588 -0.2818 -0.3069
   73SLPC   H2X 6419   4.649   3.589  10.263  1.1023  1.7002 -1.0341
   73SLPC   H2Y 6420   4.594   3.759  10.262 -0.7363 -0.1745 -1.2162
   73SLPC   C23 6421   4.207   4.186  10.474 -0.5676  0.2625  0.5811
   73SLPC   H3R 6422   4.292   4.255  10.495 -0.7803  0.7953 -0.2877
   73SLPC   H3S 6423   4.112   4.230  10.511 -1.0712 -0.2925 -0.0492
   73SLPC   C24 6424   4.182   4.162  10.323  0.7463  0.5253  0.7682
   73SLPC   H4R 6425   4.155   4.262  10.283 -0.5401  0.0451  0.4200
   73SLPC   H4S 6426   4.097   4.091  10.316 -0.5785  2.0960  0.6935
   73SLPC   C25 6427   4.303   4.109  10.245  0.1581 -0.2489 -0.6856
   73SLPC   H5R 6428   4.329   4.011  10.291  0.4683 -0.8827 -2.1972
   73SLPC   H5S 6429   4.386   4.182  10.256 -2.5782  2.5358  2.4617
   73SLPC   C26 6430   4.279   4.092  10.098  0.3797 -0.8841 -0.7336
   73SLPC   H6R 6431   4.251   4.188  10.050  1.7904 -0.7800 -1.3503
   73SLPC   H6S 6432   4.199   4.015  10.091  0.6112 -1.5711  3.0552
   73SLPC   C27 6433   4.402   4.043  10.021  0.0509 -0.7438  0.3391
   73SLPC   H7R 6434   4.443   3.944  10.049 -0.5420 -1.4202 -1.1239
   73SLPC   H7S 6435   4.485   4.112  10.049 -0.0826 -0.4762  0.0878
   73SLPC   C28 6436   4.384   4.058   9.866 -0.3057  0.2197  0.1806
   73SLPC   H8R 6437   4.482   4.069   9.814  0.4922  0.3723  1.6673
   73SLPC   H8S 6438   4.338   4.158   9.851  0.7363  0.4553 -1.5452
   73SLPC   C29 6439   4.301   3.953   9.805  0.1093  0.4911  0.2272
   73SLPC   H9R 6440   4.214   3.925   9.867 -2.1416  2.3523 -1.9866
   73SLPC  C210 6441   4.324   3.888   9.689  0.4364  0.1168 -0.1416
   73SLPC  H10R 6442   4.246   3.818   9.657  0.4663  1.3486 -3.0716
   73SLPC  C211 6443   4.442   3.917   9.596 -0.2530  0.5159  0.0149
   73SLPC  H11R 6444   4.537   3.884   9.643 -0.5078 -1.4563 -0.8021
   73SLPC  H11S 6445   4.445   4.028   9.605  1.8673  0.4050  0.8879
   73SLPC  C212 6446   4.436   3.849   9.460  0.2534  0.1244 -0.1593
   73SLPC  H12R 6447   4.490   3.753   9.462  1.1915  0.6459  0.0482
   73SLPC  C213 6448   4.390   3.904   9.346 -0.4637  0.9505  0.1618
   73SLPC  H13R 6449   4.383   3.838   9.258  1.4183 -0.5750  1.1269
   73SLPC  C214 6450   4.325   4.044   9.327 -0.3974  0.6617  0.1142
   73SLPC  H14R 6451   4.397   4.124   9.302  0.9416  0.0586  1.8695
   73SLPC  H14S 6452   4.274   4.070   9.423 -0.2832 -2.6638  1.1365
   73SLPC  C215 6453   4.212   4.048   9.228 -0.0850  0.1738 -0.2720
   73SLPC  H15R 6454   4.160   4.144   9.247  1.8570  0.7253  2.5550
   73SLPC  H15S 6455   4.135   3.971   9.251  0.5433 -0.3974 -0.0341
   73SLPC  C216 6456   4.252   4.022   9.081 -0.1263 -0.1420 -0.2932
   73SLPC  H16R 6457   4.165   4.047   9.017  0.8912  2.8259 -0.5454
   73SLPC  H16S 6458   4.255   3.911   9.067  1.9427  0.0729 -1.7400
   73SLPC  C217 6459   4.374   4.097   9.033 -0.4246  0.1701 -0.7335
   73SLPC  H17R 6460   4.457   4.079   9.105 -0.7510  0.9278 -0.1633
   73SLPC  H17S 6461   4.346   4.204   9.036  0.0925  0.2620  2.3473
   73SLPC  C218 6462   4.427   4.054   8.898  0.0402  0.3620 -0.0843
   73SLPC  H18R 6463   4.488   4.132   8.848  0.3038  0.1340 -0.1209
   73SLPC  H18S 6464   4.344   4.027   8.829 -0.1137 -2.1982  1.0192
   73SLPC  H18T 6465   4.491   3.964   8.911 -0.3823 -0.2488 -2.1131
   73SLPC   C33 6466   4.480   3.617  10.135  0.5770 -0.1551 -0.4363
   73SLPC   H3X 6467   4.389   3.678  10.153 -0.7602 -0.8319 -4.3879
   73SLPC   H3Y 6468   4.447   3.511  10.137 -0.9042  0.2922 -0.4084
   73SLPC   C34 6469   4.545   3.653  10.002  0.1505 -0.4179 -0.3746
   73SLPC   H4X 6470   4.553   3.762   9.982 -1.4465 -0.1059  0.5704
   73SLPC   H4Y 6471   4.477   3.615   9.923 -0.7681  0.5867 -0.0804
   73SLPC   C35 6472   4.683   3.585   9.982  0.3229  0.6358  0.4062
   73SLPC   H5X 6473   4.674   3.475   9.998  1.4879  0.4766  0.0098
   73SLPC   H5Y 6474   4.758   3.611  10.059  0.9504  1.7345 -0.5646
   73SLPC   C36 6475   4.755   3.609   9.848 -0.2061  0.2790  0.5795
   73SLPC   H6X 6476   4.747   3.714   9.813 -3.4648 -0.5397 -1.3520
   73SLPC   H6Y 6477   4.686   3.559   9.776 -0.5522  0.2964  0.8982
   73SLPC   C37 6478   4.887   3.536   9.854  0.6809  0.1332  0.3190
   73SLPC   H7X 6479   4.867   3.434   9.892  3.0980 -0.7395 -0.6030
   73SLPC   H7Y 6480   4.961   3.583   9.923  0.4840 -1.0058  1.3100
   73SLPC   C38 6481   4.959   3.537   9.719 -0.5386 -0.4032 -0.1102
   73SLPC   H8X 6482   5.063   3.513   9.750 -0.6346 -1.0858 -0.2979
   73SLPC   H8Y 6483   4.964   3.645   9.697  0.0640 -0.5798 -0.8490
   73SLPC   C39 6484   4.908   3.447   9.608  0.1113 -0.0565  0.0699
   73SLPC   H9X 6485   4.800   3.431   9.622 -0.3596  0.7253 -2.3332
   73SLPC   H9Y 6486   4.962   3.352   9.627  1.3576  1.1009  2.5466
   73SLPC  C310 6487   4.923   3.496   9.472 -0.4553 -0.3948  0.3977
   73SLPC  H10X 6488   4.958   3.601   9.467  1.7397 -1.0915  0.2695
   73SLPC  H10Y 6489   4.827   3.497   9.418 -0.1314  0.9486 -0.1653
   73SLPC  C311 6490   5.003   3.402   9.375  0.1472  0.1705 -0.0214
   73SLPC  H11X 6491   4.956   3.301   9.369  2.6062 -1.1055  1.2197
   73SLPC  H11Y 6492   5.112   3.393   9.393 -0.1402 -0.9098  1.2488
   73SLPC  C312 6493   4.989   3.448   9.233  0.5480 -0.0255 -0.2212
   73SLPC  H12X 6494   5.022   3.553   9.217  0.0391  0.4876  1.9372
   73SLPC  H12Y 6495   4.880   3.459   9.213  0.4303  0.5819  0.7396
   73SLPC  C313 6496   5.058   3.361   9.121  0.2099  0.6160  0.0386
   73SLPC  H13X 6497   5.148   3.318   9.169 -0.7256 -0.9554  0.4179
   73SLPC  H13Y 6498   5.089   3.429   9.039 -0.8725  0.7323 -0.2822
   73SLPC  C314 6499   4.965   3.252   9.070 -0.2138 -0.2974 -0.1197
   73SLPC  H14X 6500   4.870   3.303   9.044 -1.4906 -2.0636  0.9908
   73SLPC  H14Y 6501   4.950   3.173   9.147 -2.7477 -0.3439 -0.6167
   73SLPC  C315 6502   5.017   3.188   8.945  0.6439  0.1589  0.1855
   73SLPC  H15X 6503   5.034   3.263   8.864  0.2280 -0.5590 -0.5756
   73SLPC  H15Y 6504   4.941   3.114   8.914  1.7480 -0.9842  0.1600
   73SLPC  C316 6505   5.148   3.113   8.953  0.0251 -0.3522  0.7816
   73SLPC  H16X 6506   5.154   3.044   9.040  1.4691 -2.6057 -1.0585
   73SLPC  H16Y 6507   5.232   3.185   8.959 -0.2100 -0.1394  1.5178
   73SLPC  C317 6508   5.179   3.031   8.829 -0.8585 -0.5604 -0.0369
   73SLPC  H17X 6509   5.285   2.999   8.838 -1.1996 -1.1068  2.2595
   73SLPC  H17Y 6510   5.169   3.089   8.735 -0.4279  0.2180  0.3887
   73SLPC  C318 6511   5.092   2.907   8.833 -0.7038 -0.3662 -0.8567
   73SLPC  H18X 6512   4.988   2.939   8.811 -0.4460  0.2455 -1.2110
   73SLPC  H18Y 6513   5.093   2.850   8.928 -0.4474  1.2629  0.1452
   73SLPC  H18Z 6514   5.116   2.839   8.749 -0.3456 -2.5193  0.9314
   74SLPC     N 6515   5.513   5.148  10.454 -0.4654 -0.2143  0.5516
   74SLPC   C13 6516   5.454   5.099  10.330  0.3501 -0.0281 -0.7256
   74SLPC  H13A 6517   5.503   5.140  10.243  1.1894  0.4634 -0.0260
   74SLPC  H13B 6518   5.462   4.991  10.329  5.8264  0.2680 -0.4424
   74SLPC  H13C 6519   5.347   5.116  10.337  0.6252  1.6828 -0.2902
   74SLPC   C14 6520   5.665   5.155  10.444  0.4001  0.6458  0.1197
   74SLPC  H14A 6521   5.697   5.213  10.358 -1.0343  1.2895 -0.0047
   74SLPC  H14B 6522   5.709   5.197  10.533  1.6820 -2.1901  0.8733
   74SLPC  H14C 6523   5.710   5.058  10.429  0.4509  0.6665  0.1401
   74SLPC   C15 6524   5.491   5.051  10.570 -0.0156  0.2994 -0.6526
   74SLPC  H15A 6525   5.535   4.953  10.560 -0.0452  0.1245  0.8435
   74SLPC  H15B 6526   5.532   5.094  10.660 -1.1075 -0.1585  0.0787
   74SLPC  H15C 6527   5.383   5.041  10.567 -0.1146  0.8929  0.6008
   74SLPC   C12 6528   5.459   5.290  10.489  0.4371 -0.0828  0.1809
   74SLPC  H12A 6529   5.484   5.363  10.414 -2.3883  0.1083 -0.6339
   74SLPC  H12B 6530   5.489   5.316  10.589 -1.7119 -0.7401  1.0346
   74SLPC   C11 6531   5.304   5.305  10.509 -0.5042  0.5583 -0.1424
   74SLPC  H11A 6532   5.288   5.402  10.560 -0.1787  0.5009  0.0667
   74SLPC  H11B 6533   5.278   5.227  10.584 -0.4738 -1.1688 -1.8971
   74SLPC     P 6534   5.216   5.411  10.284 -0.1607  0.1724 -0.2350
   74SLPC   O13 6535   5.187   5.333  10.164  0.1723 -0.5761  0.5402
   74SLPC   O14 6536   5.117   5.511  10.329 -0.6099  0.2860  0.1178
   74SLPC   O12 6537   5.233   5.296  10.391  0.2108  0.0574  0.4874
   74SLPC   O11 6538   5.370   5.470  10.279 -0.2036 -0.1815 -0.1502
   74SLPC    C1 6539   5.385   5.618  10.281 -0.6374 -0.4841 -0.6507
   74SLPC    HA 6540   5.353   5.658  10.379  3.5041 -1.7356  1.3716
   74SLPC    HB 6541   5.493   5.642  10.296 -0.8439  0.2493 -0.3370
   74SLPC    C2 6542   5.338   5.687  10.155  0.0582 -0.4026 -0.4899
   74SLPC    HS 6543   5.227   5.686  10.160  0.0576 -0.3493 -0.5038
   74SLPC   O21 6544   5.386   5.607  10.050  0.9333  0.9078 -0.3810
   74SLPC   C21 6545   5.310   5.594   9.938 -0.7330 -0.3255 -0.0956
   74SLPC   O22 6546   5.216   5.660   9.918  0.4597  0.0319 -0.0267
   74SLPC   C22 6547   5.377   5.488   9.848 -0.6794  0.4368  0.0849
   74SLPC   H2R 6548   5.488   5.492   9.840 -0.8958  1.3730 -2.6928
   74SLPC   H2S 6549   5.344   5.398   9.904 -2.7205 -0.0060 -1.7763
   74SLPC    C3 6550   5.395   5.837  10.145 -0.1630  0.0031  0.7577
   74SLPC    HX 6551   5.506   5.837  10.134 -0.2259  0.2304  0.0741
   74SLPC    HY 6552   5.374   5.880  10.245  1.4275  0.4750  0.9064
   74SLPC   O31 6553   5.335   5.907  10.033 -0.1510  0.1703  0.1338
   74SLPC   C31 6554   5.206   5.946  10.033  0.3474  0.2905 -0.1761
   74SLPC   O32 6555   5.128   5.921  10.128  0.0836 -0.4448 -0.0479
   74SLPC   C32 6556   5.161   6.043   9.918  0.2549 -0.0277 -0.4432
   74SLPC   H2X 6557   5.238   6.124   9.918  1.1038 -0.8080 -1.8660
   74SLPC   H2Y 6558   5.065   6.094   9.937  1.3607  1.6167  0.8867
   74SLPC   C23 6559   5.314   5.468   9.706 -0.0793 -1.1232 -0.5259
   74SLPC   H3R 6560   5.204   5.486   9.714 -0.0721 -0.6673 -1.4301
   74SLPC   H3S 6561   5.309   5.362   9.676  1.2743 -2.2080  2.8945
   74SLPC   C24 6562   5.371   5.546   9.587 -0.2076  0.9513  0.4131
   74SLPC   H4R 6563   5.315   5.524   9.494  0.0538  1.1406  0.2099
   74SLPC   H4S 6564   5.476   5.520   9.565 -0.9908 -0.6857 -1.4520
   74SLPC   C25 6565   5.354   5.697   9.617 -0.0939  0.5617 -0.3922
   74SLPC   H5R 6566   5.415   5.728   9.705  2.6318 -1.8038 -1.3771
   74SLPC   H5S 6567   5.244   5.703   9.637 -0.0154 -0.0805  0.2520
   74SLPC   C26 6568   5.391   5.799   9.508 -0.7536  0.0917 -0.5714
   74SLPC   H6R 6569   5.498   5.790   9.478 -0.4666  0.9088  0.1801
   74SLPC   H6S 6570   5.392   5.900   9.555  0.4532  0.2303 -0.8726
   74SLPC   C27 6571   5.306   5.780   9.383  0.9436  0.5769 -0.3458
   74SLPC   H7R 6572   5.203   5.770   9.422  1.5987 -2.0356  0.8000
   74SLPC   H7S 6573   5.327   5.683   9.335 -0.8803  0.5457 -1.1314
   74SLPC   C28 6574   5.321   5.897   9.277 -0.8370  0.9470  0.5347
   74SLPC   H8R 6575   5.431   5.906   9.261 -0.7081  1.8199  1.9017
   74SLPC   H8S 6576   5.293   5.993   9.325  0.7750  0.2330  2.9548
   74SLPC   C29 6577   5.254   5.869   9.148 -0.0850 -0.8253  0.7041
   74SLPC   H9R 6578   5.226   5.765   9.127  0.1475 -0.6071 -0.7215
   74SLPC  C210 6579   5.224   5.964   9.048 -0.0882  1.0519  0.2847
   74SLPC  H10R 6580   5.176   5.933   8.954 -1.2417 -1.9341  1.7503
   74SLPC  C211 6581   5.254   6.104   9.065  0.1837 -0.3504  0.2344
   74SLPC  H11R 6582   5.278   6.141   9.167 -1.0218  0.4545  0.2296
   74SLPC  H11S 6583   5.165   6.156   9.023 -0.7419 -1.7034  0.4849
   74SLPC  C212 6584   5.360   6.148   8.964  0.6387  0.3201  0.0071
   74SLPC  H12R 6585   5.430   6.069   8.932 -0.9819  0.5343 -4.5164
   74SLPC  C213 6586   5.369   6.272   8.906 -0.7044 -0.0076  0.1146
   74SLPC  H13R 6587   5.468   6.285   8.860 -1.9407  1.9101 -2.1368
   74SLPC  C214 6588   5.275   6.390   8.913 -0.4613 -0.4058  0.5889
   74SLPC  H14R 6589   5.329   6.486   8.903  0.7117 -0.9048  2.0304
   74SLPC  H14S 6590   5.214   6.395   9.005  0.9840 -0.1280  1.5405
   74SLPC  C215 6591   5.181   6.383   8.787  0.3809 -0.3222  0.3324
   74SLPC  H15R 6592   5.107   6.299   8.792 -0.9748  0.8037 -0.4345
   74SLPC  H15S 6593   5.244   6.364   8.697  1.1175  0.5008  0.6670
   74SLPC  C216 6594   5.104   6.510   8.757 -0.4315  0.1615  0.5333
   74SLPC  H16R 6595   5.164   6.601   8.736 -0.6835  0.4462  1.0491
   74SLPC  H16S 6596   5.036   6.537   8.841 -1.2060  1.1382 -0.3969
   74SLPC  C217 6597   5.024   6.494   8.619  0.0840 -0.6898  0.3468
   74SLPC  H17R 6598   4.945   6.418   8.637 -1.4733  0.5370 -1.0792
   74SLPC  H17S 6599   5.087   6.441   8.544 -0.8855 -0.6992 -0.4754
   74SLPC  C218 6600   4.947   6.605   8.563 -0.1808  0.8232  0.3954
   74SLPC  H18R 6601   5.016   6.671   8.506  0.7843 -0.1697  0.3996
   74SLPC  H18S 6602   4.882   6.657   8.636 -1.2570  1.2644 -0.8618
   74SLPC  H18T 6603   4.868   6.572   8.492 -4.0804  1.1935  4.2951
   74SLPC   C33 6604   5.170   5.967   9.781  0.8298 -0.5822  0.1720
   74SLPC   H3X 6605   5.123   5.867   9.771  0.1317 -0.4534  1.9850
   74SLPC   H3Y 6606   5.279   5.973   9.762  0.3272  0.9172 -2.5098
   74SLPC   C34 6607   5.117   6.047   9.665 -0.5245 -0.2017  0.3551
   74SLPC   H4X 6608   5.159   6.005   9.571 -0.4558 -0.0431  0.3139
   74SLPC   H4Y 6609   5.161   6.150   9.669 -1.1188  0.0287  1.0495
   74SLPC   C35 6610   4.968   6.073   9.635 -0.4189  0.0482 -0.2517
   74SLPC   H5X 6611   4.943   6.152   9.709 -1.0193  0.9378 -1.4013
   74SLPC   H5Y 6612   4.901   5.984   9.647 -0.0321  0.2627  4.9748
   74SLPC   C36 6613   4.944   6.142   9.499  0.6765 -0.6199  0.3755
   74SLPC   H6X 6614   4.956   6.052   9.435 -3.4108 -0.5655 -0.5839
   74SLPC   H6Y 6615   5.023   6.218   9.479 -1.4592  2.4209  2.8791
   74SLPC   C37 6616   4.805   6.206   9.497 -0.4471 -0.0996  0.2028
   74SLPC   H7X 6617   4.802   6.264   9.592 -2.1857  2.6201 -1.4494
   74SLPC   H7Y 6618   4.731   6.125   9.514 -0.0514 -0.3208  0.9259
   74SLPC   C38 6619   4.774   6.296   9.384 -0.0522  0.4396 -0.7868
   74SLPC   H8X 6620   4.835   6.389   9.377 -2.5625  2.1302 -0.7249
   74SLPC   H8Y 6621   4.668   6.322   9.402  0.0150 -0.4670  1.0778
   74SLPC   C39 6622   4.782   6.232   9.243 -0.3852  0.4199 -0.2892
   74SLPC   H9X 6623   4.710   6.150   9.221 -0.2694  0.8185 -2.2688
   74SLPC   H9Y 6624   4.881   6.184   9.228 -0.9907 -0.7082 -0.6992
   74SLPC  C310 6625   4.768   6.333   9.132  0.3740 -0.3025 -0.2089
   74SLPC  H10X 6626   4.842   6.414   9.150  1.6048 -1.5268  0.4016
   74SLPC  H10Y 6627   4.673   6.390   9.140  0.1412 -0.8696  1.2386
   74SLPC  C311 6628   4.783   6.280   8.991  1.1263 -0.2806 -1.1213
   74SLPC  H11X 6629   4.725   6.185   8.993  1.6084 -0.5486  1.7932
   74SLPC  H11Y 6630   4.891   6.263   8.973  1.2018  1.3508 -2.3485
   74SLPC  C312 6631   4.746   6.379   8.869  0.0621 -0.4488 -0.2160
   74SLPC  H12X 6632   4.772   6.328   8.773 -0.0274 -0.5763 -0.1721
   74SLPC  H12Y 6633   4.814   6.466   8.883 -0.3991  0.0581 -1.0570
   74SLPC  C313 6634   4.595   6.415   8.845 -0.7955 -0.0824  0.0393
   74SLPC  H13X 6635   4.588   6.490   8.762 -0.3242 -0.9077 -0.7553
   74SLPC  H13Y 6636   4.542   6.450   8.935 -0.3812 -0.2379  0.3434
   74SLPC  C314 6637   4.515   6.300   8.791  1.2872  0.0846 -0.2596
   74SLPC  H14X 6638   4.409   6.325   8.812  0.8649 -0.9603 -1.1344
   74SLPC  H14Y 6639   4.522   6.206   8.850 -0.0204  1.0333  1.4625
   74SLPC  C315 6640   4.521   6.280   8.642  0.6924 -0.2017  0.3599
   74SLPC  H15X 6641   4.626   6.247   8.631  1.4297  1.5534  1.8059
   74SLPC  H15Y 6642   4.495   6.368   8.580  1.7041 -0.1190  0.0540
   74SLPC  C316 6643   4.438   6.158   8.590 -0.0477 -0.2055 -0.7164
   74SLPC  H16X 6644   4.328   6.166   8.608 -0.1378 -1.9553 -0.3665
   74SLPC  H16Y 6645   4.468   6.071   8.653 -0.7757  0.2657  0.3054
   74SLPC  C317 6646   4.465   6.143   8.435  0.1719  0.3665 -0.0803
   74SLPC  H17X 6647   4.570   6.119   8.408  0.4514  1.4119  0.0434
   74SLPC  H17Y 6648   4.424   6.222   8.369 -0.3852  1.9719  2.1255
   74SLPC  C318 6649   4.398   6.004   8.389  0.6246  0.1744  0.7381
   74SLPC  H18X 6650   4.406   5.995   8.278 -3.8331  1.7576  0.1863
   74SLPC  H18Y 6651   4.295   5.989   8.426  0.0872 -0.4805 -0.9773
   74SLPC  H18Z 6652   4.468   5.925   8.427 -1.7698 -2.4489 -0.1189
   75SLPC     N 6653   2.666   1.400   6.269  0.6390  0.2407  0.2635
   75SLPC   C13 6654   2.761   1.394   6.153  0.2625 -0.1571 -0.1379
   75SLPC  H13A 6655   2.835   1.317   6.167 -0.5638 -0.8398  0.5431
   75SLPC  H13B 6656   2.703   1.370   6.065 -0.0966  0.5397 -0.0957
   75SLPC  H13C 6657   2.817   1.485   6.137 -0.0259  0.2206  0.9401
   75SLPC   C14 6658   2.575   1.289   6.267 -0.2167  0.3633  0.3742
   75SLPC  H14A 6659   2.621   1.194   6.291  0.3201  0.0668 -1.7683
   75SLPC  H14B 6660   2.496   1.308   6.338  1.1018  1.0032  1.6957
   75SLPC  H14C 6661   2.524   1.277   6.173  1.0260 -0.8365 -0.1612
   75SLPC   C15 6662   2.581   1.522   6.254 -0.1114  0.2277  0.3913
   75SLPC  H15A 6663   2.540   1.540   6.156 -2.1729 -0.8963  1.0241
   75SLPC  H15B 6664   2.503   1.522   6.328 -0.0237  0.3695  0.4844
   75SLPC  H15C 6665   2.641   1.607   6.285 -1.4825  0.8593  1.3801
   75SLPC   C12 6666   2.752   1.401   6.391 -0.1518 -0.3956  0.1581
   75SLPC  H12A 6667   2.828   1.476   6.370 -1.6443  0.7858 -1.2218
   75SLPC  H12B 6668   2.799   1.304   6.387 -2.8633 -1.7357  0.1041
   75SLPC   C11 6669   2.694   1.423   6.530 -0.2859 -0.1814 -0.4833
   75SLPC  H11A 6670   2.773   1.400   6.604 -1.1677  1.4015  1.0031
   75SLPC  H11B 6671   2.615   1.349   6.553 -0.8023  0.8138  1.0135
   75SLPC     P 6672   2.748   1.672   6.579  0.2734 -0.2586  0.1373
   75SLPC   O13 6673   2.856   1.679   6.478 -0.0928 -0.3830  0.4865
   75SLPC   O14 6674   2.667   1.797   6.602 -0.2197  0.1334  0.1357
   75SLPC   O12 6675   2.655   1.557   6.531 -0.2401 -0.4987 -0.0077
   75SLPC   O11 6676   2.802   1.624   6.714 -0.3009 -0.7578 -0.0290
   75SLPC    C1 6677   2.698   1.598   6.813  0.3367  0.0213 -0.7384
   75SLPC    HA 6678   2.635   1.687   6.832  0.7516 -0.4934  3.4197
   75SLPC    HB 6679   2.635   1.508   6.796 -0.2925  0.4708 -0.7816
   75SLPC    C2 6680   2.770   1.582   6.948  0.3231 -0.1361 -0.5263
   75SLPC    HS 6681   2.689   1.570   7.024  1.6782  2.4936  1.3656
   75SLPC   O21 6682   2.854   1.697   6.971  0.3909 -0.1974 -0.5019
   75SLPC   C21 6683   2.877   1.726   7.090 -0.1260 -0.3947 -0.5569
   75SLPC   O22 6684   2.812   1.693   7.187 -0.4752  0.4567  0.1748
   75SLPC   C22 6685   2.998   1.816   7.104 -0.2213 -0.0820 -0.0596
   75SLPC   H2R 6686   3.075   1.792   7.027  1.2752 -0.2368  1.4705
   75SLPC   H2S 6687   2.964   1.918   7.075  3.2345  0.6682 -1.8814
   75SLPC    C3 6688   2.847   1.445   6.947  0.3919  0.0341  0.7864
   75SLPC    HX 6689   2.907   1.438   6.853 -1.7062  1.0143 -0.6407
   75SLPC    HY 6690   2.776   1.361   6.931 -1.0120  1.3646 -0.1344
   75SLPC   O31 6691   2.921   1.431   7.068 -0.2022 -0.4349  0.4362
   75SLPC   C31 6692   2.849   1.379   7.169  0.0798  0.1559  0.3486
   75SLPC   O32 6693   2.726   1.359   7.164 -0.1327 -0.0361  0.6367
   75SLPC   C32 6694   2.941   1.346   7.287 -0.0328  0.7054 -0.2434
   75SLPC   H2X 6695   3.046   1.333   7.252 -0.2759 -0.2565 -0.6409
   75SLPC   H2Y 6696   2.906   1.243   7.310 -2.0836  1.4080 -0.0968
   75SLPC   C23 6697   3.067   1.817   7.242  0.2342 -0.6133 -0.1708
   75SLPC   H3R 6698   3.114   1.717   7.254  1.2380 -0.3587 -1.9001
   75SLPC   H3S 6699   2.996   1.824   7.327  2.1171 -0.1834  1.3984
   75SLPC   C24 6700   3.181   1.918   7.246 -0.6367  0.2089 -0.9038
   75SLPC   H4R 6701   3.148   2.020   7.216 -0.2527 -0.0023 -2.0597
   75SLPC   H4S 6702   3.240   1.892   7.155  0.4093  0.0164 -0.1697
   75SLPC   C25 6703   3.252   1.930   7.380  0.1182 -0.4640 -0.2117
   75SLPC   H5R 6704   3.330   2.009   7.368 -1.0951  0.4975 -2.0245
   75SLPC   H5S 6705   3.313   1.837   7.390 -2.2592 -1.9292  0.9379
   75SLPC   C26 6706   3.151   1.951   7.498  0.0042 -0.6438  0.2341
   75SLPC   H6R 6707   3.082   1.865   7.498 -1.2028  0.2761  2.5243
   75SLPC   H6S 6708   3.093   2.045   7.487  0.7349 -0.0429  1.4038
   75SLPC   C27 6709   3.222   1.961   7.636 -0.0855 -0.3046  0.4569
   75SLPC   H7R 6710   3.310   2.029   7.632 -0.7371  0.5081 -0.6434
   75SLPC   H7S 6711   3.272   1.865   7.658  0.1266  0.0329  1.4480
   75SLPC   C28 6712   3.130   2.011   7.746 -1.1671 -0.9722 -0.2311
   75SLPC   H8R 6713   3.081   2.107   7.721 -1.2339 -0.4204  1.8569
   75SLPC   H8S 6714   3.187   2.036   7.839 -2.0316 -2.1123  0.6199
   75SLPC   C29 6715   3.031   1.912   7.777 -0.1121  0.5665 -0.3109
   75SLPC   H9R 6716   2.940   1.909   7.716 -1.3528 -0.1346  1.5323
   75SLPC  C210 6717   3.057   1.816   7.863  0.0246  0.1046 -0.2821
   75SLPC  H10R 6718   2.984   1.733   7.874  0.7387 -0.2823  1.8832
   75SLPC  C211 6719   3.178   1.786   7.949  0.5795 -0.5980 -0.0243
   75SLPC  H11R 6720   3.231   1.881   7.969 -0.6788  0.0148  0.4671
   75SLPC  H11S 6721   3.256   1.726   7.898  2.2656  0.6879  0.9885
   75SLPC  C212 6722   3.143   1.732   8.087 -0.8128  0.4614 -0.1435
   75SLPC  H12R 6723   3.038   1.745   8.115 -0.9430  0.4369 -0.6177
   75SLPC  C213 6724   3.219   1.655   8.171 -0.1811  0.1812  0.2580
   75SLPC  H13R 6725   3.173   1.629   8.268 -0.9316 -1.3100 -0.4776
   75SLPC  C214 6726   3.366   1.617   8.158 -0.5948  0.4867 -0.1462
   75SLPC  H14R 6727   3.439   1.677   8.218  1.2876 -3.2134  1.4259
   75SLPC  H14S 6728   3.398   1.649   8.056  2.0948 -0.0723  0.4707
   75SLPC  C215 6729   3.417   1.473   8.188 -0.1010  0.1903  0.1453
   75SLPC  H15R 6730   3.525   1.455   8.168 -0.4566 -1.7071 -0.1055
   75SLPC  H15S 6731   3.376   1.401   8.114  1.7794 -1.6457  0.8528
   75SLPC  C216 6732   3.389   1.434   8.337  0.1582 -0.9590 -0.5391
   75SLPC  H16R 6733   3.280   1.453   8.341  0.3590  0.9899 -2.9011
   75SLPC  H16S 6734   3.452   1.503   8.399 -1.7738 -1.5047  2.1142
   75SLPC  C217 6735   3.420   1.288   8.372 -0.6591 -0.7244 -0.1147
   75SLPC  H17R 6736   3.396   1.221   8.286  0.4363  0.9839 -1.7893
   75SLPC  H17S 6737   3.348   1.272   8.455 -0.8062  1.3067  0.1713
   75SLPC  C218 6738   3.557   1.268   8.424 -0.1760 -0.0179  0.0154
   75SLPC  H18R 6739   3.546   1.282   8.534 -0.1479 -3.9275  0.5872
   75SLPC  H18S 6740   3.630   1.334   8.372 -0.9054 -0.1234 -1.1428
   75SLPC  H18T 6741   3.593   1.163   8.415 -1.6278 -0.5136 -0.0604
   75SLPC   C33 6742   2.942   1.455   7.389 -0.6603 -0.2772  0.2702
   75SLPC   H3X 6743   3.041   1.448   7.440 -0.4728 -0.5578 -0.1202
   75SLPC   H3Y 6744   2.938   1.553   7.336 -0.5840 -0.9807 -1.0677
   75SLPC   C34 6745   2.828   1.444   7.481 -0.3051  0.0061 -0.3821
   75SLPC   H4X 6746   2.848   1.354   7.544 -0.9163  0.2535  0.1828
   75SLPC   H4Y 6747   2.732   1.427   7.428 -1.9637 -1.4122  2.8780
   75SLPC   C35 6748   2.805   1.564   7.574 -0.1159  1.2587  0.5254
   75SLPC   H5X 6749   2.797   1.645   7.498  0.2053 -0.2888 -1.2067
   75SLPC   H5Y 6750   2.892   1.572   7.642  0.7133  0.0124 -0.3705
   75SLPC   C36 6751   2.685   1.554   7.669  0.6374 -0.2207 -0.3720
   75SLPC   H6X 6752   2.702   1.461   7.727 -0.7118 -0.3920 -0.2240
   75SLPC   H6Y 6753   2.586   1.534   7.623  0.4071 -2.6412  1.0699
   75SLPC   C37 6754   2.687   1.670   7.767  0.6958 -0.1799 -0.4646
   75SLPC   H7X 6755   2.703   1.758   7.701 -1.7790  0.1413 -0.7097
   75SLPC   H7Y 6756   2.776   1.657   7.832 -0.3671  0.0349  1.0847
   75SLPC   C38 6757   2.561   1.662   7.851  0.4291 -0.5140 -0.0199
   75SLPC   H8X 6758   2.551   1.553   7.872 -0.2746 -0.2607  0.9738
   75SLPC   H8Y 6759   2.466   1.690   7.802 -0.3705 -1.9043  0.7193
   75SLPC   C39 6760   2.556   1.744   7.979 -0.3608  0.1961  0.4270
   75SLPC   H9X 6761   2.621   1.696   8.055  1.8569  2.0898 -0.2071
   75SLPC   H9Y 6762   2.455   1.744   8.025 -0.4646  1.1815  0.2182
   75SLPC  C310 6763   2.607   1.892   7.968  0.6117  0.2866 -0.4893
   75SLPC  H10X 6764   2.563   1.954   7.887 -3.8704  2.0247  3.0764
   75SLPC  H10Y 6765   2.716   1.880   7.951  0.7587  0.3891  0.3576
   75SLPC  C311 6766   2.577   1.968   8.099  1.4123 -0.3206  0.1912
   75SLPC  H11X 6767   2.608   1.905   8.184 -2.5357 -0.2562  1.7690
   75SLPC  H11Y 6768   2.469   1.995   8.101  1.7787  1.3261 -0.7109
   75SLPC  C312 6769   2.655   2.108   8.100  0.1971 -0.1506 -0.2788
   75SLPC  H12X 6770   2.610   2.162   8.186 -1.4408 -3.1278  0.8338
   75SLPC  H12Y 6771   2.637   2.169   8.009 -1.1178  1.1523  0.8427
   75SLPC  C313 6772   2.808   2.082   8.121 -0.5813 -0.6529  0.2186
   75SLPC  H13X 6773   2.855   2.011   8.050  0.2417 -1.6713  1.7654
   75SLPC  H13Y 6774   2.808   2.032   8.219  3.2078  0.4395  0.8330
   75SLPC  C314 6775   2.884   2.214   8.135 -0.4033  0.2042 -0.1949
   75SLPC  H14X 6776   2.864   2.253   8.237  0.7256 -1.3384  0.6387
   75SLPC  H14Y 6777   2.853   2.293   8.063 -0.5025 -1.3903 -1.9427
   75SLPC  C315 6778   3.038   2.191   8.123 -0.6926 -0.6410  0.0920
   75SLPC  H15X 6779   3.074   2.140   8.031  1.1704  1.9414 -0.7061
   75SLPC  H15Y 6780   3.070   2.123   8.205  0.2707  0.6529  0.8159
   75SLPC  C316 6781   3.106   2.327   8.143  0.0449 -0.2356  0.0471
   75SLPC  H16X 6782   3.064   2.350   8.243  2.0989 -2.4939  1.4852
   75SLPC  H16Y 6783   3.068   2.388   8.058  0.0232 -0.3044  0.0081
   75SLPC  C317 6784   3.254   2.329   8.149  0.5691  0.6775 -0.5821
   75SLPC  H17X 6785   3.279   2.257   8.230  0.3073  0.1887 -0.9373
   75SLPC  H17Y 6786   3.283   2.432   8.181  1.1669  0.2684  0.2067
   75SLPC  C318 6787   3.329   2.297   8.016  1.3362 -0.6071 -0.2354
   75SLPC  H18X 6788   3.436   2.323   8.032  1.0030  0.4541  0.2512
   75SLPC  H18Y 6789   3.280   2.355   7.936 -1.2405 -0.9784  1.0389
   75SLPC  H18Z 6790   3.332   2.193   7.977  0.5355  0.3668 -3.0083
   76SLPC     N 6791   5.025   0.688   6.390 -0.0935  0.0934 -0.0634
   76SLPC   C13 6792   4.906   0.721   6.300 -0.2549 -0.2412  0.2512
   76SLPC  H13A 6793   4.943   0.746   6.202 -0.5300 -1.6727 -0.2352
   76SLPC  H13B 6794   4.842   0.634   6.286 -0.2288 -0.2189 -0.0077
   76SLPC  H13C 6795   4.848   0.801   6.343  0.1008 -0.9295  2.0558
   76SLPC   C14 6796   4.970   0.651   6.523 -0.2841  0.7508  0.6296
   76SLPC  H14A 6797   4.873   0.696   6.534 -0.7964 -0.3722  0.7926
   76SLPC  H14B 6798   4.965   0.546   6.549  3.5539  0.4035  0.3274
   76SLPC  H14C 6799   5.028   0.691   6.605  0.6653  0.1181  0.2806
   76SLPC   C15 6800   5.098   0.819   6.404  0.0436  0.3479  0.6836
   76SLPC  H15A 6801   5.146   0.843   6.310  0.1867 -4.2246 -0.5483
   76SLPC  H15B 6802   5.036   0.891   6.455 -0.5628 -0.2060  0.7308
   76SLPC  H15C 6803   5.179   0.802   6.474  0.2837 -3.0941 -0.3464
   76SLPC   C12 6804   5.113   0.578   6.338 -0.0154  0.3886 -0.1130
   76SLPC  H12A 6805   5.204   0.572   6.394  0.4726 -0.0565 -0.9296
   76SLPC  H12B 6806   5.159   0.605   6.244 -1.8303 -1.9476 -1.7523
   76SLPC   C11 6807   5.050   0.435   6.327 -0.1307  0.8219  0.0354
   76SLPC  H11A 6808   5.006   0.403   6.425  1.6692 -1.5097  0.1121
   76SLPC  H11B 6809   5.126   0.360   6.301  0.5234  1.6284 -0.3873
   76SLPC     P 6810   4.843   0.322   6.229  0.1128 -0.0099 -0.4000
   76SLPC   O13 6811   4.732   0.369   6.317 -0.2109 -0.1206 -0.0693
   76SLPC   O14 6812   4.802   0.271   6.097 -0.3284  0.0779  0.1255
   76SLPC   O12 6813   4.953   0.433   6.223  0.7443 -0.1209 -0.1947
   76SLPC   O11 6814   4.908   0.201   6.308  0.6195  0.8268 -0.3173
   76SLPC    C1 6815   4.828   0.111   6.379  0.2185  0.4096  0.0742
   76SLPC    HA 6816   4.723   0.110   6.342  0.3621 -1.9256 -0.3342
   76SLPC    HB 6817   4.862   0.007   6.358 -2.1324 -0.8033  2.0098
   76SLPC    C2 6818   4.828   0.144   6.537  0.0128 -0.0147 -0.1110
   76SLPC    HS 6819   4.787   0.246   6.547  0.2896  0.0434  0.4837
   76SLPC   O21 6820   4.960   0.133   6.584  0.2243 -0.2227  1.4738
   76SLPC   C21 6821   5.004   0.233   6.659 -0.2148  0.0679  0.5258
   76SLPC   O22 6822   4.941   0.330   6.685 -0.2882  0.5005 -0.8685
   76SLPC   C22 6823   5.145   0.209   6.701  0.6453  0.1761 -0.0693
   76SLPC   H2R 6824   5.170   0.101   6.708  0.8352  0.3666  2.5586
   76SLPC   H2S 6825   5.212   0.251   6.623 -1.3024  1.2405 -1.1973
   76SLPC    C3 6826   4.736   0.054   6.621  0.3837  0.0763  0.7832
   76SLPC    HX 6827   4.742  -0.047   6.574 -0.5490  0.8960 -1.1715
   76SLPC    HY 6828   4.634   0.093   6.600 -0.0099 -1.7244 -0.9298
   76SLPC   O31 6829   4.768   0.048   6.762  0.1158 -0.1509  0.2728
   76SLPC   C31 6830   4.703   0.122   6.841 -0.2326 -1.2887 -0.5259
   76SLPC   O32 6831   4.639   0.224   6.816 -0.5491  0.3447  0.1259
   76SLPC   C32 6832   4.710   0.063   6.986 -0.1212 -0.0577 -0.3387
   76SLPC   H2X 6833   4.796   0.111   7.037 -0.0037  0.6812 -1.2326
   76SLPC   H2Y 6834   4.718  -0.048   6.989  0.1534  0.0011  1.6804
   76SLPC   C23 6835   5.188   0.274   6.834  0.4954 -0.8284  0.3474
   76SLPC   H3R 6836   5.182   0.385   6.823  0.2694 -0.6951  1.7405
   76SLPC   H3S 6837   5.297   0.258   6.845  0.8803  0.9001 -0.6610
   76SLPC   C24 6838   5.109   0.222   6.955 -0.7374  0.2511 -0.2815
   76SLPC   H4R 6839   5.128   0.113   6.968  1.2336  0.5752 -0.4040
   76SLPC   H4S 6840   5.002   0.235   6.927 -0.2057  1.8360 -1.6067
   76SLPC   C25 6841   5.151   0.297   7.082  0.5694  0.1346 -0.1769
   76SLPC   H5R 6842   5.121   0.403   7.064  0.0405  0.1136  0.5748
   76SLPC   H5S 6843   5.261   0.288   7.091  0.2788 -0.6420  2.9096
   76SLPC   C26 6844   5.074   0.245   7.201  0.2684  0.6454  0.2005
   76SLPC   H6R 6845   5.109   0.148   7.242 -1.0093  0.5050  0.9636
   76SLPC   H6S 6846   4.973   0.218   7.163  1.4148 -0.7309 -2.0133
   76SLPC   C27 6847   5.055   0.349   7.313  0.3034  0.1086 -0.1870
   76SLPC   H7R 6848   4.971   0.308   7.374  1.0906  1.1448  1.6359
   76SLPC   H7S 6849   5.016   0.445   7.273  3.0089  0.2375 -2.6674
   76SLPC   C28 6850   5.172   0.367   7.410  0.0562  0.6524 -0.0752
   76SLPC   H8R 6851   5.268   0.364   7.354 -0.8898 -1.7098 -1.6378
   76SLPC   H8S 6852   5.174   0.466   7.459  3.5933  0.8837 -0.5991
   76SLPC   C29 6853   5.181   0.252   7.505 -0.2682 -0.4970  0.1103
   76SLPC   H9R 6854   5.200   0.156   7.455 -1.1041 -1.2442  1.1833
   76SLPC  C210 6855   5.177   0.249   7.642 -0.0025  0.3859 -0.2484
   76SLPC  H10R 6856   5.171   0.155   7.698  0.1334 -0.6978 -1.9932
   76SLPC  C211 6857   5.161   0.375   7.723  0.2480  0.5809  0.1373
   76SLPC  H11R 6858   5.067   0.424   7.689  0.5952  0.3458 -1.1923
   76SLPC  H11S 6859   5.236   0.448   7.684  3.2906 -2.1276  0.7185
   76SLPC  C212 6860   5.190   0.355   7.872 -0.5340 -0.6433 -0.5275
   76SLPC  H12R 6861   5.251   0.266   7.891  2.1036  0.6928 -2.3865
   76SLPC  C213 6862   5.163   0.437   7.978 -0.5618  0.2444  0.8344
   76SLPC  H13R 6863   5.190   0.403   8.079  2.6045  1.2024  0.3460
   76SLPC  C214 6864   5.090   0.564   7.969  0.2986  0.2745  0.0506
   76SLPC  H14R 6865   4.980   0.547   7.967  0.4171 -0.8680  1.7370
   76SLPC  H14S 6866   5.107   0.611   7.870 -0.4370 -0.9053 -0.6496
   76SLPC  C215 6867   5.127   0.679   8.073  0.3846  0.0358  0.5046
   76SLPC  H15R 6868   5.058   0.765   8.057  0.2375 -0.0653  0.5971
   76SLPC  H15S 6869   5.227   0.720   8.047  0.3238  0.5294  1.0250
   76SLPC  C216 6870   5.115   0.639   8.222 -0.7817  0.5748 -0.1041
   76SLPC  H16R 6871   5.184   0.554   8.239  0.8055  1.6950 -0.7931
   76SLPC  H16S 6872   5.017   0.596   8.249 -0.1517 -1.7956 -1.4895
   76SLPC  C217 6873   5.147   0.746   8.332 -0.6103  0.3692  0.4419
   76SLPC  H17R 6874   5.087   0.836   8.307 -1.1621  0.4463  2.0338
   76SLPC  H17S 6875   5.250   0.784   8.315 -0.0987  0.0781  2.7600
   76SLPC  C218 6876   5.117   0.695   8.474  0.6449 -0.0549 -0.4770
   76SLPC  H18R 6877   5.121   0.773   8.554  0.3491 -1.4158  0.8988
   76SLPC  H18S 6878   5.189   0.619   8.511  0.4388 -0.6060 -1.2001
   76SLPC  H18T 6879   5.013   0.659   8.488  1.0194 -0.4490  1.5008
   76SLPC   C33 6880   4.581   0.095   7.066  0.2032 -0.4348  0.8703
   76SLPC   H3X 6881   4.496   0.045   7.015  1.4997  0.4395 -2.2334
   76SLPC   H3Y 6882   4.566   0.205   7.060 -1.3364 -0.7026 -0.4831
   76SLPC   C34 6883   4.578   0.043   7.209 -0.4435  0.1235  0.4255
   76SLPC   H4X 6884   4.585  -0.068   7.216 -1.6473 -0.0082 -0.4346
   76SLPC   H4Y 6885   4.480   0.065   7.256 -1.0621  0.6544 -1.1078
   76SLPC   C35 6886   4.677   0.109   7.291  0.2648  0.2015 -1.0636
   76SLPC   H5X 6887   4.655   0.217   7.295 -0.0517  0.0850  0.3131
   76SLPC   H5Y 6888   4.781   0.090   7.257  1.3443  2.3225  0.9685
   76SLPC   C36 6889   4.665   0.056   7.437  0.2103 -0.4214  1.4212
   76SLPC   H6X 6890   4.695  -0.050   7.451  1.6672 -0.2392 -0.1234
   76SLPC   H6Y 6891   4.556   0.055   7.457 -0.2522  0.3487 -0.8323
   76SLPC   C37 6892   4.749   0.146   7.532  0.1748 -0.2655 -0.2010
   76SLPC   H7X 6893   4.726   0.245   7.488 -0.8906 -0.2174  0.4392
   76SLPC   H7Y 6894   4.856   0.119   7.518 -0.5252 -1.7814 -2.9027
   76SLPC   C38 6895   4.717   0.128   7.683  0.1506  0.2435 -0.2858
   76SLPC   H8X 6896   4.745   0.021   7.696 -0.6592  0.1422  0.6772
   76SLPC   H8Y 6897   4.609   0.131   7.709  0.0083 -1.1311 -0.6233
   76SLPC   C39 6898   4.807   0.210   7.786 -0.0081  0.4442  0.3840
   76SLPC   H9X 6899   4.815   0.317   7.758  0.6389  0.5845  1.1006
   76SLPC   H9Y 6900   4.903   0.158   7.766  0.2211  1.2831 -0.6991
   76SLPC  C310 6901   4.764   0.189   7.935 -0.5536  0.6586 -0.5975
   76SLPC  H10X 6902   4.786   0.086   7.970  2.0767  1.6625  0.8206
   76SLPC  H10Y 6903   4.655   0.208   7.946 -0.2847  1.6766  0.2745
   76SLPC  C311 6904   4.838   0.296   8.015  0.1153  0.2229 -0.1529
   76SLPC  H11X 6905   4.817   0.401   7.987 -1.6469 -0.6313 -2.1725
   76SLPC  H11Y 6906   4.947   0.284   7.994  0.1059  0.2036 -0.1865
   76SLPC  C312 6907   4.810   0.278   8.165  0.0526  0.1239 -0.0353
   76SLPC  H12X 6908   4.700   0.271   8.177  0.2100  0.8984  2.1334
   76SLPC  H12Y 6909   4.839   0.369   8.222  2.6592  0.0720 -1.2066
   76SLPC  C313 6910   4.892   0.159   8.218  0.0801  0.2940 -0.4326
   76SLPC  H13X 6911   4.885   0.058   8.171 -0.1350  0.0138  0.1955
   76SLPC  H13Y 6912   4.854   0.153   8.322 -1.1798  2.2840 -0.7434
   76SLPC  C314 6913   5.037   0.196   8.231  0.0959  0.4290  0.3348
   76SLPC  H14X 6914   5.054   0.306   8.235  4.3403 -0.1676  0.7833
   76SLPC  H14Y 6915   5.087   0.160   8.139 -1.9358  0.8993 -0.9624
   76SLPC  C315 6916   5.098   0.140   8.363  0.5329 -0.4982 -0.9882
   76SLPC  H15X 6917   5.068   0.035   8.381 -0.1050 -0.5341 -2.1873
   76SLPC  H15Y 6918   5.061   0.196   8.452 -0.8267  1.4294 -2.7147
   76SLPC  C316 6919   5.246   0.158   8.368 -0.6160 -0.2546 -0.3148
   76SLPC  H16X 6920   5.274   0.264   8.386 -0.1772 -0.5343  0.6971
   76SLPC  H16Y 6921   5.303   0.131   8.277 -1.4688 -1.0071 -0.6287
   76SLPC  C317 6922   5.308   0.060   8.474 -0.3179 -0.5470  0.6074
   76SLPC  H17X 6923   5.290  -0.046   8.446 -2.9377 -0.0307  0.1849
   76SLPC  H17Y 6924   5.253   0.079   8.569  0.7190  0.5590  0.9923
   76SLPC  C318 6925   5.459   0.079   8.507 -0.3804 -0.0352 -0.4907
   76SLPC  H18X 6926   5.514   0.132   8.426  0.2265 -0.6964 -0.5168
   76SLPC  H18Y 6927   5.516  -0.014   8.531 -0.6317  0.2739  1.3720
   76SLPC  H18Z 6928   5.468   0.139   8.600 -1.7288 -0.7153  0.0921
   77SLPC     N 6929   0.708   5.607   6.324 -0.7107 -0.3431 -0.4649
   77SLPC   C13 6930   0.574   5.562   6.272  0.1213  0.0653  0.2532
   77SLPC  H13A 6931   0.496   5.612   6.327  1.2877  0.0305  2.0010
   77SLPC  H13B 6932   0.567   5.595   6.170  1.0895  0.2569  0.2422
   77SLPC  H13C 6933   0.558   5.455   6.267  1.5456 -0.2318  1.6503
   77SLPC   C14 6934   0.729   5.748   6.296  0.2738 -0.1255  0.3828
   77SLPC  H14A 6935   0.659   5.815   6.344 -0.8035  0.6457 -2.2030
   77SLPC  H14B 6936   0.823   5.775   6.342 -1.1541  0.8325  2.8802
   77SLPC  H14C 6937   0.718   5.772   6.192  2.3379  1.9380  0.6052
   77SLPC   C15 6938   0.813   5.537   6.249  1.2885  0.1089 -0.0991
   77SLPC  H15A 6939   0.790   5.535   6.144 -2.0481 -2.1789  0.6161
   77SLPC  H15B 6940   0.907   5.581   6.279  0.7985  0.5432  0.8178
   77SLPC  H15C 6941   0.815   5.433   6.276  0.2162  0.3525  0.9505
   77SLPC   C12 6942   0.713   5.587   6.473  0.3433 -0.2507 -0.5065
   77SLPC  H12A 6943   0.724   5.481   6.492 -0.8684  0.2422  3.1347
   77SLPC  H12B 6944   0.622   5.615   6.524  1.2028 -1.0380  1.5130
   77SLPC   C11 6945   0.819   5.661   6.569  0.5437  0.2914 -0.1867
   77SLPC  H11A 6946   0.786   5.618   6.666  0.3406 -0.9478 -0.7902
   77SLPC  H11B 6947   0.805   5.771   6.580  1.4911  0.4161 -0.1920
   77SLPC     P 6948   1.071   5.720   6.523 -0.1911 -0.0909  0.1806
   77SLPC   O13 6949   1.191   5.631   6.525  0.1300 -0.0553  0.3862
   77SLPC   O14 6950   1.043   5.811   6.411 -0.3409  0.1433  0.1311
   77SLPC   O12 6951   0.954   5.619   6.546  0.3002  0.1695 -0.8393
   77SLPC   O11 6952   1.068   5.804   6.650 -0.2424  0.5720 -0.3504
   77SLPC    C1 6953   1.109   5.758   6.775  0.0119  0.0330 -0.3313
   77SLPC    HA 6954   1.085   5.652   6.795  0.2224  0.0118 -0.1849
   77SLPC    HB 6955   1.216   5.783   6.794  0.0867 -1.2717  0.9601
   77SLPC    C2 6956   1.028   5.841   6.877 -0.4322  0.0611 -0.1550
   77SLPC    HS 6957   0.923   5.838   6.839 -0.5353  0.3587  0.1060
   77SLPC   O21 6958   1.087   5.972   6.877 -1.4472  0.3007 -0.1125
   77SLPC   C21 6959   1.010   6.066   6.905  0.1863 -0.1634  0.4105
   77SLPC   O22 6960   0.886   6.061   6.905  0.4787  0.6636  0.1030
   77SLPC   C22 6961   1.087   6.181   6.956  0.0910  0.9557  0.4770
   77SLPC   H2R 6962   1.187   6.183   6.908 -0.9049 -1.7710 -1.9224
   77SLPC   H2S 6963   1.034   6.266   6.909 -0.1188  1.3845  1.4644
   77SLPC    C3 6964   1.031   5.774   7.021 -0.3417  0.5788  0.1921
   77SLPC    HX 6965   1.138   5.780   7.051 -0.1247 -1.5649 -0.0906
   77SLPC    HY 6966   1.004   5.666   7.012 -2.4143  1.1953 -1.5867
   77SLPC   O31 6967   0.955   5.855   7.116  0.1483 -0.1104  0.2693
   77SLPC   C31 6968   0.832   5.823   7.120  0.3188 -0.1491 -0.3154
   77SLPC   O32 6969   0.773   5.734   7.058 -0.2966 -0.2105  0.3703
   77SLPC   C32 6970   0.759   5.925   7.207  0.6392  0.4127 -0.1335
   77SLPC   H2X 6971   0.705   6.001   7.145 -0.1126 -0.1773 -0.2100
   77SLPC   H2Y 6972   0.832   5.987   7.263  1.9819 -2.3407  1.2358
   77SLPC   C23 6973   1.086   6.190   7.110 -0.2372  0.5309  0.5967
   77SLPC   H3R 6974   1.157   6.115   7.151 -1.3262 -1.8766 -1.7437
   77SLPC   H3S 6975   0.981   6.165   7.139 -1.1609  1.3036 -1.9213
   77SLPC   C24 6976   1.120   6.328   7.163  0.1005  0.1641 -0.1765
   77SLPC   H4R 6977   1.078   6.404   7.094  2.0894  0.0702 -1.5382
   77SLPC   H4S 6978   1.227   6.357   7.152  0.3549 -0.1280  1.4311
   77SLPC   C25 6979   1.076   6.356   7.303  0.1787 -0.4296  0.2498
   77SLPC   H5R 6980   1.114   6.456   7.335 -3.0131  0.9759 -0.1563
   77SLPC   H5S 6981   1.126   6.289   7.376 -0.8354 -1.5533 -0.0963
   77SLPC   C26 6982   0.925   6.358   7.333 -0.6663  0.5511  0.7008
   77SLPC   H6R 6983   0.890   6.258   7.299  0.3060  1.0154 -1.8445
   77SLPC   H6S 6984   0.877   6.441   7.276  0.6003 -0.3111 -1.7236
   77SLPC   C27 6985   0.905   6.382   7.477 -0.7910 -0.0206 -0.2868
   77SLPC   H7R 6986   0.971   6.469   7.498 -0.0087 -0.1137 -2.3464
   77SLPC   H7S 6987   0.944   6.291   7.527 -0.2264 -0.3433 -1.3110
   77SLPC   C28 6988   0.756   6.416   7.508 -0.2915 -0.9265 -0.2150
   77SLPC   H8R 6989   0.732   6.524   7.494  1.3869 -0.4845  0.2263
   77SLPC   H8S 6990   0.757   6.416   7.619  0.1150 -0.5357 -0.2169
   77SLPC   C29 6991   0.645   6.326   7.461  0.0244 -0.6300 -0.1513
   77SLPC   H9R 6992   0.618   6.245   7.530 -1.5625 -0.0819 -0.0946
   77SLPC  C210 6993   0.575   6.324   7.347 -0.3493  0.7500  0.0927
   77SLPC  H10R 6994   0.493   6.250   7.351  0.8469 -0.5639  0.4629
   77SLPC  C211 6995   0.583   6.411   7.225  0.3845  0.0037  0.3997
   77SLPC  H11R 6996   0.627   6.510   7.252  1.1021 -0.1955 -0.0180
   77SLPC  H11S 6997   0.484   6.443   7.186  0.4133 -0.6117 -0.1808
   77SLPC  C212 6998   0.654   6.349   7.103 -0.3979  0.9565 -0.0646
   77SLPC  H12R 6999   0.652   6.239   7.103 -0.4486  0.9453 -1.4273
   77SLPC  C213 7000   0.733   6.416   7.018 -0.4864  0.4544  0.0747
   77SLPC  H13R 7001   0.786   6.353   6.945 -1.9156 -0.0250 -0.5900
   77SLPC  C214 7002   0.767   6.562   7.014  0.8398 -1.0368  0.6560
   77SLPC  H14R 7003   0.830   6.600   7.097 -1.1489  1.8366  0.9530
   77SLPC  H14S 7004   0.676   6.625   7.025  1.6992  0.9340 -2.6576
   77SLPC  C215 7005   0.824   6.601   6.876 -0.0995 -0.1402 -0.9309
   77SLPC  H15R 7006   0.814   6.709   6.852  0.8659  0.8207  2.5838
   77SLPC  H15S 7007   0.772   6.551   6.792  0.9798  0.8597 -2.2100
   77SLPC  C216 7008   0.980   6.579   6.880 -0.0113  0.4694 -0.1515
   77SLPC  H16R 7009   0.991   6.473   6.848 -0.6815  1.1641 -2.7904
   77SLPC  H16S 7010   1.015   6.588   6.985  0.3898  1.2344 -0.3429
   77SLPC  C217 7011   1.062   6.662   6.787 -0.7734 -0.2031  0.2310
   77SLPC  H17R 7012   1.026   6.765   6.808 -2.7317 -0.5588 -1.1359
   77SLPC  H17S 7013   1.047   6.638   6.679 -1.7407 -0.1560  0.3438
   77SLPC  C218 7014   1.214   6.647   6.806  0.0091 -0.4378  0.0881
   77SLPC  H18R 7015   1.271   6.701   6.728  0.7025 -0.5078  0.5404
   77SLPC  H18S 7016   1.246   6.542   6.788  2.3626  0.5528 -1.8621
   77SLPC  H18T 7017   1.243   6.689   6.905  1.0625  0.9530 -0.7997
   77SLPC   C33 7018   0.656   5.866   7.302 -0.7385  0.5015 -0.2746
   77SLPC   H3X 7019   0.691   5.780   7.363 -1.1018  1.1435  0.8541
   77SLPC   H3Y 7020   0.566   5.838   7.243 -0.6109  1.1126 -0.7609
   77SLPC   C34 7021   0.603   5.966   7.405 -0.2127 -0.0032 -0.2606
   77SLPC   H4X 7022   0.563   6.059   7.359 -0.5688 -0.9739 -1.9715
   77SLPC   H4Y 7023   0.681   6.007   7.473  0.1804  1.5120 -1.6096
   77SLPC   C35 7024   0.491   5.906   7.493 -0.3585 -0.3886  0.6321
   77SLPC   H5X 7025   0.539   5.814   7.533  2.1481  0.1302 -1.1174
   77SLPC   H5Y 7026   0.407   5.882   7.424  1.2805 -1.8332 -0.9186
   77SLPC   C36 7027   0.432   5.998   7.606  0.1848 -0.0512  0.3185
   77SLPC   H6X 7028   0.345   5.936   7.638 -0.4033  1.2501  1.2949
   77SLPC   H6Y 7029   0.391   6.098   7.578  3.6218  1.0563 -0.9701
   77SLPC   C37 7030   0.521   6.015   7.729 -0.3405 -0.0894 -0.5596
   77SLPC   H7X 7031   0.468   6.056   7.818  0.1890  1.3126 -0.8806
   77SLPC   H7Y 7032   0.610   6.077   7.705  0.5412 -1.9455 -2.2122
   77SLPC   C38 7033   0.590   5.882   7.774 -0.1640  0.1116  0.4695
   77SLPC   H8X 7034   0.668   5.855   7.700 -0.9230 -0.5580 -0.1091
   77SLPC   H8Y 7035   0.503   5.813   7.772 -0.9916  1.1231  0.8206
   77SLPC   C39 7036   0.661   5.890   7.912  0.0510 -0.4328 -0.1170
   77SLPC   H9X 7037   0.587   5.914   7.991 -0.7506 -2.0491 -0.3620
   77SLPC   H9Y 7038   0.742   5.966   7.920  0.2207 -0.5672 -0.5327
   77SLPC  C310 7039   0.728   5.751   7.943  0.4093 -0.4874  0.0123
   77SLPC  H10X 7040   0.818   5.738   7.879  0.6717 -0.6047  0.4013
   77SLPC  H10Y 7041   0.654   5.671   7.921  2.0198 -2.2811  0.9160
   77SLPC  C311 7042   0.767   5.733   8.090 -0.1336  0.0731 -0.1708
   77SLPC  H11X 7043   0.845   5.811   8.106 -0.9632  0.8580  0.0724
   77SLPC  H11Y 7044   0.807   5.633   8.116 -0.1854 -0.0106 -0.4097
   77SLPC  C312 7045   0.664   5.766   8.201 -0.2859 -0.1826 -0.0982
   77SLPC  H12X 7046   0.640   5.873   8.181 -0.7138 -0.3061 -0.2537
   77SLPC  H12Y 7047   0.701   5.747   8.304 -0.1707 -1.7685 -0.4166
   77SLPC  C313 7048   0.539   5.685   8.174 -0.2372 -0.6142  0.4366
   77SLPC  H13X 7049   0.558   5.575   8.178 -1.4762 -0.8369  0.4812
   77SLPC  H13Y 7050   0.503   5.716   8.073  0.9619 -1.0684 -0.1327
   77SLPC  C314 7051   0.421   5.710   8.267  0.0513  0.5127 -0.0390
   77SLPC  H14X 7052   0.373   5.810   8.259  1.1176  1.1986  1.8877
   77SLPC  H14Y 7053   0.466   5.706   8.368  2.0009  0.0233 -0.9114
   77SLPC  C315 7054   0.314   5.598   8.261 -0.2782  0.0928 -0.4032
   77SLPC  H15X 7055   0.361   5.501   8.288  0.5629  0.8891  0.9665
   77SLPC  H15Y 7056   0.275   5.587   8.157  0.6785  0.6410 -0.8257
   77SLPC  C316 7057   0.190   5.626   8.354 -0.0841 -0.4089 -0.0655
   77SLPC  H16X 7058   0.113   5.670   8.287 -1.1505  0.8365  1.9405
   77SLPC  H16Y 7059   0.217   5.706   8.427 -2.0778 -0.6232  0.9383
   77SLPC  C317 7060   0.128   5.499   8.412  0.2863 -0.6223 -0.4069
   77SLPC  H17X 7061   0.077   5.529   8.506  0.3398 -1.7232 -0.0276
   77SLPC  H17Y 7062   0.213   5.429   8.425  2.0231  1.1936 -1.6532
   77SLPC  C318 7063   0.040   5.431   8.303  0.3258 -0.5614  0.1695
   77SLPC  H18X 7064  -0.034   5.502   8.261 -0.9282 -2.1193 -0.3144
   77SLPC  H18Y 7065  -0.022   5.349   8.346 -3.6787  2.5992  0.8250
   77SLPC  H18Z 7066   0.100   5.388   8.220 -0.9911 -0.3611 -0.9148
   78SLPC     N 7067   3.860   0.883   5.729 -0.1096 -0.1272  0.1562
   78SLPC   C13 7068   3.983   0.800   5.697  0.3332 -0.3902 -0.2029
   78SLPC  H13A 7069   4.043   0.780   5.785 -1.8118 -1.0302  1.1546
   78SLPC  H13B 7070   3.949   0.710   5.650  0.0873 -1.0598  1.2197
   78SLPC  H13C 7071   4.044   0.839   5.617  0.2199 -2.8761 -1.5459
   78SLPC   C14 7072   3.750   0.812   5.799 -0.2875 -0.0113  1.1910
   78SLPC  H14A 7073   3.689   0.879   5.858  0.0616  0.4267  1.0506
   78SLPC  H14B 7074   3.684   0.760   5.731  2.1888 -1.3461 -0.2479
   78SLPC  H14C 7075   3.789   0.731   5.860  3.0801  1.3482  0.8837
   78SLPC   C15 7076   3.808   0.951   5.607  0.5990 -0.3323 -0.2104
   78SLPC  H15A 7077   3.721   1.008   5.639 -1.4826 -1.5503 -3.4602
   78SLPC  H15B 7078   3.874   1.013   5.549  1.3116 -1.5552 -0.6989
   78SLPC  H15C 7079   3.770   0.879   5.536  0.6125  1.6308 -2.2732
   78SLPC   C12 7080   3.902   1.005   5.814 -0.0335 -0.3600  0.4149
   78SLPC  H12A 7081   3.819   1.070   5.836 -0.3946 -0.4757 -0.5702
   78SLPC  H12B 7082   3.965   1.062   5.747 -1.8452  2.4412  1.0458
   78SLPC   C11 7083   3.986   0.980   5.945 -0.0526 -0.6080  0.1404
   78SLPC  H11A 7084   4.001   1.083   5.983 -2.5630  0.8611 -2.6819
   78SLPC  H11B 7085   4.087   0.941   5.919  0.2124  1.4355 -1.9747
   78SLPC     P 7086   3.964   0.763   6.101 -0.3230 -0.1177 -0.4492
   78SLPC   O13 7087   3.885   0.654   6.035  0.0956  0.0926  0.2787
   78SLPC   O14 7088   4.113   0.744   6.100 -0.1933 -0.2860  0.0790
   78SLPC   O12 7089   3.909   0.906   6.043 -0.5744 -0.1182  0.0580
   78SLPC   O11 7090   3.914   0.775   6.243  0.2933 -0.1398 -0.5823
   78SLPC    C1 7091   3.931   0.886   6.318  0.5364 -0.3121 -0.5500
   78SLPC    HA 7092   4.034   0.926   6.302  0.3350  0.9756  1.2323
   78SLPC    HB 7093   3.874   0.969   6.271 -2.8756 -1.5741  1.2270
   78SLPC    C2 7094   3.898   0.889   6.472  0.1848  0.5365 -0.1870
   78SLPC    HS 7095   3.942   0.983   6.511  2.3173  0.0221 -1.3169
   78SLPC   O21 7096   3.959   0.773   6.529  0.4476 -0.4186 -0.3818
   78SLPC   C21 7097   4.088   0.765   6.533  0.1039  0.4334 -0.1516
   78SLPC   O22 7098   4.168   0.841   6.487  0.1461  0.1048  0.4698
   78SLPC   C22 7099   4.135   0.644   6.616 -0.0068 -0.5969  0.5407
   78SLPC   H2R 7100   4.047   0.576   6.614  0.5120 -1.2571  0.1739
   78SLPC   H2S 7101   4.220   0.602   6.558  1.2391  2.1112  0.3493
   78SLPC    C3 7102   3.748   0.882   6.506  0.6565 -0.6236  0.6340
   78SLPC    HX 7103   3.697   0.821   6.428 -0.5937  0.1361  0.8440
   78SLPC    HY 7104   3.708   0.983   6.482  0.5859 -1.6025 -3.9585
   78SLPC   O31 7105   3.713   0.848   6.644 -0.4180 -0.5836  0.0866
   78SLPC   C31 7106   3.672   0.728   6.664 -0.3749  0.8130 -0.3812
   78SLPC   O32 7107   3.637   0.648   6.582  0.5323  0.3325  0.0196
   78SLPC   C32 7108   3.668   0.695   6.816  0.9614 -0.3381 -0.4679
   78SLPC   H2X 7109   3.590   0.761   6.859  1.8573  0.3624  0.1126
   78SLPC   H2Y 7110   3.768   0.717   6.861  0.4321  0.7912  0.1698
   78SLPC   C23 7111   4.177   0.682   6.761 -0.5344  0.6854  0.0107
   78SLPC   H3R 7112   4.241   0.773   6.764  0.3797  0.0178  1.0538
   78SLPC   H3S 7113   4.241   0.597   6.793 -0.1777  0.0275 -2.3787
   78SLPC   C24 7114   4.054   0.697   6.856 -0.1665  0.0182  0.3573
   78SLPC   H4R 7115   4.015   0.593   6.861 -1.4593  0.4559 -0.4473
   78SLPC   H4S 7116   3.980   0.758   6.799 -0.4165 -1.6801 -1.1960
   78SLPC   C25 7117   4.092   0.757   6.992 -0.0768 -0.4188  0.0364
   78SLPC   H5R 7118   4.120   0.863   6.973 -1.4679 -0.0596 -0.0419
   78SLPC   H5S 7119   4.176   0.695   7.029  1.8640  2.2315  0.2423
   78SLPC   C26 7120   3.986   0.758   7.101 -0.5204  0.1730  0.4365
   78SLPC   H6R 7121   3.916   0.671   7.093 -1.1868  0.5583  1.7718
   78SLPC   H6S 7122   3.916   0.843   7.089 -0.8081 -0.4243 -2.2980
   78SLPC   C27 7123   4.042   0.770   7.240  0.1102  0.3236 -0.1004
   78SLPC   H7R 7124   4.103   0.863   7.247  1.6202 -0.5234 -1.5845
   78SLPC   H7S 7125   4.119   0.693   7.260 -0.3031  0.6222  2.7595
   78SLPC   C28 7126   3.928   0.765   7.337  0.4675  0.9485 -0.5082
   78SLPC   H8R 7127   3.979   0.771   7.436  0.1791 -2.3121 -0.1145
   78SLPC   H8S 7128   3.890   0.661   7.341 -1.5939  1.6886 -0.2433
   78SLPC   C29 7129   3.817   0.871   7.335  0.5867  0.2515  0.2152
   78SLPC   H9R 7130   3.716   0.827   7.328  1.2282 -0.9923 -1.5503
   78SLPC  C210 7131   3.833   0.999   7.351  0.3328  0.2294 -0.6926
   78SLPC  H10R 7132   3.740   1.056   7.339  1.4808  2.3716  0.1345
   78SLPC  C211 7133   3.947   1.090   7.376  0.6676  0.2072 -0.4794
   78SLPC  H11R 7134   3.988   1.129   7.280 -1.0253  0.4285 -1.1303
   78SLPC  H11S 7135   4.023   1.024   7.421 -0.4713 -0.6808  0.1584
   78SLPC  C212 7136   3.940   1.213   7.465  0.1308 -0.3694 -0.8019
   78SLPC  H12R 7137   3.943   1.300   7.398  0.4146 -0.8619 -1.4425
   78SLPC  C213 7138   3.947   1.227   7.601  0.6630  0.5131 -0.2157
   78SLPC  H13R 7139   3.933   1.325   7.648 -1.0823 -0.5223  1.4664
   78SLPC  C214 7140   3.957   1.113   7.698  0.3406  1.0090  0.5098
   78SLPC  H14R 7141   3.894   1.028   7.663 -0.7541  2.2361 -0.5606
   78SLPC  H14S 7142   3.907   1.144   7.792  0.5176  0.7146  0.7008
   78SLPC  C215 7143   4.094   1.065   7.753 -0.1587 -0.0473 -0.5563
   78SLPC  H15R 7144   4.161   1.044   7.667  0.9268  4.2245 -0.8815
   78SLPC  H15S 7145   4.086   0.979   7.823 -2.4459 -0.0978 -0.8391
   78SLPC  C216 7146   4.172   1.182   7.824 -0.4333  0.0714  0.1885
   78SLPC  H16R 7147   4.097   1.227   7.892 -0.6493 -2.1768  1.4662
   78SLPC  H16S 7148   4.199   1.255   7.745  0.6351  0.8278  1.2288
   78SLPC  C217 7149   4.305   1.149   7.899 -0.2246 -0.8415  0.8787
   78SLPC  H17R 7150   4.278   1.083   7.984 -0.9206 -0.1429  1.2083
   78SLPC  H17S 7151   4.341   1.249   7.932 -0.6600 -0.8202  1.2998
   78SLPC  C218 7152   4.420   1.085   7.823 -0.8039 -1.1376  0.1412
   78SLPC  H18R 7153   4.418   0.981   7.785  0.9413 -1.2659  0.3704
   78SLPC  H18S 7154   4.514   1.103   7.880  0.5595 -0.2102 -2.3240
   78SLPC  H18T 7155   4.435   1.139   7.727  1.5201  2.2564  2.2621
   78SLPC   C33 7156   3.651   0.535   6.833 -0.6352  0.1082 -0.6542
   78SLPC   H3X 7157   3.734   0.490   6.775 -2.2433  0.5129 -3.3440
   78SLPC   H3Y 7158   3.554   0.506   6.788 -0.3291 -0.8379 -0.7075
   78SLPC   C34 7159   3.634   0.499   6.980 -0.2581 -0.1230 -0.6705
   78SLPC   H4X 7160   3.729   0.476   7.032  0.0798  1.4532 -0.5400
   78SLPC   H4Y 7161   3.579   0.403   6.978 -1.4282  0.5486 -0.6359
   78SLPC   C35 7162   3.572   0.598   7.070 -0.6447  0.1103  0.5459
   78SLPC   H5X 7163   3.470   0.604   7.026 -0.4530  0.5602  0.1645
   78SLPC   H5Y 7164   3.612   0.700   7.058 -0.8367  0.0516 -0.6587
   78SLPC   C36 7165   3.565   0.544   7.218  0.4144 -0.7488 -0.3877
   78SLPC   H6X 7166   3.670   0.550   7.253 -0.2556  0.3274  1.4875
   78SLPC   H6Y 7167   3.535   0.438   7.214  3.6567 -1.6453 -4.7610
   78SLPC   C37 7168   3.476   0.641   7.300 -0.1332  0.3823  0.2409
   78SLPC   H7X 7169   3.368   0.616   7.306  0.6193 -2.7655  1.7240
   78SLPC   H7Y 7170   3.482   0.743   7.255  1.0013  0.7946  1.2814
   78SLPC   C38 7171   3.535   0.657   7.442 -0.3219  0.1245 -0.5384
   78SLPC   H8X 7172   3.646   0.661   7.447 -0.3191 -1.8370  2.1288
   78SLPC   H8Y 7173   3.513   0.570   7.506 -0.4941  1.0681  0.7070
   78SLPC   C39 7174   3.485   0.782   7.514 -0.8180  0.6036  0.5461
   78SLPC   H9X 7175   3.376   0.760   7.517 -1.3994  3.3893  1.3020
   78SLPC   H9Y 7176   3.501   0.867   7.445  2.2626  0.5622  1.1307
   78SLPC  C310 7177   3.551   0.814   7.646 -0.8527 -0.4059 -0.2541
   78SLPC  H10X 7178   3.661   0.831   7.638 -0.6542 -0.7536  1.4179
   78SLPC  H10Y 7179   3.545   0.727   7.715 -0.1046 -1.4079 -1.4342
   78SLPC  C311 7180   3.488   0.939   7.707 -0.0545 -0.1950 -0.0829
   78SLPC  H11X 7181   3.391   0.906   7.749 -0.5076  0.8335 -0.2939
   78SLPC  H11Y 7182   3.467   1.006   7.621  0.7337 -0.0504 -0.1640
   78SLPC  C312 7183   3.584   1.017   7.802  0.2128 -0.3663 -0.0470
   78SLPC  H12X 7184   3.653   1.070   7.733  1.7939  1.1099  2.5928
   78SLPC  H12Y 7185   3.640   0.942   7.862  2.7443  2.1699  0.8983
   78SLPC  C313 7186   3.524   1.123   7.895 -0.0646  0.3730 -0.7230
   78SLPC  H13X 7187   3.472   1.199   7.834 -0.6179 -1.7152 -2.9409
   78SLPC  H13Y 7188   3.606   1.177   7.946 -0.5024  0.6142 -0.2794
   78SLPC  C314 7189   3.434   1.057   7.998  0.0922 -0.6240 -0.4772
   78SLPC  H14X 7190   3.368   0.984   7.948 -0.0850 -0.1370 -0.9599
   78SLPC  H14Y 7191   3.368   1.136   8.040  1.3992 -0.9041  2.2420
   78SLPC  C315 7192   3.517   0.995   8.118 -0.2112 -0.0686 -0.5070
   78SLPC  H15X 7193   3.583   1.073   8.162  1.5094 -0.8079 -1.7221
   78SLPC  H15Y 7194   3.585   0.914   8.085 -0.1954 -1.5187  2.8925
   78SLPC  C316 7195   3.424   0.941   8.222 -0.1041 -0.0740 -0.4982
   78SLPC  H16X 7196   3.360   0.861   8.179 -0.5875 -0.4325  0.8313
   78SLPC  H16Y 7197   3.353   1.022   8.250 -0.4984  0.7881 -3.8057
   78SLPC  C317 7198   3.474   0.876   8.360  0.2624 -0.1359 -0.0214
   78SLPC  H17X 7199   3.524   0.949   8.427 -0.1496  0.0050  0.1366
   78SLPC  H17Y 7200   3.550   0.798   8.336  1.4968  1.4138 -1.2512
   78SLPC  C318 7201   3.362   0.823   8.447 -0.5052 -0.2722  0.3914
   78SLPC  H18X 7202   3.291   0.902   8.476 -0.6924 -0.4535  0.4284
   78SLPC  H18Y 7203   3.402   0.783   8.543 -0.7693  0.3702  0.7711
   78SLPC  H18Z 7204   3.302   0.737   8.411 -0.3436 -0.4228  0.4764
   79SLPC     N 7205   0.119   2.948   5.922  0.7717 -0.5014 -0.0332
   79SLPC   C13 7206   0.129   2.898   5.782 -0.7316  0.4164  0.2232
   79SLPC  H13A 7207   0.138   2.979   5.711 -3.9752 -0.0913 -0.8138
   79SLPC  H13B 7208   0.218   2.836   5.775 -0.3588  0.5745  3.0193
   79SLPC  H13C 7209   0.050   2.827   5.761  0.4942 -0.3507 -1.9938
   79SLPC   C14 7210  -0.012   3.003   5.947  0.3574  0.3615 -0.1161
   79SLPC  H14A 7211  -0.031   3.051   6.042 -1.6226 -1.2079  0.3215
   79SLPC  H14B 7212  -0.054   3.071   5.874 -0.2623  0.5686  0.4177
   79SLPC  H14C 7213  -0.084   2.922   5.952  0.2367  0.5472  1.3654
   79SLPC   C15 7214   0.206   3.070   5.922 -0.3763  0.5647 -0.2983
   79SLPC  H15A 7215   0.302   3.038   5.883  0.5880  1.4584  1.3082
   79SLPC  H15B 7216   0.163   3.144   5.857  0.1027  1.1480  0.0437
   79SLPC  H15C 7217   0.221   3.108   6.022  2.7440  1.9566 -1.2400
   79SLPC   C12 7218   0.171   2.847   6.022  0.5634 -0.3257 -0.3370
   79SLPC  H12A 7219   0.271   2.816   5.997 -0.5767 -2.2898 -2.6913
   79SLPC  H12B 7220   0.107   2.760   6.020  1.0294 -0.7474  1.6530
   79SLPC   C11 7221   0.178   2.897   6.175  0.6490  0.9986  0.2545
   79SLPC  H11A 7222   0.199   2.807   6.237  1.2765  2.0477  1.5851
   79SLPC  H11B 7223   0.078   2.941   6.195  1.2011  2.7963 -0.8619
   79SLPC     P 7224   0.418   2.971   6.237  0.1866 -0.2526  0.2216
   79SLPC   O13 7225   0.465   2.852   6.159  0.5497  0.0053 -0.7064
   79SLPC   O14 7226   0.501   3.096   6.222 -0.1079 -0.0338 -0.4665
   79SLPC   O12 7227   0.267   3.004   6.202  0.0228  1.0803  0.3805
   79SLPC   O11 7228   0.410   2.933   6.388  0.3345  0.2018  0.1819
   79SLPC    C1 7229   0.330   3.005   6.487  0.3181  0.6795  0.2510
   79SLPC    HA 7230   0.360   3.111   6.490  0.5529  0.6233 -0.0595
   79SLPC    HB 7231   0.225   3.008   6.449  1.4306 -3.2554 -3.6101
   79SLPC    C2 7232   0.332   2.936   6.626 -0.1513  0.6255 -0.0346
   79SLPC    HS 7233   0.247   2.970   6.690  0.1208  0.9912  0.1334
   79SLPC   O21 7234   0.456   2.954   6.687 -0.6414 -0.2948  0.5068
   79SLPC   C21 7235   0.462   3.074   6.749 -0.3898 -0.7371  0.3284
   79SLPC   O22 7236   0.369   3.145   6.777 -0.1879 -0.0283 -0.0850
   79SLPC   C22 7237   0.611   3.105   6.767  0.1017 -0.1751  0.5063
   79SLPC   H2R 7238   0.664   3.007   6.759  3.1781  1.5338 -0.8170
   79SLPC   H2S 7239   0.654   3.178   6.695  2.2646 -2.2895 -0.4174
   79SLPC    C3 7240   0.319   2.784   6.601 -0.1948 -0.4880 -0.3533
   79SLPC    HX 7241   0.407   2.759   6.537 -0.3490  1.4026 -1.3172
   79SLPC    HY 7242   0.231   2.768   6.536  2.3222 -1.3766 -3.6750
   79SLPC   O31 7243   0.299   2.700   6.715  0.8104 -0.1472 -0.1408
   79SLPC   C31 7244   0.411   2.662   6.768 -0.0100 -0.3185  0.4508
   79SLPC   O32 7245   0.523   2.665   6.719  0.5135  0.0804 -0.0203
   79SLPC   C32 7246   0.380   2.618   6.906 -0.3808 -0.2710  0.0084
   79SLPC   H2X 7247   0.449   2.535   6.934 -0.6550  0.1008  1.9106
   79SLPC   H2Y 7248   0.274   2.587   6.915 -0.3950  0.0180  0.9058
   79SLPC   C23 7249   0.643   3.155   6.909 -0.7524  0.0331 -0.3809
   79SLPC   H3R 7250   0.595   3.094   6.988 -0.9330  1.1474  0.3850
   79SLPC   H3S 7251   0.607   3.260   6.918 -3.6171 -0.8816 -0.7128
   79SLPC   C24 7252   0.794   3.164   6.939 -0.3493 -0.2008 -0.2440
   79SLPC   H4R 7253   0.843   3.216   6.854 -0.8921 -1.0611 -1.0896
   79SLPC   H4S 7254   0.848   3.069   6.957  1.0055  0.3906 -1.1368
   79SLPC   C25 7255   0.823   3.245   7.069  0.2205 -0.1980  0.6191
   79SLPC   H5R 7256   0.763   3.338   7.064  1.2964  0.4243 -3.6776
   79SLPC   H5S 7257   0.933   3.262   7.077  0.2447  2.4350 -3.5685
   79SLPC   C26 7258   0.783   3.166   7.186 -0.8809  0.3383 -0.6088
   79SLPC   H6R 7259   0.841   3.072   7.181 -2.2077 -0.4764 -0.9435
   79SLPC   H6S 7260   0.674   3.148   7.200 -0.3562 -3.1685 -0.6506
   79SLPC   C27 7261   0.829   3.228   7.325 -0.1117  0.3077  0.5134
   79SLPC   H7R 7262   0.804   3.155   7.405 -1.6262 -0.0165 -0.2532
   79SLPC   H7S 7263   0.777   3.322   7.353 -0.1377  1.2157 -2.4801
   79SLPC   C28 7264   0.980   3.270   7.331  0.6835  0.7010  0.8147
   79SLPC   H8R 7265   0.999   3.366   7.278 -0.4522  0.6895  0.3701
   79SLPC   H8S 7266   1.045   3.196   7.280  0.3957  0.3836  0.9073
   79SLPC   C29 7267   1.029   3.274   7.477  0.0491 -0.0292  0.1789
   79SLPC   H9R 7268   1.084   3.187   7.517 -0.9178 -0.6979  0.0842
   79SLPC  C210 7269   1.023   3.391   7.544  0.2662  0.4037  0.8896
   79SLPC  H10R 7270   1.058   3.400   7.648  0.7664  2.2480  0.5850
   79SLPC  C211 7271   0.953   3.524   7.511  0.3050  0.2462 -0.0026
   79SLPC  H11R 7272   0.868   3.552   7.577  0.6108 -0.4861  0.7022
   79SLPC  H11S 7273   0.901   3.506   7.414  1.1451  1.8870 -0.7706
   79SLPC  C212 7274   1.033   3.649   7.492 -0.2180 -0.4477  0.2959
   79SLPC  H12R 7275   1.041   3.682   7.387  1.5082 -1.7383  0.0133
   79SLPC  C213 7276   1.101   3.710   7.590 -0.3265  0.4129 -0.0081
   79SLPC  H13R 7277   1.142   3.807   7.559 -0.5171 -0.2938 -2.6009
   79SLPC  C214 7278   1.105   3.674   7.735 -0.2447 -0.2321  0.2293
   79SLPC  H14R 7279   1.199   3.620   7.758 -0.2216 -0.4114 -0.2786
   79SLPC  H14S 7280   1.032   3.596   7.768 -0.0416  1.2338  4.4331
   79SLPC  C215 7281   1.081   3.804   7.826  0.1577  0.1645  0.0644
   79SLPC  H15R 7282   0.979   3.846   7.824  0.4170  0.8349  0.9717
   79SLPC  H15S 7283   1.154   3.880   7.792  2.9211 -1.4380  2.1869
   79SLPC  C216 7284   1.111   3.768   7.967  0.2823  0.5430  0.5789
   79SLPC  H16R 7285   1.048   3.683   8.000 -0.3207  0.9646  0.5296
   79SLPC  H16S 7286   1.092   3.858   8.029  1.1298  0.6878  0.6318
   79SLPC  C217 7287   1.257   3.730   7.998  0.1553  0.1482  0.3862
   79SLPC  H17R 7288   1.315   3.818   7.961  1.5201 -0.8966 -0.0011
   79SLPC  H17S 7289   1.291   3.641   7.941  1.2462  1.3079 -0.8482
   79SLPC  C218 7290   1.280   3.722   8.146  0.0285 -0.2541  0.3003
   79SLPC  H18R 7291   1.389   3.722   8.169  0.0396 -0.5369  0.2592
   79SLPC  H18S 7292   1.233   3.632   8.191  0.0103 -0.0771  0.6380
   79SLPC  H18T 7293   1.259   3.819   8.194  2.6290  0.4487  0.1175
   79SLPC   C33 7294   0.419   2.726   7.010  0.4287 -0.4533  0.0220
   79SLPC   H3X 7295   0.390   2.829   6.982 -0.9412 -1.1759 -1.2956
   79SLPC   H3Y 7296   0.526   2.743   7.033 -0.1068  1.3352  1.2503
   79SLPC   C34 7297   0.348   2.685   7.147  0.5101 -0.1454  0.6517
   79SLPC   H4X 7298   0.372   2.577   7.157  1.8991 -0.1007 -1.9555
   79SLPC   H4Y 7299   0.238   2.687   7.135 -0.0038  0.5537  4.7515
   79SLPC   C35 7300   0.404   2.750   7.282 -0.4799 -0.4723  0.9052
   79SLPC   H5X 7301   0.404   2.859   7.264 -1.2220 -0.4320  1.1317
   79SLPC   H5Y 7302   0.505   2.704   7.280 -1.4640 -2.7402 -2.3441
   79SLPC   C36 7303   0.315   2.719   7.398  0.4775 -0.7350  0.8698
   79SLPC   H6X 7304   0.273   2.616   7.389 -0.7690  0.0131 -2.5620
   79SLPC   H6Y 7305   0.231   2.787   7.424  0.6029 -0.3473  0.2644
   79SLPC   C37 7306   0.407   2.742   7.519  0.1768 -0.0255 -0.4319
   79SLPC   H7X 7307   0.495   2.810   7.517  0.5313 -0.3756  1.6549
   79SLPC   H7Y 7308   0.461   2.645   7.523 -0.4303 -0.3575 -0.2148
   79SLPC   C38 7309   0.328   2.763   7.652  0.1660  0.0523  0.1672
   79SLPC   H8X 7310   0.255   2.679   7.655 -1.2849  1.2229 -1.0809
   79SLPC   H8Y 7311   0.268   2.857   7.653 -2.0535 -1.1555 -4.1687
   79SLPC   C39 7312   0.407   2.757   7.775  0.0599  0.1567  0.7166
   79SLPC   H9X 7313   0.499   2.819   7.766 -0.8188  1.4500  0.4900
   79SLPC   H9Y 7314   0.455   2.658   7.792  2.2000  1.1043  0.2765
   79SLPC  C310 7315   0.331   2.785   7.895 -0.3839  0.4025  0.0783
   79SLPC  H10X 7316   0.232   2.734   7.883  0.2224 -1.5776  3.0655
   79SLPC  H10Y 7317   0.321   2.895   7.909  1.6238  0.2262  3.2830
   79SLPC  C311 7318   0.399   2.718   8.011  0.0906  0.9691  0.0982
   79SLPC  H11X 7319   0.439   2.617   7.990  0.3635  1.2202 -0.6211
   79SLPC  H11Y 7320   0.326   2.700   8.093  0.7790  1.2193  0.7714
   79SLPC  C312 7321   0.514   2.803   8.068  0.8201  0.5592 -0.7388
   79SLPC  H12X 7322   0.489   2.908   8.094 -2.3635 -0.3512  0.0864
   79SLPC  H12Y 7323   0.598   2.806   7.995  2.1439 -0.5955  0.6696
   79SLPC  C313 7324   0.575   2.746   8.202  0.7439  0.0957 -0.0602
   79SLPC  H13X 7325   0.606   2.641   8.182 -0.2591 -0.4212  1.0091
   79SLPC  H13Y 7326   0.495   2.743   8.279 -2.2556  1.0400 -3.0101
   79SLPC  C314 7327   0.683   2.832   8.265 -0.4312 -0.3257  0.2171
   79SLPC  H14X 7328   0.638   2.926   8.302  0.3807  0.7241 -1.3972
   79SLPC  H14Y 7329   0.759   2.844   8.185 -0.9988 -3.0703 -0.8021
   79SLPC  C315 7330   0.763   2.787   8.385  0.6123  0.4174  0.4873
   79SLPC  H15X 7331   0.689   2.753   8.461 -1.1120 -1.3673 -1.9211
   79SLPC  H15Y 7332   0.818   2.876   8.423  0.0086  1.0668 -0.1504
   79SLPC  C316 7333   0.847   2.664   8.342 -0.2902 -0.0701  0.1771
   79SLPC  H16X 7334   0.893   2.681   8.242  0.1806 -2.7978 -0.1137
   79SLPC  H16Y 7335   0.783   2.575   8.325  0.2010 -0.7430  1.7697
   79SLPC  C317 7336   0.958   2.636   8.442  0.3841  0.9951  0.3735
   79SLPC  H17X 7337   1.035   2.717   8.446  1.7723 -0.3564  1.8243
   79SLPC  H17Y 7338   1.012   2.546   8.405  0.1310  1.9340 -2.3944
   79SLPC  C318 7339   0.907   2.618   8.588  0.1192  0.0313 -0.7427
   79SLPC  H18X 7340   0.990   2.570   8.644  1.4612  4.1423  0.9652
   79SLPC  H18Y 7341   0.811   2.563   8.589  0.3308 -0.4555 -3.1046
   79SLPC  H18Z 7342   0.876   2.714   8.634 -2.1358 -0.8207 -0.4380
   80SLPC     N 7343   2.332   0.722   5.995  0.6169  0.2369  0.8014
   80SLPC   C13 7344   2.410   0.841   5.967  0.3145  0.2868 -0.3229
   80SLPC  H13A 7345   2.415   0.852   5.860 -0.4928 -1.9289 -0.6073
   80SLPC  H13B 7346   2.365   0.934   5.998  0.7414 -0.0187  1.3093
   80SLPC  H13C 7347   2.514   0.839   5.999 -0.1521  3.8060  1.6414
   80SLPC   C14 7348   2.334   0.705   6.146 -0.6737  0.5282 -0.3616
   80SLPC  H14A 7349   2.286   0.612   6.174  1.7936 -0.1878  1.7967
   80SLPC  H14B 7350   2.431   0.726   6.190 -1.3748  0.0144  1.4997
   80SLPC  H14C 7351   2.275   0.785   6.188 -0.1266  0.5774  0.3295
   80SLPC   C15 7352   2.385   0.604   5.925  0.3358 -0.4280  0.0628
   80SLPC  H15A 7353   2.348   0.510   5.964  0.2359  0.0142  1.0477
   80SLPC  H15B 7354   2.365   0.611   5.819  0.2085 -1.9578 -0.0179
   80SLPC  H15C 7355   2.492   0.595   5.934  0.3986  1.8455  2.0740
   80SLPC   C12 7356   2.183   0.746   5.963  0.6669  0.2341  0.3065
   80SLPC  H12A 7357   2.171   0.760   5.857  1.5731 -1.5603 -0.0520
   80SLPC  H12B 7358   2.150   0.837   6.012  0.5640  0.5438 -0.3260
   80SLPC   C11 7359   2.081   0.641   5.998  0.1605  0.1706  0.0226
   80SLPC  H11A 7360   2.095   0.549   5.939  0.9415 -2.2602  3.7839
   80SLPC  H11B 7361   1.988   0.681   5.953 -0.3388  0.0265  0.9183
   80SLPC     P 7362   1.983   0.719   6.217  0.4916 -0.2484  0.0617
   80SLPC   O13 7363   2.058   0.836   6.265 -0.7152  0.0258 -0.4624
   80SLPC   O14 7364   1.855   0.734   6.141  0.4164 -0.4206 -0.0867
   80SLPC   O12 7365   2.069   0.612   6.137 -0.1067 -0.3654  0.5205
   80SLPC   O11 7366   1.938   0.639   6.346  0.3154 -0.5780  0.3408
   80SLPC    C1 7367   2.033   0.605   6.443  0.1252  0.1614  0.6203
   80SLPC    HA 7368   2.043   0.494   6.446  3.6084  0.4019  0.1013
   80SLPC    HB 7369   2.137   0.642   6.430  0.5294 -0.9117  0.6884
   80SLPC    C2 7370   1.979   0.666   6.573 -0.6629  0.4493  0.3759
   80SLPC    HS 7371   1.870   0.651   6.558 -0.5598 -0.6260  0.6849
   80SLPC   O21 7372   2.024   0.804   6.588 -0.1138  0.7817  0.0156
   80SLPC   C21 7373   1.929   0.888   6.637  0.0320  0.6341 -0.4437
   80SLPC   O22 7374   1.818   0.851   6.679 -0.8788  0.3311  0.3770
   80SLPC   C22 7375   1.969   1.030   6.612 -0.7657 -0.4663  0.0236
   80SLPC   H2R 7376   2.076   1.038   6.640 -0.9224  0.6670  0.3262
   80SLPC   H2S 7377   1.976   1.041   6.501 -1.4780 -1.0039 -0.0800
   80SLPC    C3 7378   2.025   0.573   6.691 -0.1666 -0.3287  0.1819
   80SLPC    HX 7379   2.135   0.586   6.701 -0.0829  0.8805 -1.9370
   80SLPC    HY 7380   2.015   0.467   6.659  0.4132 -0.7572  1.4188
   80SLPC   O31 7381   1.953   0.604   6.811  0.2417 -0.7012  0.3101
   80SLPC   C31 7382   2.009   0.585   6.932  0.7209  0.4393 -0.1672
   80SLPC   O32 7383   2.107   0.515   6.947 -0.0580  0.1104  0.6900
   80SLPC   C32 7384   1.918   0.635   7.039 -0.3949  0.6410 -0.1774
   80SLPC   H2X 7385   1.811   0.625   7.010 -0.7705  2.4229  0.5011
   80SLPC   H2Y 7386   1.930   0.746   7.045 -2.4968  0.8256  1.1937
   80SLPC   C23 7387   1.882   1.142   6.689 -0.4034 -0.4867  0.0001
   80SLPC   H3R 7388   1.782   1.128   6.643  0.6514  0.2984 -2.6121
   80SLPC   H3S 7389   1.925   1.241   6.663 -0.5198 -0.4807 -0.1699
   80SLPC   C24 7390   1.885   1.133   6.840  0.4587 -0.1669  0.1344
   80SLPC   H4R 7391   1.979   1.173   6.883  0.1731  1.0434 -0.3401
   80SLPC   H4S 7392   1.867   1.026   6.862  1.0404 -0.2752  0.0874
   80SLPC   C25 7393   1.763   1.213   6.896 -0.1658 -0.0200  0.1362
   80SLPC   H5R 7394   1.671   1.176   6.846  1.2694  0.2721 -2.7985
   80SLPC   H5S 7395   1.777   1.317   6.859 -1.5684 -0.1910 -0.9100
   80SLPC   C26 7396   1.757   1.208   7.048  0.0361  0.0954  0.3204
   80SLPC   H6R 7397   1.857   1.246   7.075  0.2016  0.9111 -1.3735
   80SLPC   H6S 7398   1.761   1.099   7.071  2.6474  0.1960  0.4651
   80SLPC   C27 7399   1.656   1.283   7.131  0.5110 -0.0649 -0.1465
   80SLPC   H7R 7400   1.565   1.221   7.120  0.2374  0.3286 -0.1216
   80SLPC   H7S 7401   1.641   1.379   7.077 -2.5957 -0.9457 -0.9550
   80SLPC   C28 7402   1.688   1.298   7.284 -0.1066 -0.9505  0.7296
   80SLPC   H8R 7403   1.618   1.368   7.336 -0.6723 -2.6810  2.3700
   80SLPC   H8S 7404   1.788   1.346   7.294 -0.4315  0.0084 -0.4726
   80SLPC   C29 7405   1.703   1.169   7.355 -0.1509  1.2473  0.4334
   80SLPC   H9R 7406   1.761   1.097   7.296 -0.2655  1.5675 -0.0755
   80SLPC  C210 7407   1.640   1.131   7.466  0.2925  0.0473 -0.2001
   80SLPC  H10R 7408   1.653   1.031   7.511 -2.6508 -0.3189 -0.0753
   80SLPC  C211 7409   1.547   1.224   7.549 -0.2566 -0.1988 -0.5143
   80SLPC  H11R 7410   1.592   1.324   7.535 -1.7412  0.8129  1.6305
   80SLPC  H11S 7411   1.556   1.200   7.657 -2.0699 -1.9353 -0.7040
   80SLPC  C212 7412   1.406   1.238   7.495  0.6622  0.6373  0.0644
   80SLPC  H12R 7413   1.389   1.238   7.386 -0.3984  1.1936  0.2233
   80SLPC  C213 7414   1.294   1.240   7.568  0.1138 -0.7013 -0.8530
   80SLPC  H13R 7415   1.201   1.260   7.514  0.0895  2.2469  0.1879
   80SLPC  C214 7416   1.277   1.237   7.724 -0.1522  0.0026  0.6153
   80SLPC  H14R 7417   1.204   1.315   7.755 -0.5401 -0.7469  1.6267
   80SLPC  H14S 7418   1.375   1.268   7.764  1.6711 -3.8537 -0.6128
   80SLPC  C215 7419   1.239   1.100   7.785 -0.3149 -0.8206  0.2434
   80SLPC  H15R 7420   1.312   1.024   7.749  0.2702 -0.1098 -0.0801
   80SLPC  H15S 7421   1.136   1.067   7.759 -1.2917  0.9029  1.7696
   80SLPC  C216 7422   1.246   1.091   7.938  0.1843  0.7269 -0.1713
   80SLPC  H16R 7423   1.169   1.158   7.982  1.6282  0.3488  3.0158
   80SLPC  H16S 7424   1.347   1.122   7.972  0.5654 -0.7488  0.0852
   80SLPC  C217 7425   1.222   0.946   7.983 -0.1591 -0.3116  0.0631
   80SLPC  H17R 7426   1.286   0.873   7.929  3.4161  3.3832 -0.9572
   80SLPC  H17S 7427   1.121   0.916   7.947  0.1564 -2.3304  0.8067
   80SLPC  C218 7428   1.221   0.932   8.135  0.0460 -0.4542  0.0285
   80SLPC  H18R 7429   1.129   0.986   8.166 -0.3062 -1.6594  1.1314
   80SLPC  H18S 7430   1.315   0.986   8.161  0.4188 -0.1456 -1.8620
   80SLPC  H18T 7431   1.228   0.826   8.167  1.3493  0.4697  2.9737
   80SLPC   C33 7432   1.952   0.578   7.179  0.0207  0.7358  0.5026
   80SLPC   H3X 7433   2.059   0.589   7.210  0.5613  0.1225 -1.0709
   80SLPC   H3Y 7434   1.934   0.468   7.185  1.8253  0.3592 -0.7079
   80SLPC   C34 7435   1.873   0.654   7.289  0.6789  0.5447  0.0192
   80SLPC   H4X 7436   1.764   0.641   7.271  0.6055  0.3613  0.5637
   80SLPC   H4Y 7437   1.882   0.763   7.269 -0.7574  0.6539 -0.0755
   80SLPC   C35 7438   1.897   0.626   7.438  0.3331 -0.3048 -0.4844
   80SLPC   H5X 7439   2.002   0.634   7.472 -0.0477  1.8326  0.2187
   80SLPC   H5Y 7440   1.866   0.519   7.436  0.9333 -0.5066  0.4705
   80SLPC   C36 7441   1.811   0.707   7.541  0.3811 -0.8070 -1.2226
   80SLPC   H6X 7442   1.707   0.683   7.510 -0.5388  3.2426 -1.4633
   80SLPC   H6Y 7443   1.836   0.814   7.529  2.0624 -0.9057  1.0551
   80SLPC   C37 7444   1.824   0.673   7.690 -0.5866 -0.5473  0.6292
   80SLPC   H7X 7445   1.919   0.707   7.738 -0.4084 -1.0510  0.6352
   80SLPC   H7Y 7446   1.815   0.565   7.714 -1.8575 -0.2562  1.4878
   80SLPC   C38 7447   1.708   0.749   7.767 -0.1210  0.4897  0.2093
   80SLPC   H8X 7448   1.617   0.697   7.731  0.2640 -1.0351  1.3973
   80SLPC   H8Y 7449   1.710   0.853   7.728  0.7817  0.3510 -0.1347
   80SLPC   C39 7450   1.724   0.723   7.916  0.1596 -0.2898 -0.7690
   80SLPC   H9X 7451   1.808   0.784   7.954  1.7307 -2.1627 -1.1424
   80SLPC   H9Y 7452   1.760   0.621   7.941  2.0522  0.0851 -1.8601
   80SLPC  C310 7453   1.591   0.746   7.989  0.4389  0.4087 -0.3562
   80SLPC  H10X 7454   1.503   0.696   7.941 -0.3094 -1.0349  2.4222
   80SLPC  H10Y 7455   1.553   0.850   7.989  0.9004  0.5982 -1.7157
   80SLPC  C311 7456   1.582   0.704   8.139 -0.0017 -0.7425  0.6760
   80SLPC  H11X 7457   1.612   0.597   8.145  1.5548 -0.6613 -3.6351
   80SLPC  H11Y 7458   1.475   0.702   8.168 -0.0551 -0.7159  0.4850
   80SLPC  C312 7459   1.662   0.799   8.231  0.2812  0.0475 -0.0916
   80SLPC  H12X 7460   1.605   0.781   8.324 -1.1701  0.6208 -0.8576
   80SLPC  H12Y 7461   1.642   0.905   8.206 -1.7505  0.2441  2.1406
   80SLPC  C313 7462   1.806   0.748   8.272 -0.4082 -0.2128 -0.0879
   80SLPC  H13X 7463   1.869   0.782   8.187  0.1637 -1.1855 -0.0616
   80SLPC  H13Y 7464   1.811   0.637   8.264  1.3708 -0.2435  1.3173
   80SLPC  C314 7465   1.848   0.774   8.420  0.5827 -0.7066 -1.0762
   80SLPC  H14X 7466   1.852   0.884   8.439 -0.9401 -0.6417 -1.0322
   80SLPC  H14Y 7467   1.952   0.737   8.418  0.2783 -1.5029 -2.3761
   80SLPC  C315 7468   1.764   0.691   8.527  0.2691  0.1764 -0.4309
   80SLPC  H15X 7469   1.772   0.583   8.500 -0.8872 -0.0981  0.2979
   80SLPC  H15Y 7470   1.662   0.736   8.523  1.1342  2.2705  0.3609
   80SLPC  C316 7471   1.823   0.701   8.671 -0.1580 -0.0299 -0.4734
   80SLPC  H16X 7472   1.858   0.802   8.701  0.7069 -0.8411  1.3349
   80SLPC  H16Y 7473   1.913   0.637   8.675 -0.7768 -0.9438 -0.9452
   80SLPC  C317 7474   1.729   0.640   8.777  1.0875 -0.1626 -0.0841
   80SLPC  H17X 7475   1.786   0.623   8.870  1.5219  0.8000 -0.1742
   80SLPC  H17Y 7476   1.711   0.534   8.748  0.1414  0.0517 -0.3127
   80SLPC  C318 7477   1.614   0.727   8.810 -0.0796 -0.4902 -1.2076
   80SLPC  H18X 7478   1.647   0.831   8.831 -1.3990  0.0077 -1.5739
   80SLPC  H18Y 7479   1.551   0.692   8.895 -0.1045  2.7116  0.1725
   80SLPC  H18Z 7480   1.539   0.718   8.729 -3.3961 -1.6951  1.8684
   81SAPS     N 7481   2.529   1.936  10.671 -0.8716  0.0034 -0.6031
   81SAPS   HN1 7482   2.591   1.873  10.725 -1.2869  0.3372  0.2649
   81SAPS   HN2 7483   2.481   1.874  10.602 -0.7199  1.5767 -2.1468
   81SAPS   HN3 7484   2.586   2.005  10.618  2.5797 -1.7725  0.6291
   81SAPS   C12 7485   2.406   1.993  10.744 -1.0139  0.3851 -0.5774
   81SAPS  H12A 7486   2.365   2.075  10.687  0.3716 -0.4770 -2.8746
   81SAPS   C13 7487   2.285   1.886  10.768  0.9400 -0.0717  0.6132
   81SAPS  O13A 7488   2.308   1.775  10.713 -0.1686 -0.4595  0.2371
   81SAPS  O13B 7489   2.197   1.898  10.853 -0.7453  0.4052 -0.5941
   81SAPS   C11 7490   2.451   2.047  10.873  0.0119  0.2698  0.6768
   81SAPS  H11A 7491   2.512   1.975  10.931  0.2144 -0.5855 -0.5827
   81SAPS  H11B 7492   2.359   2.073  10.930  0.0175 -0.8131  1.1812
   81SAPS     P 7493   2.470   2.314  10.909 -0.3911  0.4871 -0.5330
   81SAPS   O13 7494   2.341   2.336  10.851  0.5652  0.1111  0.0283
   81SAPS   O14 7495   2.478   2.309  11.058 -0.1403 -0.0233  0.2697
   81SAPS   O12 7496   2.523   2.167  10.856  0.7757 -0.0456 -0.7300
   81SAPS   O11 7497   2.568   2.421  10.850  0.4234 -0.0543  0.1546
   81SAPS    C1 7498   2.648   2.385  10.735  0.1433 -0.3566  0.6607
   81SAPS    HA 7499   2.736   2.453  10.731  0.3993 -0.7468 -0.3006
   81SAPS    HB 7500   2.690   2.283  10.746  0.6657 -0.5161 -2.4295
   81SAPS    C2 7501   2.578   2.425  10.605 -0.1226 -0.9694 -0.1901
   81SAPS    HS 7502   2.474   2.388  10.611 -0.5887  0.4719  0.8982
   81SAPS   O21 7503   2.658   2.377  10.491 -0.6108  0.7207  1.0813
   81SAPS   C21 7504   2.618   2.255  10.457 -0.1707  0.1536 -0.6541
   81SAPS   O22 7505   2.532   2.190  10.504 -0.1025 -0.7246  0.6148
   81SAPS   C22 7506   2.692   2.211  10.336 -0.4144 -0.1528 -0.5468
   81SAPS   H2R 7507   2.796   2.179  10.360  0.1595  1.7781 -0.3846
   81SAPS   H2S 7508   2.641   2.122  10.293  0.5787 -1.7859  1.5749
   81SAPS    C3 7509   2.565   2.580  10.600  0.3554 -0.3161  0.5984
   81SAPS    HX 7510   2.671   2.613  10.595  0.6767 -1.5139 -0.7816
   81SAPS    HY 7511   2.518   2.624  10.691  0.5755 -0.6982  0.8995
   81SAPS   O31 7512   2.492   2.612  10.481 -0.0202 -0.5342  1.3547
   81SAPS   C31 7513   2.482   2.749  10.460 -0.1315  0.3502 -0.2623
   81SAPS   O32 7514   2.522   2.833  10.535 -0.2226  0.2192  0.4334
   81SAPS   C32 7515   2.391   2.772  10.345 -0.0560 -0.3887 -0.0183
   81SAPS   H2X 7516   2.295   2.812  10.384  0.3892  1.4281 -0.7675
   81SAPS   H2Y 7517   2.382   2.673  10.296 -0.8585 -0.4090  0.1525
   81SAPS   C23 7518   2.706   2.314  10.226 -0.4128  0.4961  0.2248
   81SAPS   H3R 7519   2.785   2.277  10.158  0.9208 -2.3100  3.2020
   81SAPS   H3S 7520   2.746   2.411  10.263  2.7910 -1.2058  1.4399
   81SAPS   C24 7521   2.580   2.329  10.137  0.0581  0.7356 -1.2414
   81SAPS   H4R 7522   2.499   2.370  10.201 -1.4995 -0.2652 -2.5444
   81SAPS   H4S 7523   2.544   2.226  10.113  0.4178  0.2208  0.3156
   81SAPS   C25 7524   2.595   2.422  10.020 -0.4133  0.4010  0.5039
   81SAPS   H5R 7525   2.628   2.526  10.036 -2.8499  1.1009  1.2301
   81SAPS   C26 7526   2.573   2.376   9.894 -0.9488  0.0742 -0.1499
   81SAPS   H6R 7527   2.572   2.437   9.803 -0.2219 -2.1887 -1.7193
   81SAPS   C27 7528   2.531   2.238   9.848 -0.2832  1.0441  0.4051
   81SAPS   H7R 7529   2.438   2.217   9.904 -0.6458 -1.8900 -1.1825
   81SAPS   H7S 7530   2.599   2.162   9.891 -2.0771 -0.1893  1.1086
   81SAPS   C28 7531   2.517   2.204   9.700 -0.2438  0.1769 -0.2207
   81SAPS   H8R 7532   2.593   2.138   9.655 -0.6063 -1.2502  1.2089
   81SAPS   C29 7533   2.418   2.247   9.620  0.0902 -0.0578  0.5537
   81SAPS   H9R 7534   2.424   2.218   9.514  1.7832 -0.2303  0.6846
   81SAPS  C210 7535   2.298   2.338   9.652 -0.5161  0.1232  0.4022
   81SAPS  H10R 7536   2.305   2.416   9.573  1.0290 -1.2839 -0.8759
   81SAPS  H10S 7537   2.303   2.391   9.749  2.3236  2.7911 -1.1489
   81SAPS  C211 7538   2.173   2.266   9.628 -0.0107 -0.0595 -0.3911
   81SAPS  H11R 7539   2.129   2.233   9.724  1.0389 -1.9661 -0.5356
   81SAPS  C212 7540   2.103   2.255   9.511 -0.0861 -0.0813  1.1236
   81SAPS  H12R 7541   1.999   2.220   9.519 -0.7659  0.9004 -2.3899
   81SAPS  C213 7542   2.140   2.304   9.371  0.0306 -0.0030 -0.7627
   81SAPS  H13R 7543   2.175   2.220   9.308 -2.3278 -0.3452 -1.6597
   81SAPS  H13S 7544   2.221   2.379   9.380  0.6412 -0.7927  0.5008
   81SAPS  C214 7545   2.027   2.387   9.320  0.0233 -0.1238  0.5336
   81SAPS  H14R 7546   1.992   2.468   9.386  0.0733  0.4573 -0.1443
   81SAPS  C215 7547   1.983   2.383   9.190 -0.2049 -0.2452 -0.1889
   81SAPS  H15R 7548   1.907   2.456   9.160  1.1319  1.4821  0.5121
   81SAPS  C216 7549   2.049   2.300   9.082 -0.4197  0.1921  0.3298
   81SAPS  H16R 7550   1.997   2.204   9.060  1.1190 -0.5590 -0.0926
   81SAPS  H16S 7551   2.155   2.274   9.104 -0.9048 -1.2123  1.0764
   81SAPS  C217 7552   2.055   2.372   8.947  0.1090  0.0197  0.2740
   81SAPS  H17R 7553   2.095   2.476   8.951 -0.1426  0.1527 -0.6703
   81SAPS  H17S 7554   1.950   2.379   8.913  0.0270  1.5518  0.8024
   81SAPS  C218 7555   2.134   2.286   8.850  0.2745  0.0531  0.1036
   81SAPS  H18R 7556   2.093   2.183   8.855  1.0979 -0.1996  1.9598
   81SAPS  H18S 7557   2.240   2.279   8.883  0.4279  1.5831 -0.0411
   81SAPS  C219 7558   2.125   2.338   8.701  0.4886 -0.2472  0.8078
   81SAPS  H19R 7559   2.163   2.442   8.697  0.1536 -0.1521  0.0745
   81SAPS  H19S 7560   2.018   2.324   8.676  0.9553 -0.6983 -1.0117
   81SAPS  C220 7561   2.195   2.255   8.604  0.1977  1.3448  0.2533
   81SAPS  H20R 7562   2.206   2.280   8.496 -0.0920  0.8953  0.1152
   81SAPS  H20S 7563   2.148   2.154   8.606 -0.1601  1.4382 -1.8302
   81SAPS  H20T 7564   2.297   2.227   8.638 -1.0608 -4.4436 -0.1502
   81SAPS   C33 7565   2.460   2.879  10.262  0.4031  0.4452  0.3386
   81SAPS   H3X 7566   2.553   2.828  10.229 -1.0167 -1.3941 -0.9620
   81SAPS   H3Y 7567   2.483   2.964  10.329 -0.2275  0.4657  0.5384
   81SAPS   C34 7568   2.371   2.917  10.147  0.4213 -0.0495 -0.4424
   81SAPS   H4X 7569   2.434   2.992  10.094  2.1871 -0.8982  0.4401
   81SAPS   H4Y 7570   2.283   2.974  10.185  0.2850  0.2553 -1.1969
   81SAPS   C35 7571   2.336   2.797  10.064  0.8639 -0.0507 -0.2062
   81SAPS   H5X 7572   2.277   2.718  10.116  1.7121 -0.1706  0.5864
   81SAPS   H5Y 7573   2.425   2.739  10.031  2.6248  2.3895  0.1593
   81SAPS   C36 7574   2.273   2.852   9.939 -0.2659  0.0897  0.7510
   81SAPS   H6X 7575   2.227   2.950   9.962 -0.3997 -0.0796  1.2126
   81SAPS   H6Y 7576   2.197   2.781   9.901  0.2554  0.1397 -0.4152
   81SAPS   C37 7577   2.378   2.874   9.823  0.3977 -0.6272 -0.6382
   81SAPS   H7X 7578   2.424   2.775   9.800 -1.7033 -1.6021 -0.7479
   81SAPS   H7Y 7579   2.460   2.941   9.855  1.0547 -1.1464 -1.2142
   81SAPS   C38 7580   2.302   2.916   9.700  0.0323  0.5553  0.0899
   81SAPS   H8X 7581   2.247   3.010   9.724  1.0536  0.6992  2.0364
   81SAPS   H8Y 7582   2.225   2.840   9.679 -2.4222  3.1709 -0.7201
   81SAPS   C39 7583   2.394   2.942   9.579 -0.5074  0.1773  0.0089
   81SAPS   H9X 7584   2.453   2.849   9.563  1.2309  1.3137 -0.2106
   81SAPS   H9Y 7585   2.472   3.016   9.606  1.9762 -2.0338 -0.9019
   81SAPS  C310 7586   2.333   2.998   9.449  0.4959 -0.1359  0.5605
   81SAPS  H10X 7587   2.278   3.093   9.463 -0.1110 -0.5306  0.8539
   81SAPS  H10Y 7588   2.259   2.918   9.428 -2.1192  1.7544  2.3908
   81SAPS  C311 7589   2.418   2.999   9.322  0.3153 -0.5413  0.7575
   81SAPS  H11X 7590   2.501   2.926   9.330  1.1884  0.4931  1.2712
   81SAPS  H11Y 7591   2.471   3.096   9.313  0.2654 -0.5778  0.0383
   81SAPS  C312 7592   2.327   2.964   9.199  0.8690  0.2797  0.2470
   81SAPS  H12X 7593   2.243   3.037   9.199 -0.5138 -1.2600  2.0177
   81SAPS  H12Y 7594   2.284   2.863   9.214 -1.7834  1.2183 -0.7025
   81SAPS  C313 7595   2.392   2.965   9.059 -0.4757 -0.3132  0.2725
   81SAPS  H13X 7596   2.463   2.881   9.067 -0.7984 -0.6607 -0.5081
   81SAPS  H13Y 7597   2.444   3.060   9.037 -1.8478  0.4852  0.3832
   81SAPS  C314 7598   2.300   2.923   8.942 -0.4392 -0.4839  0.4929
   81SAPS  H14X 7599   2.220   3.000   8.931  0.3294  0.2752  0.1777
   81SAPS  H14Y 7600   2.251   2.829   8.974 -2.2004  0.4150  0.5077
   81SAPS  C315 7601   2.367   2.901   8.812 -0.4287 -0.1397 -1.4871
   81SAPS  H15X 7602   2.459   2.840   8.816 -0.1417  0.3838  0.5057
   81SAPS  H15Y 7603   2.404   3.002   8.783  2.1676 -0.1107  1.6477
   81SAPS  C316 7604   2.266   2.855   8.705  0.4948 -0.1583  0.4979
   81SAPS  H16X 7605   2.168   2.907   8.716 -0.0985 -0.8036 -1.4159
   81SAPS  H16Y 7606   2.256   2.745   8.700 -0.0961 -0.0936  0.0915
   81SAPS  C317 7607   2.316   2.897   8.565 -0.3863  0.4499  0.2655
   81SAPS  H17X 7608   2.417   2.860   8.539 -0.0881 -0.7166  2.8963
   81SAPS  H17Y 7609   2.318   3.008   8.556  1.4803  0.6321  2.4482
   81SAPS  C318 7610   2.214   2.856   8.451  0.4499 -0.2605 -0.6601
   81SAPS  H18X 7611   2.229   2.925   8.365 -0.9783 -0.1722 -0.8575
   81SAPS  H18Y 7612   2.109   2.858   8.488  0.0989  1.1161 -1.6889
   81SAPS  H18Z 7613   2.219   2.746   8.431 -1.4893 -0.3280 -0.9324
   82SAPS     N 7614   0.986   1.173  10.939 -0.8605 -0.1476 -0.2021
   82SAPS   HN1 7615   1.021   1.159  10.842  3.3021 -3.1584  1.5492
   82SAPS   HN2 7616   0.992   1.078  10.981 -1.0166 -0.2472 -0.4082
   82SAPS   HN3 7617   0.889   1.207  10.926  0.1312  2.0884 -2.1626
   82SAPS   C12 7618   1.068   1.274  11.005  0.4573 -0.3275 -0.1002
   82SAPS  H12A 7619   1.031   1.292  11.104 -0.2142  0.9032 -0.5626
   82SAPS   C13 7620   1.217   1.249  11.014 -0.6965 -0.0977  0.1399
   82SAPS  O13A 7621   1.264   1.133  10.978 -0.3893 -0.1048 -0.8502
   82SAPS  O13B 7622   1.294   1.329  11.071 -0.0678  0.0497 -1.0189
   82SAPS   C11 7623   1.054   1.408  10.915  0.1366  0.4154  0.6699
   82SAPS  H11A 7624   1.098   1.396  10.813 -1.4100 -3.6536  0.3898
   82SAPS  H11B 7625   1.130   1.476  10.958  2.0678 -0.2370 -1.5478
   82SAPS     P 7626   0.893   1.588  10.824  0.0236  0.2732  0.0278
   82SAPS   O13 7627   0.820   1.690  10.905  0.8911  0.3589 -0.3724
   82SAPS   O14 7628   1.026   1.637  10.770 -0.4349  0.6718  0.6975
   82SAPS   O12 7629   0.918   1.457  10.910 -0.4858 -0.1704 -0.2376
   82SAPS   O11 7630   0.806   1.543  10.696 -0.2913 -0.9691 -0.0711
   82SAPS    C1 7631   0.826   1.431  10.614 -0.0070  0.1811  0.0537
   82SAPS    HA 7632   0.931   1.395  10.622  0.1660 -0.2747 -3.4046
   82SAPS    HB 7633   0.769   1.349  10.664 -0.2589 -0.8172 -1.8353
   82SAPS    C2 7634   0.781   1.444  10.464  0.4511 -1.1606 -0.4062
   82SAPS    HS 7635   0.851   1.515  10.415  0.9802 -0.6025  1.1360
   82SAPS   O21 7636   0.642   1.473  10.446  0.0404 -0.1753  0.3608
   82SAPS   C21 7637   0.609   1.539  10.329 -0.7755  0.4201 -0.1739
   82SAPS   O22 7638   0.687   1.601  10.261  0.0378  0.3912  0.0547
   82SAPS   C22 7639   0.463   1.529  10.303 -0.4040  0.4145  0.0022
   82SAPS   H2R 7640   0.408   1.572  10.390 -1.0667 -0.0404 -0.1816
   82SAPS   H2S 7641   0.429   1.585  10.213 -0.7084 -0.6004 -0.5266
   82SAPS    C3 7642   0.801   1.306  10.397 -0.1391  1.0851 -0.1777
   82SAPS    HX 7643   0.735   1.229  10.442  0.8168  0.4239  0.1058
   82SAPS    HY 7644   0.905   1.270  10.414 -0.4659  1.3623  2.5941
   82SAPS   O31 7645   0.775   1.304  10.255  0.2318  0.5214 -0.4495
   82SAPS   C31 7646   0.868   1.353  10.177  0.1502  1.1328 -0.8418
   82SAPS   O32 7647   0.972   1.398  10.210 -0.6333  0.0165  0.6284
   82SAPS   C32 7648   0.815   1.335  10.037  0.5272 -0.8047 -0.4598
   82SAPS   H2X 7649   0.704   1.327  10.030  0.5063 -1.6838  0.8034
   82SAPS   H2Y 7650   0.861   1.246   9.989  2.9799 -1.4123  2.8930
   82SAPS   C23 7651   0.404   1.380  10.288 -0.6241  0.3521  0.2078
   82SAPS   H3R 7652   0.449   1.322  10.372 -0.0477  2.4400  1.3646
   82SAPS   H3S 7653   0.429   1.338  10.188 -1.8813  2.3385 -0.9705
   82SAPS   C24 7654   0.257   1.384  10.281  0.8162  0.1249 -0.5270
   82SAPS   H4R 7655   0.235   1.462  10.205  0.9003 -0.0540 -0.7358
   82SAPS   H4S 7656   0.212   1.412  10.379  3.4261  2.4034  0.0771
   82SAPS   C25 7657   0.193   1.251  10.245 -0.3859  0.2960  0.4281
   82SAPS   H5R 7658   0.225   1.167  10.308 -0.3677 -0.2685 -0.3354
   82SAPS   C26 7659   0.123   1.220  10.143  0.6752  0.6461  0.4242
   82SAPS   H6R 7660   0.106   1.114  10.120 -0.4669  1.0571 -0.7122
   82SAPS   C27 7661   0.065   1.304  10.031  0.0781  0.1018  0.4675
   82SAPS   H7R 7662   0.033   1.401  10.074 -0.1330 -0.1422  0.8735
   82SAPS   H7S 7663  -0.028   1.261   9.988 -0.8250  2.2625  0.1993
   82SAPS   C28 7664   0.166   1.332   9.916  0.4023 -0.0499 -0.8430
   82SAPS   H8R 7665   0.240   1.406   9.951 -0.1026  0.6075 -1.1478
   82SAPS   C29 7666   0.172   1.292   9.789 -0.6388  0.8154 -0.4587
   82SAPS   H9R 7667   0.261   1.316   9.728  0.5228 -1.3354  0.3534
   82SAPS  C210 7668   0.085   1.192   9.714 -0.6575  0.4204  0.0716
   82SAPS  H10R 7669   0.009   1.151   9.785 -0.1805 -0.4182  0.1117
   82SAPS  H10S 7670   0.156   1.110   9.689 -0.4004  1.5343 -2.9790
   82SAPS  C211 7671   0.009   1.235   9.592  0.3738 -0.0800 -0.9295
   82SAPS  H11R 7672  -0.085   1.282   9.622  0.9813  0.1202  0.7221
   82SAPS  C212 7673   0.048   1.240   9.468  0.9574  0.3459 -0.0087
   82SAPS  H12R 7674  -0.028   1.289   9.405 -0.7244  0.6926  2.2004
   82SAPS  C213 7675   0.178   1.212   9.405  0.0440  0.3891 -0.4508
   82SAPS  H13R 7676   0.182   1.104   9.382 -0.8689 -0.5561  3.5193
   82SAPS  H13S 7677   0.261   1.236   9.476  0.8651 -3.9396  0.1706
   82SAPS  C214 7678   0.222   1.294   9.282  0.2280 -0.5984  0.7180
   82SAPS  H14R 7679   0.306   1.364   9.296  0.7952 -0.5418 -2.5437
   82SAPS  C215 7680   0.179   1.296   9.156 -0.4917 -0.0134 -0.1096
   82SAPS  H15R 7681   0.225   1.365   9.083  1.1609  1.6222  2.4255
   82SAPS  C216 7682   0.073   1.212   9.094  1.1203  0.0333  0.0325
   82SAPS  H16R 7683   0.030   1.270   9.009  0.4484  0.0731  0.3987
   82SAPS  H16S 7684  -0.009   1.181   9.162  2.5285  2.3945  2.8748
   82SAPS  C217 7685   0.149   1.092   9.029 -0.2296 -0.6198  0.1254
   82SAPS  H17R 7686   0.189   1.026   9.109  0.7733 -1.0580 -0.7292
   82SAPS  H17S 7687   0.239   1.112   8.967 -0.5467 -0.0687 -0.1620
   82SAPS  C218 7688   0.062   0.989   8.952  0.4467  0.0764  0.3113
   82SAPS  H18R 7689   0.124   0.925   8.885  1.4594  1.7838 -0.4090
   82SAPS  H18S 7690  -0.008   1.043   8.884  1.0746 -1.0848 -1.3049
   82SAPS  C219 7691  -0.036   0.902   9.036  0.0788 -0.6682  0.4133
   82SAPS  H19R 7692  -0.093   0.961   9.111  0.7848  0.1947  0.2801
   82SAPS  H19S 7693   0.026   0.837   9.101 -0.1250  0.1119  1.3960
   82SAPS  C220 7694  -0.129   0.810   8.957  0.0490  0.7733  0.3442
   82SAPS  H20R 7695  -0.180   0.860   8.871 -0.7225 -2.6285 -1.2527
   82SAPS  H20S 7696  -0.200   0.765   9.030  0.6172 -1.6215 -0.5414
   82SAPS  H20T 7697  -0.080   0.719   8.917  1.1190  2.4287 -2.2420
   82SAPS   C33 7698   0.862   1.451   9.947  0.2257  0.1542 -0.0119
   82SAPS   H3X 7699   0.972   1.447   9.931  0.5736 -1.4909  2.5611
   82SAPS   H3Y 7700   0.837   1.545  10.000  0.8255  0.5404 -0.4104
   82SAPS   C34 7701   0.804   1.437   9.810 -0.2700 -0.5352 -0.0274
   82SAPS   H4X 7702   0.692   1.435   9.812 -0.2619  0.0647  1.6005
   82SAPS   H4Y 7703   0.831   1.333   9.782  0.8290 -0.9112  2.2968
   82SAPS   C35 7704   0.861   1.544   9.708 -0.0878  0.6909 -0.6814
   82SAPS   H5X 7705   0.969   1.554   9.732 -0.2695 -0.8479  0.8597
   82SAPS   H5Y 7706   0.815   1.644   9.720  0.3509  0.9959 -1.4446
   82SAPS   C36 7707   0.865   1.509   9.563 -0.2691 -0.0565  0.4060
   82SAPS   H6X 7708   0.881   1.400   9.548 -1.3028 -0.5605  2.6716
   82SAPS   H6Y 7709   0.946   1.562   9.510 -1.2373 -0.3337 -1.4031
   82SAPS   C37 7710   0.734   1.549   9.488 -0.2104 -0.2114  0.0345
   82SAPS   H7X 7711   0.728   1.657   9.462 -2.8213 -0.3750 -0.2318
   82SAPS   H7Y 7712   0.647   1.526   9.553  0.4326  0.1762  1.0456
   82SAPS   C38 7713   0.717   1.479   9.349  0.1950  0.4525  0.0280
   82SAPS   H8X 7714   0.712   1.371   9.375  0.4064 -0.4281 -3.3405
   82SAPS   H8Y 7715   0.804   1.487   9.280  1.5045 -1.8743  1.3601
   82SAPS   C39 7716   0.585   1.517   9.275  0.0919 -0.3815 -0.8520
   82SAPS   H9X 7717   0.586   1.615   9.223  2.3487 -0.4309 -0.9519
   82SAPS   H9Y 7718   0.507   1.522   9.353  1.3946  0.7796  0.4114
   82SAPS  C310 7719   0.549   1.422   9.164  0.1037 -0.0857  0.1992
   82SAPS  H10X 7720   0.443   1.427   9.132  1.0599  0.2187 -3.1265
   82SAPS  H10Y 7721   0.563   1.317   9.197 -3.0295  0.0324  2.0433
   82SAPS  C311 7722   0.640   1.436   9.039 -0.2933 -0.3432  0.0958
   82SAPS  H11X 7723   0.744   1.421   9.074 -0.8552  0.9142  2.4304
   82SAPS  H11Y 7724   0.629   1.539   8.999 -1.6246 -0.7237 -0.5775
   82SAPS  C312 7725   0.593   1.349   8.924  0.1774  0.0492 -0.1245
   82SAPS  H12X 7726   0.658   1.366   8.835 -1.6601  1.1557 -1.2979
   82SAPS  H12Y 7727   0.492   1.388   8.899 -0.2799 -1.0785 -0.0392
   82SAPS  C313 7728   0.589   1.202   8.960 -0.0220 -0.2171  0.0560
   82SAPS  H13X 7729   0.535   1.184   9.056 -0.8192 -0.7924 -0.4968
   82SAPS  H13Y 7730   0.693   1.164   8.970  0.1879 -0.1481 -1.7942
   82SAPS  C314 7731   0.526   1.121   8.848 -0.4791  0.2126  0.1737
   82SAPS  H14X 7732   0.581   1.144   8.754  3.4518 -1.7067  1.8971
   82SAPS  H14Y 7733   0.419   1.149   8.838 -0.6010 -0.5929 -0.8670
   82SAPS  C315 7734   0.538   0.962   8.854  0.4995 -0.3403  0.1134
   82SAPS  H15X 7735   0.455   0.928   8.920  0.4246 -1.4394 -0.5403
   82SAPS  H15Y 7736   0.637   0.939   8.899  0.7123  2.6374  1.2837
   82SAPS  C316 7737   0.518   0.880   8.722 -1.1645 -0.2520  0.2530
   82SAPS  H16X 7738   0.582   0.930   8.647  3.2268 -0.3253  3.6947
   82SAPS  H16Y 7739   0.418   0.889   8.674 -0.8815  0.7662 -0.1442
   82SAPS  C317 7740   0.566   0.730   8.724  0.1837  0.0779  0.4002
   82SAPS  H17X 7741   0.560   0.689   8.621 -1.5794  3.5028 -0.9413
   82SAPS  H17Y 7742   0.494   0.682   8.794 -1.4867  1.8452 -0.0583
   82SAPS  C318 7743   0.713   0.719   8.773  0.1026  0.0645  0.8430
   82SAPS  H18X 7744   0.769   0.791   8.709 -0.1093 -0.5326 -0.0203
   82SAPS  H18Y 7745   0.768   0.625   8.753  1.0897  0.4756  1.5712
   82SAPS  H18Z 7746   0.729   0.745   8.880  0.8776  3.3589 -0.0083
   83SAPS     N 7747   2.902   2.768  11.177 -0.4656  0.5632  0.0438
   83SAPS   HN1 7748   2.926   2.778  11.277  1.2909  2.6720 -0.5380
   83SAPS   HN2 7749   2.854   2.676  11.173 -0.1078  0.4020 -0.4740
   83SAPS   HN3 7750   2.987   2.767  11.117  0.0359 -2.3367  0.7491
   83SAPS   C12 7751   2.804   2.865  11.141 -0.0012 -0.9845 -0.3565
   83SAPS  H12A 7752   2.726   2.812  11.089 -2.5473  3.2250 -1.0722
   83SAPS   C13 7753   2.744   2.920  11.269 -0.2550 -0.3679  0.2622
   83SAPS  O13A 7754   2.808   2.905  11.379 -0.1024  0.1496  0.2498
   83SAPS  O13B 7755   2.635   2.983  11.266  0.5514 -0.9538  0.0935
   83SAPS   C11 7756   2.868   2.982  11.062 -0.2346  0.3705  0.1237
   83SAPS  H11A 7757   2.797   3.063  11.037 -0.7694 -0.0338  0.3325
   83SAPS  H11B 7758   2.899   2.947  10.961 -1.3604  1.2910 -0.5463
   83SAPS     P 7759   3.131   3.028  11.116 -0.3798  0.3447 -0.0192
   83SAPS   O13 7760   3.203   3.127  11.190  0.5398 -0.5977  0.1317
   83SAPS   O14 7761   3.163   2.885  11.142 -0.2625  1.0698 -0.5283
   83SAPS   O12 7762   2.976   3.048  11.136 -0.3132 -0.3252  0.0839
   83SAPS   O11 7763   3.144   3.054  10.960 -0.0604 -0.2774 -0.2501
   83SAPS    C1 7764   3.208   3.177  10.917 -0.2007 -0.0553  0.0428
   83SAPS    HA 7765   3.303   3.195  10.972  0.5176  0.2474 -1.2827
   83SAPS    HB 7766   3.241   3.157  10.813  4.0818  0.9730  1.1151
   83SAPS    C2 7767   3.109   3.301  10.900  0.6215  0.5672 -0.6584
   83SAPS    HS 7768   3.064   3.314  11.001  1.0844 -0.7018 -0.2737
   83SAPS   O21 7769   3.016   3.265  10.804 -0.0045  0.3593  0.3256
   83SAPS   C21 7770   2.891   3.304  10.832  0.2630 -0.8495 -0.3884
   83SAPS   O22 7771   2.853   3.363  10.930  0.1021  0.2786 -0.4107
   83SAPS   C22 7772   2.813   3.232  10.727 -0.1716 -0.0301  0.0607
   83SAPS   H2R 7773   2.875   3.225  10.635  1.3633 -2.4423  1.2522
   83SAPS   H2S 7774   2.803   3.130  10.768  0.5284  0.4838  1.5331
   83SAPS    C3 7775   3.190   3.426  10.856  0.2199  0.0409 -0.4191
   83SAPS    HX 7776   3.249   3.454  10.945  0.1876  1.0810 -0.7213
   83SAPS    HY 7777   3.121   3.512  10.839  0.5194  0.9126  2.5626
   83SAPS   O31 7778   3.279   3.403  10.749  0.3054  0.2636  0.0404
   83SAPS   C31 7779   3.232   3.425  10.627 -0.6258 -0.5357  0.0908
   83SAPS   O32 7780   3.118   3.463  10.603  0.4860 -0.7473 -1.0970
   83SAPS   C32 7781   3.352   3.391  10.535  0.0653  0.2544  0.0997
   83SAPS   H2X 7782   3.410   3.305  10.576  2.0415  0.3017 -2.4429
   83SAPS   H2Y 7783   3.424   3.475  10.525  0.4651  0.0537  1.1305
   83SAPS   C23 7784   2.674   3.284  10.692  0.3580 -1.0571 -0.1942
   83SAPS   H3R 7785   2.669   3.394  10.681 -2.5969 -1.1469 -0.2332
   83SAPS   H3S 7786   2.602   3.266  10.775 -0.7102  4.7194  0.3370
   83SAPS   C24 7787   2.611   3.226  10.567 -0.0236 -0.4697  0.2522
   83SAPS   H4R 7788   2.586   3.118  10.567  1.3155 -0.7996 -0.7707
   83SAPS   H4S 7789   2.691   3.242  10.491  0.8965 -1.0792  1.0819
   83SAPS   C25 7790   2.489   3.306  10.521 -0.4098 -0.5531 -0.0287
   83SAPS   H5R 7791   2.420   3.336  10.602  1.4694  0.3321  1.2808
   83SAPS   C26 7792   2.444   3.348  10.402  0.4807 -0.5965 -0.3866
   83SAPS   H6R 7793   2.365   3.423  10.391  1.1730  0.2031 -0.0214
   83SAPS   C27 7794   2.510   3.316  10.271  0.7430  0.3818 -0.8410
   83SAPS   H7R 7795   2.573   3.224  10.268  0.8369  0.4800 -2.4384
   83SAPS   H7S 7796   2.578   3.398  10.241  0.2628  0.2875 -2.1992
   83SAPS   C28 7797   2.411   3.291  10.159  0.0359  0.5793 -0.9602
   83SAPS   H8R 7798   2.317   3.248  10.194  0.8866 -0.5201  0.0166
   83SAPS   C29 7799   2.424   3.312  10.030  0.0348 -0.4463  0.7982
   83SAPS   H9R 7800   2.345   3.286   9.958  0.8497 -1.0211  0.0934
   83SAPS  C210 7801   2.551   3.355   9.961  0.6150  0.1453 -0.6890
   83SAPS  H10R 7802   2.571   3.271   9.891 -0.3375 -0.4120 -0.3123
   83SAPS  H10S 7803   2.638   3.370  10.029  0.1301 -0.3104  0.0416
   83SAPS  C211 7804   2.539   3.469   9.873 -0.5735 -0.8737 -0.4550
   83SAPS  H11R 7805   2.488   3.558   9.914  1.2002  0.3976 -0.9484
   83SAPS  C212 7806   2.602   3.494   9.753 -0.6738 -0.0508 -0.1642
   83SAPS  H12R 7807   2.583   3.590   9.703 -0.9285 -0.5665 -1.0670
   83SAPS  C213 7808   2.692   3.406   9.672 -0.2453  0.3813  0.0979
   83SAPS  H13R 7809   2.771   3.354   9.731 -0.0936  0.8441  0.3029
   83SAPS  H13S 7810   2.749   3.473   9.604 -0.1950  1.6909  1.4235
   83SAPS  C214 7811   2.619   3.311   9.585  0.4929 -0.4600 -0.2997
   83SAPS  H14R 7812   2.579   3.224   9.639  0.2691 -0.3684 -0.3202
   83SAPS  C215 7813   2.595   3.326   9.452  0.4562 -0.0920  0.0554
   83SAPS  H15R 7814   2.528   3.254   9.405 -2.1244  2.0041  0.3773
   83SAPS  C216 7815   2.640   3.419   9.345  0.6381 -0.0182  0.2171
   83SAPS  H16R 7816   2.723   3.480   9.387  0.5076 -0.4226  1.0859
   83SAPS  H16S 7817   2.561   3.488   9.310  0.4417 -0.3347  0.0377
   83SAPS  C217 7818   2.687   3.329   9.229  0.3902  0.2952  0.4050
   83SAPS  H17R 7819   2.609   3.251   9.212  1.4789 -0.7184 -0.0588
   83SAPS  H17S 7820   2.785   3.280   9.244  1.2883  2.5094  2.0804
   83SAPS  C218 7821   2.695   3.405   9.091  0.1606 -1.1949 -0.4065
   83SAPS  H18R 7822   2.588   3.426   9.071 -0.3605  0.5432  3.6485
   83SAPS  H18S 7823   2.748   3.334   9.024  1.0866 -0.6816 -0.2256
   83SAPS  C219 7824   2.775   3.535   9.108 -0.0932 -0.7969  0.0977
   83SAPS  H19R 7825   2.882   3.507   9.118  0.2019 -0.1847 -1.2662
   83SAPS  H19S 7826   2.749   3.602   9.192 -0.5221 -0.6563 -0.1447
   83SAPS  C220 7827   2.760   3.620   8.979  0.1535 -0.7626  0.2257
   83SAPS  H20R 7828   2.654   3.641   8.955  0.7170 -0.8284 -2.5063
   83SAPS  H20S 7829   2.790   3.558   8.892 -0.3271  0.6562 -0.9753
   83SAPS  H20T 7830   2.812   3.717   8.995 -2.1217  0.6695 -0.7892
   83SAPS   C33 7831   3.306   3.355  10.393  0.6127  0.0126 -0.0133
   83SAPS   H3X 7832   3.394   3.341  10.326  0.3874 -0.1811 -0.2726
   83SAPS   H3Y 7833   3.247   3.440  10.353  0.7542  0.2640  0.3163
   83SAPS   C34 7834   3.228   3.220  10.393  0.1781 -0.7213 -0.1941
   83SAPS   H4X 7835   3.121   3.240  10.373  0.6499  1.1403 -0.9544
   83SAPS   H4Y 7836   3.232   3.168  10.491 -0.3938  1.3370  0.9241
   83SAPS   C35 7837   3.281   3.132  10.271 -0.4819  0.8701  0.6740
   83SAPS   H5X 7838   3.223   3.037  10.274  1.4530 -0.3460  0.8329
   83SAPS   H5Y 7839   3.388   3.104  10.286 -1.1279 -1.1427  1.7434
   83SAPS   C36 7840   3.243   3.199  10.137  0.0864 -0.0293  0.1820
   83SAPS   H6X 7841   3.306   3.289  10.122 -1.9820  0.9781 -2.9567
   83SAPS   H6Y 7842   3.136   3.231  10.139 -0.2403 -1.1446  1.6282
   83SAPS   C37 7843   3.280   3.110  10.018  0.2665  0.1451  0.4838
   83SAPS   H7X 7844   3.221   3.017  10.013 -0.8806  0.9782 -2.1127
   83SAPS   H7Y 7845   3.388   3.085  10.025  0.3261 -0.3370 -1.9199
   83SAPS   C38 7846   3.253   3.190   9.892  0.2208  0.4352 -0.2786
   83SAPS   H8X 7847   3.315   3.282   9.888  2.2629 -0.8742  0.8668
   83SAPS   H8Y 7848   3.145   3.217   9.895  0.5781  1.7575  2.8513
   83SAPS   C39 7849   3.274   3.106   9.763  0.4170  0.5661  0.0460
   83SAPS   H9X 7850   3.215   3.013   9.780  0.0523  0.4919 -1.5461
   83SAPS   H9Y 7851   3.380   3.070   9.763 -0.2169 -1.4308  1.8929
   83SAPS  C310 7852   3.244   3.168   9.626  0.3678 -0.3540 -0.6928
   83SAPS  H10X 7853   3.314   3.253   9.615 -0.5868  0.2923 -1.9885
   83SAPS  H10Y 7854   3.145   3.219   9.622 -0.3487 -1.6584 -0.0246
   83SAPS  C311 7855   3.262   3.067   9.510  0.0544  0.0428  0.0671
   83SAPS  H11X 7856   3.207   2.971   9.523  0.5907 -0.3641 -0.6228
   83SAPS  H11Y 7857   3.372   3.053   9.513  0.4173  2.4563 -0.8138
   83SAPS  C312 7858   3.232   3.131   9.371  0.6165  0.2689 -0.3840
   83SAPS  H12X 7859   3.300   3.219   9.367  2.0789 -0.8799 -1.3263
   83SAPS  H12Y 7860   3.127   3.168   9.369 -0.2870 -2.0255  1.7406
   83SAPS  C313 7861   3.264   3.028   9.256  0.4537  0.4427 -0.7591
   83SAPS  H13X 7862   3.193   2.943   9.259 -1.9765  2.4474  0.7514
   83SAPS  H13Y 7863   3.373   3.011   9.272  0.3080 -2.0948 -2.3207
   83SAPS  C314 7864   3.250   3.080   9.106  0.5242 -0.1534  0.4953
   83SAPS  H14X 7865   3.311   3.019   9.037  1.6096  0.5234  0.8401
   83SAPS  H14Y 7866   3.279   3.186   9.092 -1.8551  0.4298 -0.2051
   83SAPS  C315 7867   3.110   3.068   9.051 -0.2387 -0.1839 -0.4883
   83SAPS  H15X 7868   3.082   3.142   8.974 -0.6423 -1.0792 -1.2188
   83SAPS  H15Y 7869   3.031   3.086   9.128 -0.4033 -0.9598 -0.4626
   83SAPS  C316 7870   3.091   2.923   8.989  0.1691 -0.1194  0.2120
   83SAPS  H16X 7871   3.150   2.854   9.054  1.0432  0.0127 -0.4298
   83SAPS  H16Y 7872   3.121   2.914   8.883  0.8098  0.1088  0.3710
   83SAPS  C317 7873   2.937   2.888   9.001 -0.0363  0.5058 -0.2196
   83SAPS  H17X 7874   2.900   2.898   9.105  0.0798  1.8527 -0.2895
   83SAPS  H17Y 7875   2.944   2.778   8.995  0.7883  0.6412 -2.2704
   83SAPS  C318 7876   2.852   2.940   8.886 -0.1863 -0.5277  0.3977
   83SAPS  H18X 7877   2.766   2.874   8.859 -1.0231  0.1806  1.3159
   83SAPS  H18Y 7878   2.928   2.945   8.805 -1.4740  1.2429 -0.7230
   83SAPS  H18Z 7879   2.807   3.040   8.905  0.7237 -0.1459  0.5665
   84SAPS     N 7880   4.406   2.715  11.334  0.0898  0.9110  0.0440
   84SAPS   HN1 7881   4.366   2.643  11.270 -0.0036  0.4429  0.6267
   84SAPS   HN2 7882   4.446   2.663  11.415 -1.4120  1.4803  1.1613
   84SAPS   HN3 7883   4.335   2.787  11.357 -0.1674  0.9446 -0.8282
   84SAPS   C12 7884   4.514   2.784  11.264  0.0431  0.0777 -0.0426
   84SAPS  H12A 7885   4.470   2.880  11.243  1.8283  1.0927  0.7138
   84SAPS   C13 7886   4.650   2.805  11.330  0.8493  0.4589 -0.1427
   84SAPS  O13A 7887   4.683   2.750  11.437 -0.5757  0.3855  0.2520
   84SAPS  O13B 7888   4.723   2.893  11.274 -0.1119 -0.2735  0.6805
   84SAPS   C11 7889   4.525   2.706  11.126  0.0841  0.9794 -0.2505
   84SAPS  H11A 7890   4.555   2.604  11.156  0.1408  0.9331 -0.4670
   84SAPS  H11B 7891   4.608   2.754  11.070  1.2771  0.2306  0.8622
   84SAPS     P 7892   4.355   2.821  10.970 -0.3383  0.0533  0.2134
   84SAPS   O13 7893   4.211   2.848  10.986 -0.3610 -0.3614 -0.2280
   84SAPS   O14 7894   4.449   2.933  10.990 -0.3131  0.5360  0.1429
   84SAPS   O12 7895   4.397   2.706  11.063  0.1162 -0.5980  0.5471
   84SAPS   O11 7896   4.385   2.772  10.828 -0.3307  0.0538 -0.2889
   84SAPS    C1 7897   4.371   2.845  10.705  0.1570  0.5373 -0.4395
   84SAPS    HA 7898   4.322   2.940  10.734  0.6938  1.0559 -1.1826
   84SAPS    HB 7899   4.470   2.860  10.657  0.2077  3.0989  0.4229
   84SAPS    C2 7900   4.279   2.768  10.606 -0.9275  0.8859  0.2514
   84SAPS    HS 7901   4.195   2.728  10.666 -0.3227  1.0115  1.1935
   84SAPS   O21 7902   4.367   2.673  10.539 -0.4866 -0.5650  0.0458
   84SAPS   C21 7903   4.309   2.554  10.526 -0.0523 -0.1309 -0.1674
   84SAPS   O22 7904   4.194   2.535  10.546  0.6738  0.1476  0.7464
   84SAPS   C22 7905   4.411   2.446  10.489  0.0235  0.6393 -0.2005
   84SAPS   H2R 7906   4.471   2.419  10.578 -1.6765 -1.2946  0.3737
   84SAPS   H2S 7907   4.364   2.350  10.460 -2.8530  1.9456 -0.0875
   84SAPS    C3 7908   4.223   2.872  10.507 -0.1011 -0.5854 -0.2773
   84SAPS    HX 7909   4.308   2.910  10.446  0.8490  0.4849  1.6951
   84SAPS    HY 7910   4.184   2.962  10.558  0.7626  0.7715 -1.9318
   84SAPS   O31 7911   4.130   2.824  10.418  0.2632 -0.1129  0.5304
   84SAPS   C31 7912   4.011   2.785  10.462  0.1671 -0.0121 -0.0698
   84SAPS   O32 7913   3.970   2.784  10.575 -0.1835 -0.0554 -0.3313
   84SAPS   C32 7914   3.915   2.751  10.344  0.4670 -0.1680  0.3153
   84SAPS   H2X 7915   3.835   2.827  10.357  0.5741 -0.2273  1.3711
   84SAPS   H2Y 7916   3.882   2.646  10.360  2.1719 -0.5074  1.7210
   84SAPS   C23 7917   4.517   2.493  10.392 -0.2321  0.2725  0.1952
   84SAPS   H3R 7918   4.593   2.415  10.371 -1.2736 -0.7850  0.2764
   84SAPS   H3S 7919   4.570   2.577  10.442 -0.5060  0.8270 -0.4436
   84SAPS   C24 7920   4.459   2.533  10.255  0.3310 -0.6689 -0.4001
   84SAPS   H4R 7921   4.541   2.575  10.193 -1.9217  2.4743 -1.3800
   84SAPS   H4S 7922   4.382   2.614  10.255  0.8330 -0.1869 -0.5513
   84SAPS   C25 7923   4.406   2.412  10.185  0.2453  0.6063 -0.4731
   84SAPS   H5R 7924   4.433   2.319  10.238  0.8531  1.1064  0.1115
   84SAPS   C26 7925   4.357   2.400  10.061  0.2961  0.5526 -0.2821
   84SAPS   H6R 7926   4.333   2.301  10.020  0.4910  0.3507  0.0829
   84SAPS   C27 7927   4.331   2.517   9.965 -0.2126  0.1755 -0.3955
   84SAPS   H7R 7928   4.368   2.614  10.006  0.4249  0.0530 -0.6677
   84SAPS   H7S 7929   4.221   2.527   9.950 -0.1703  0.6471 -0.3945
   84SAPS   C28 7930   4.399   2.492   9.839 -0.2059  0.3178  0.1849
   84SAPS   H8R 7931   4.479   2.416   9.841  0.5817  1.1576  0.8422
   84SAPS   C29 7932   4.373   2.560   9.726 -0.3591 -0.2453 -0.2624
   84SAPS   H9R 7933   4.430   2.545   9.633 -0.6142  0.6945 -0.5682
   84SAPS  C210 7934   4.275   2.673   9.714 -0.1146  0.9299 -0.1825
   84SAPS  H10R 7935   4.294   2.740   9.801  3.1517 -1.1662  0.7917
   84SAPS  H10S 7936   4.172   2.632   9.722 -0.8788  2.3762 -2.1244
   84SAPS  C211 7937   4.278   2.765   9.595 -0.0499  0.7469  0.7468
   84SAPS  H11R 7938   4.264   2.869   9.629 -0.4984  0.4168  1.6089
   84SAPS  C212 7939   4.276   2.733   9.461  0.3224  0.1044 -0.6638
   84SAPS  H12R 7940   4.280   2.815   9.388  3.0229  0.1338 -0.5642
   84SAPS  C213 7941   4.276   2.584   9.414  0.9987 -0.5836  0.3241
   84SAPS  H13R 7942   4.188   2.571   9.348  0.2273  0.3092  1.1606
   84SAPS  H13S 7943   4.245   2.514   9.494  2.1550 -0.7144  0.6688
   84SAPS  C214 7944   4.397   2.532   9.341  0.4318 -0.0301 -1.1509
   84SAPS  H14R 7945   4.464   2.472   9.404 -0.4335 -1.7776 -1.8818
   84SAPS  C215 7946   4.414   2.547   9.207  0.2493 -0.1657  0.0887
   84SAPS  H15R 7947   4.503   2.501   9.161 -1.5861 -2.7865 -0.9330
   84SAPS  C216 7948   4.308   2.614   9.116  0.0664  0.7123 -0.3376
   84SAPS  H16R 7949   4.361   2.680   9.046  2.9002 -1.6672 -0.5329
   84SAPS  H16S 7950   4.225   2.662   9.173  0.3417 -2.2247  2.7693
   84SAPS  C217 7951   4.249   2.513   9.019 -0.1907 -0.6828  0.6180
   84SAPS  H17R 7952   4.194   2.435   9.076  0.3387 -0.8204  0.9455
   84SAPS  H17S 7953   4.320   2.464   8.950  0.6990  1.1263  0.2025
   84SAPS  C218 7954   4.152   2.587   8.917  0.6234  0.1709  0.2567
   84SAPS  H18R 7955   4.218   2.653   8.856 -0.4948 -0.4658 -1.7082
   84SAPS  H18S 7956   4.073   2.644   8.968 -0.7517 -2.5987  1.3304
   84SAPS  C219 7957   4.082   2.490   8.820 -0.1675  0.0069  0.2195
   84SAPS  H19R 7958   4.039   2.409   8.883 -1.7583 -0.1262 -1.0029
   84SAPS  H19S 7959   4.156   2.455   8.744  0.4007  2.1963 -0.2617
   84SAPS  C220 7960   3.969   2.553   8.745  0.3746  0.4306  0.1292
   84SAPS  H20R 7961   3.913   2.473   8.691  1.6010  0.6668 -1.5287
   84SAPS  H20S 7962   4.006   2.616   8.661 -0.2369  0.2962 -0.2476
   84SAPS  H20T 7963   3.902   2.620   8.804  0.8023 -0.2429  1.3882
   84SAPS   C33 7964   3.970   2.772  10.205  0.0731 -0.3167  0.2210
   84SAPS   H3X 7965   4.065   2.716  10.196  0.8414  0.7890  1.3341
   84SAPS   H3Y 7966   3.994   2.879  10.193 -5.8482  0.9102 -2.6730
   84SAPS   C34 7967   3.878   2.730  10.090  0.1293 -0.7301  0.1437
   84SAPS   H4X 7968   3.915   2.781   9.998  1.2199 -0.1136  0.9230
   84SAPS   H4Y 7969   3.780   2.780  10.103  0.6785 -0.0122  1.5575
   84SAPS   C35 7970   3.857   2.573  10.066 -0.1673  0.6306  0.2141
   84SAPS   H5X 7971   3.786   2.535  10.143  0.4629  0.7793  0.8766
   84SAPS   H5Y 7972   3.957   2.526  10.077  0.6993  1.8154 -2.3858
   84SAPS   C36 7973   3.793   2.531   9.930  0.7902 -0.6429 -0.9836
   84SAPS   H6X 7974   3.692   2.575   9.912  1.5460  2.2440  1.4451
   84SAPS   H6Y 7975   3.787   2.421   9.937 -0.0081 -0.5884 -0.6383
   84SAPS   C37 7976   3.893   2.566   9.825  0.0690 -0.2240  0.4239
   84SAPS   H7X 7977   3.991   2.518   9.849  0.7339  1.6005  1.4069
   84SAPS   H7Y 7978   3.903   2.675   9.808 -0.1354 -0.5882 -2.3738
   84SAPS   C38 7979   3.842   2.516   9.690  0.3403  0.4914 -0.3756
   84SAPS   H8X 7980   3.736   2.541   9.669  0.9449  2.6865 -0.9333
   84SAPS   H8Y 7981   3.845   2.406   9.707  1.0624  0.6980  0.8889
   84SAPS   C39 7982   3.934   2.554   9.569 -0.7018 -0.8592  0.3799
   84SAPS   H9X 7983   4.027   2.494   9.569  1.1283  1.8766  0.2674
   84SAPS   H9Y 7984   3.951   2.663   9.581  0.7539 -1.1922  1.4898
   84SAPS  C310 7985   3.857   2.526   9.439  1.0123  0.1783 -0.3911
   84SAPS  H10X 7986   3.749   2.544   9.457  0.5116 -1.2387 -1.8997
   84SAPS  H10Y 7987   3.867   2.421   9.404  1.5673  0.3784 -0.8407
   84SAPS  C311 7988   3.905   2.604   9.314 -0.2771 -0.1139  0.4021
   84SAPS  H11X 7989   4.004   2.566   9.281 -1.4068  0.6857 -4.2592
   84SAPS  H11Y 7990   3.900   2.713   9.334 -0.1650 -0.2953  1.4343
   84SAPS  C312 7991   3.822   2.579   9.190 -0.1974 -0.0741 -0.3769
   84SAPS  H12X 7992   3.846   2.648   9.107 -0.4137  2.2955  1.4831
   84SAPS  H12Y 7993   3.718   2.604   9.221  0.1214  0.8869 -0.0692
   84SAPS  C313 7994   3.823   2.438   9.134  0.9116  0.1715  0.1339
   84SAPS  H13X 7995   3.787   2.362   9.206 -0.1579  0.3014 -0.2586
   84SAPS  H13Y 7996   3.926   2.404   9.109 -0.0148 -1.6427 -1.3460
   84SAPS  C314 7997   3.730   2.427   9.010 -0.2096 -0.3259 -0.2874
   84SAPS  H14X 7998   3.752   2.525   8.961 -0.8020 -0.1702 -0.2382
   84SAPS  H14Y 7999   3.623   2.431   9.036 -0.2430  0.1238 -0.4720
   84SAPS  C315 8000   3.738   2.299   8.926 -0.1730 -0.4169 -0.6231
   84SAPS  H15X 8001   3.713   2.210   8.987  1.1732 -0.2832  0.1396
   84SAPS  H15Y 8002   3.845   2.298   8.895  0.0080  1.1123 -0.0964
   84SAPS  C316 8003   3.661   2.305   8.797 -0.2725  0.0100 -0.1357
   84SAPS  H16X 8004   3.689   2.394   8.737  0.0550 -2.0638 -3.1598
   84SAPS  H16Y 8005   3.556   2.338   8.813 -0.2002  0.3399 -0.3346
   84SAPS  C317 8006   3.666   2.181   8.711  0.0865 -0.3058  0.7965
   84SAPS  H17X 8007   3.599   2.206   8.626  0.6015 -0.8054  0.2320
   84SAPS  H17Y 8008   3.619   2.091   8.757 -1.0709  0.9290  2.0836
   84SAPS  C318 8009   3.805   2.135   8.672  0.0708 -0.4844  0.0745
   84SAPS  H18X 8010   3.872   2.100   8.754  0.9529 -0.1563 -0.4888
   84SAPS  H18Y 8011   3.861   2.221   8.629  1.0415 -0.5685  1.1378
   84SAPS  H18Z 8012   3.788   2.057   8.596 -0.1230  0.0170 -0.3980
   85SAPS     N 8013   0.738   4.939  10.753  0.3275 -0.8304 -0.3999
   85SAPS   HN1 8014   0.824   4.989  10.724 -0.4586 -0.7460 -2.7135
   85SAPS   HN2 8015   0.755   4.841  10.722  2.7172 -0.3604 -0.6760
   85SAPS   HN3 8016   0.655   4.981  10.706 -0.4606 -0.0103  1.6630
   85SAPS   C12 8017   0.734   4.953  10.905  0.5819  0.7864  0.2960
   85SAPS  H12A 8018   0.739   5.057  10.934 -0.5275  0.2424  2.5433
   85SAPS   C13 8019   0.601   4.904  10.964 -0.1104 -0.1054 -0.2040
   85SAPS  O13A 8020   0.507   4.886  10.880 -0.4666  0.4330 -0.0407
   85SAPS  O13B 8021   0.579   4.917  11.090  0.4183 -0.2271  0.1804
   85SAPS   C11 8022   0.851   4.864  10.959  0.3713 -0.4387  0.9734
   85SAPS  H11A 8023   0.845   4.758  10.926 -2.1329 -0.0890  0.1904
   85SAPS  H11B 8024   0.831   4.872  11.068 -0.2541  0.7832  0.7811
   85SAPS     P 8025   1.114   4.860  10.975 -0.3759  0.4866 -0.2019
   85SAPS   O13 8026   1.228   4.934  10.919 -0.4052  0.7779 -0.0764
   85SAPS   O14 8027   1.099   4.854  11.121  0.0225  0.1434  0.4530
   85SAPS   O12 8028   0.974   4.924  10.923  0.4700  0.3755  0.5697
   85SAPS   O11 8029   1.111   4.715  10.916  0.1131 -0.3978  0.2440
   85SAPS    C1 8030   1.057   4.691  10.785 -0.0529  0.2149 -0.1586
   85SAPS    HA 8031   1.010   4.591  10.794  0.8211 -0.4490 -2.7464
   85SAPS    HB 8032   0.975   4.759  10.753 -1.2447 -1.2496 -0.2128
   85SAPS    C2 8033   1.171   4.672  10.678  0.2532  0.2878  0.5377
   85SAPS    HS 8034   1.261   4.618  10.713  1.4649  1.6314 -0.4229
   85SAPS   O21 8035   1.202   4.802  10.626 -0.4554 -0.1602  0.1033
   85SAPS   C21 8036   1.324   4.838  10.620  0.6805 -0.4588  0.3825
   85SAPS   O22 8037   1.421   4.771  10.647  0.5186 -0.5329 -0.5576
   85SAPS   C22 8038   1.336   4.982  10.568  0.5080  0.6264 -0.5712
   85SAPS   H2R 8039   1.241   5.037  10.588  0.8797  2.3507 -3.2686
   85SAPS   H2S 8040   1.416   5.030  10.628  0.5432 -0.4590  0.2749
   85SAPS    C3 8041   1.127   4.575  10.562  0.3028 -0.3416 -0.8338
   85SAPS    HX 8042   1.028   4.619  10.536 -0.3315 -0.2707  1.6028
   85SAPS    HY 8043   1.121   4.472  10.603  2.3453 -0.3597 -0.5233
   85SAPS   O31 8044   1.218   4.577  10.451  0.4566  0.2553 -0.0221
   85SAPS   C31 8045   1.311   4.482  10.431 -0.4392 -0.5708  0.0519
   85SAPS   O32 8046   1.326   4.383  10.494  0.4344  0.0892  0.0291
   85SAPS   C32 8047   1.415   4.525  10.325  0.2636  1.0026 -0.1654
   85SAPS   H2X 8048   1.437   4.633  10.339 -1.3509  1.1269  1.7292
   85SAPS   H2Y 8049   1.360   4.520  10.229  0.9494 -2.3058 -0.4529
   85SAPS   C23 8050   1.365   4.977  10.417 -0.1898  0.7669 -0.0461
   85SAPS   H3R 8051   1.445   4.903  10.395  0.8347  2.1413 -1.0895
   85SAPS   H3S 8052   1.424   5.071  10.405  0.2882  0.8807  2.9570
   85SAPS   C24 8053   1.245   4.948  10.330  0.3381  0.2101  0.3345
   85SAPS   H4R 8054   1.149   4.974  10.379 -0.1189  0.2920 -0.5906
   85SAPS   H4S 8055   1.240   4.837  10.322  0.0623  0.2720 -0.3483
   85SAPS   C25 8056   1.257   5.005  10.194  0.0333  0.6338 -0.1967
   85SAPS   H5R 8057   1.273   5.113  10.199 -1.1373  0.7508  1.4152
   85SAPS   C26 8058   1.259   4.940  10.077 -0.0205  0.1477 -0.5514
   85SAPS   H6R 8059   1.269   5.004   9.989 -1.7408  2.6045  0.9939
   85SAPS   C27 8060   1.231   4.798  10.057  0.0014 -0.6943  0.8764
   85SAPS   H7R 8061   1.134   4.779  10.006 -0.9210  1.0147  1.9712
   85SAPS   H7S 8062   1.221   4.739  10.150  0.3812 -0.4749  1.0554
   85SAPS   C28 8063   1.334   4.726   9.976  0.1345  0.0694 -0.2522
   85SAPS   H8R 8064   1.396   4.654  10.032 -0.5619 -1.0251 -0.8639
   85SAPS   C29 8065   1.352   4.727   9.841 -0.1516 -0.2087  0.9328
   85SAPS   H9R 8066   1.440   4.675   9.802 -0.0603  0.5916  0.0613
   85SAPS  C210 8067   1.275   4.804   9.736 -0.1312  0.4536 -0.2092
   85SAPS  H10R 8068   1.352   4.856   9.675 -1.4524  1.3349 -1.1305
   85SAPS  H10S 8069   1.216   4.888   9.777 -0.8149 -0.1113 -0.0188
   85SAPS  C211 8070   1.191   4.714   9.652  0.5731 -0.5476  0.4257
   85SAPS  H11R 8071   1.126   4.633   9.689  1.2438 -0.7500  1.1863
   85SAPS  C212 8072   1.182   4.718   9.518  0.3866 -0.3698 -0.2996
   85SAPS  H12R 8073   1.100   4.655   9.482 -0.5061  0.8091 -0.3667
   85SAPS  C213 8074   1.255   4.797   9.408 -0.4311 -0.1415 -0.5122
   85SAPS  H13R 8075   1.362   4.771   9.395 -0.4480 -0.3303 -0.2764
   85SAPS  H13S 8076   1.257   4.906   9.430  2.2314  0.0370 -1.3783
   85SAPS  C214 8077   1.193   4.769   9.276  0.6632  0.1088  0.8115
   85SAPS  H14R 8078   1.195   4.669   9.231 -0.7707 -0.1521  1.2993
   85SAPS  C215 8079   1.125   4.856   9.197 -0.3900  0.1705 -0.5031
   85SAPS  H15R 8080   1.109   4.820   9.094  0.6514 -0.2851 -0.5146
   85SAPS  C216 8081   1.094   5.001   9.223 -0.3478 -0.8993 -0.0750
   85SAPS  H16R 8082   1.090   5.007   9.334 -2.7809  1.7382 -0.2551
   85SAPS  H16S 8083   0.990   5.031   9.198 -0.8295 -1.2318  1.4601
   85SAPS  C217 8084   1.202   5.100   9.167 -0.5845  0.7493  0.1416
   85SAPS  H17R 8085   1.149   5.198   9.169  1.0221  1.6333 -0.4356
   85SAPS  H17S 8086   1.231   5.070   9.064 -3.5857 -0.8929 -0.3047
   85SAPS  C218 8087   1.338   5.121   9.237 -0.1987 -0.2802 -0.6531
   85SAPS  H18R 8088   1.320   5.145   9.344 -1.9478 -0.5565 -0.8697
   85SAPS  H18S 8089   1.376   5.213   9.187 -1.9093  0.1265 -1.2465
   85SAPS  C219 8090   1.451   5.014   9.223  0.7622 -0.1304  0.0385
   85SAPS  H19R 8091   1.403   4.916   9.201 -0.5308  0.1552  1.5381
   85SAPS  H19S 8092   1.500   5.022   9.323  0.3815 -0.1701  0.2263
   85SAPS  C220 8093   1.556   5.042   9.117 -0.1095  0.3966  0.2239
   85SAPS  H20R 8094   1.613   4.948   9.103 -3.8309 -1.7853 -1.0976
   85SAPS  H20S 8095   1.630   5.121   9.141  0.2834  0.3979 -0.9702
   85SAPS  H20T 8096   1.503   5.058   9.021  1.8391 -1.4793 -1.2208
   85SAPS   C33 8097   1.543   4.447  10.334  0.3418 -0.4307 -0.2594
   85SAPS   H3X 8098   1.584   4.456  10.437 -0.3933  3.3253 -0.2530
   85SAPS   H3Y 8099   1.621   4.505  10.280  0.5758 -0.1272  0.4023
   85SAPS   C34 8100   1.541   4.300  10.284 -0.4110  0.5644 -0.2551
   85SAPS   H4X 8101   1.448   4.246  10.308  0.1771 -0.9166 -1.3081
   85SAPS   H4Y 8102   1.614   4.256  10.356 -0.9651  0.8028  0.4641
   85SAPS   C35 8103   1.592   4.281  10.141 -0.1356 -0.2616  0.5488
   85SAPS   H5X 8104   1.635   4.180  10.128  0.4173 -0.3354  2.6605
   85SAPS   H5Y 8105   1.673   4.353  10.115  0.3286 -1.5345 -1.5568
   85SAPS   C36 8106   1.471   4.312  10.047 -0.1110  0.2597  0.2889
   85SAPS   H6X 8107   1.445   4.420  10.042 -0.1168  0.2183 -0.7010
   85SAPS   H6Y 8108   1.390   4.249  10.089 -2.1237  2.5554 -0.0750
   85SAPS   C37 8109   1.513   4.270   9.900 -0.1380 -0.5753 -0.3151
   85SAPS   H7X 8110   1.487   4.167   9.871 -1.1103 -0.0684 -1.2462
   85SAPS   H7Y 8111   1.624   4.278   9.898 -0.3321  2.8151 -2.1440
   85SAPS   C38 8112   1.445   4.362   9.797 -0.4958  0.4516 -0.3473
   85SAPS   H8X 8113   1.484   4.465   9.812 -2.5016  1.3955 -1.4701
   85SAPS   H8Y 8114   1.335   4.364   9.792 -0.6124 -0.5390  1.4539
   85SAPS   C39 8115   1.479   4.319   9.646  0.7163 -0.1404  0.5849
   85SAPS   H9X 8116   1.437   4.222   9.613  1.9293  0.0652 -1.6347
   85SAPS   H9Y 8117   1.590   4.317   9.648  0.7078 -0.7783  0.5082
   85SAPS  C310 8118   1.412   4.408   9.538  0.1467  0.3740  0.3483
   85SAPS  H10X 8119   1.451   4.508   9.569  1.9095 -0.2916  0.3306
   85SAPS  H10Y 8120   1.301   4.403   9.538  0.1313  0.5326  1.4938
   85SAPS  C311 8121   1.455   4.376   9.393  0.0471 -0.1720 -0.1074
   85SAPS  H11X 8122   1.417   4.278   9.357  1.0006  0.1012 -1.9179
   85SAPS  H11Y 8123   1.565   4.377   9.382  0.1184  1.1343  0.5560
   85SAPS  C312 8124   1.405   4.495   9.302 -0.6451  0.2994  0.3843
   85SAPS  H12X 8125   1.461   4.588   9.322  0.5053  0.0166 -1.4532
   85SAPS  H12Y 8126   1.298   4.520   9.321 -0.4721  1.3955 -0.0579
   85SAPS  C313 8127   1.440   4.469   9.155  0.0165  0.6959 -0.1073
   85SAPS  H13X 8128   1.368   4.392   9.118  1.9373 -0.4561 -1.5414
   85SAPS  H13Y 8129   1.540   4.424   9.138 -1.0145 -1.4017 -0.8158
   85SAPS  C314 8130   1.431   4.591   9.067  0.1868  0.2652 -0.4981
   85SAPS  H14X 8131   1.494   4.673   9.108 -0.0369  0.3105 -0.2400
   85SAPS  H14Y 8132   1.325   4.624   9.074  0.6280  1.2600  2.2657
   85SAPS  C315 8133   1.475   4.559   8.922 -0.6660  0.2082  0.4088
   85SAPS  H15X 8134   1.393   4.497   8.880 -0.0335  0.7595 -1.7108
   85SAPS  H15Y 8135   1.571   4.504   8.926 -1.3693 -0.9712  1.4311
   85SAPS  C316 8136   1.500   4.688   8.833 -0.2297  0.4631  0.0357
   85SAPS  H16X 8137   1.609   4.709   8.827 -0.2555  0.7227  0.4677
   85SAPS  H16Y 8138   1.443   4.777   8.867 -0.0277  1.6108 -2.5106
   85SAPS  C317 8139   1.452   4.649   8.691 -0.3777 -0.3515  0.4085
   85SAPS  H17X 8140   1.345   4.630   8.715 -0.2464 -1.0409  0.4781
   85SAPS  H17Y 8141   1.487   4.545   8.675 -0.0602  0.1904 -2.6301
   85SAPS  C318 8142   1.450   4.750   8.574 -0.4703  0.0292  0.2026
   85SAPS  H18X 8143   1.372   4.826   8.594 -1.5414 -0.6855 -1.1582
   85SAPS  H18Y 8144   1.419   4.688   8.487 -0.5254  1.2826 -0.6694
   85SAPS  H18Z 8145   1.541   4.805   8.544 -0.2348 -0.9680 -0.9490
   86SAPS     N 8146   3.950   5.029  10.618 -0.1787 -0.3647 -0.0072
   86SAPS   HN1 8147   3.965   5.126  10.582 -0.6749 -0.6781 -1.0754
   86SAPS   HN2 8148   3.930   4.977  10.530 -2.2769 -1.0557  0.8521
   86SAPS   HN3 8149   3.868   5.040  10.681  0.2508  1.8940  0.2262
   86SAPS   C12 8150   4.066   4.980  10.693  0.1395  0.1275 -0.1357
   86SAPS  H12A 8151   4.064   4.874  10.676 -0.1530  0.3985 -1.9017
   86SAPS   C13 8152   4.213   5.033  10.657  0.1540  0.5650  0.6801
   86SAPS  O13A 8153   4.223   5.126  10.573  0.2998 -0.0162  0.6139
   86SAPS  O13B 8154   4.308   4.989  10.717 -0.6061  0.0075 -0.7374
   86SAPS   C11 8155   4.050   5.015  10.845  0.0708 -0.0672 -0.2087
   86SAPS  H11A 8156   4.049   5.126  10.859 -1.8279 -0.2060  0.9665
   86SAPS  H11B 8157   4.129   4.967  10.905  0.2466 -0.3104 -0.6397
   86SAPS     P 8158   3.908   4.834  10.980 -0.0164 -0.1056 -0.0426
   86SAPS   O13 8159   3.984   4.841  11.106 -0.5879 -0.0624  0.2703
   86SAPS   O14 8160   3.762   4.794  10.983 -0.2950  0.6125  0.5459
   86SAPS   O12 8161   3.924   4.971  10.903  0.0273  0.2887  0.0507
   86SAPS   O11 8162   3.997   4.736  10.895  0.0491  0.0843 -0.3423
   86SAPS    C1 8163   3.938   4.607  10.855 -0.1954 -0.0703 -0.6087
   86SAPS    HA 8164   4.012   4.526  10.874  0.4715  0.8606  0.8492
   86SAPS    HB 8165   3.851   4.578  10.919  1.6510 -0.0925  1.9980
   86SAPS    C2 8166   3.903   4.596  10.705 -0.1306 -0.7073  0.1925
   86SAPS    HS 8167   3.876   4.496  10.665  1.4803 -1.2268  0.3640
   86SAPS   O21 8168   4.004   4.655  10.619  0.1007  0.4402 -0.6668
   86SAPS   C21 8169   4.110   4.578  10.611  0.1316  0.5097  0.1043
   86SAPS   O22 8170   4.118   4.460  10.643 -0.1705  0.1889 -0.2039
   86SAPS   C22 8171   4.224   4.657  10.552  0.6770 -0.3463 -0.5409
   86SAPS   H2R 8172   4.227   4.760  10.593  0.1209 -0.8271  0.7202
   86SAPS   H2S 8173   4.321   4.609  10.580  1.0783  0.1970 -0.9766
   86SAPS    C3 8174   3.764   4.664  10.682 -0.1061 -0.3105  0.1615
   86SAPS    HX 8175   3.758   4.772  10.706  0.0281 -0.0827 -0.8221
   86SAPS    HY 8176   3.689   4.608  10.741  0.9853 -1.9796 -0.0071
   86SAPS   O31 8177   3.723   4.656  10.542 -0.2505 -0.0331 -0.7339
   86SAPS   C31 8178   3.775   4.732  10.452  0.1468  0.2053  0.1944
   86SAPS   O32 8179   3.855   4.824  10.465  0.4393 -0.4515 -0.1464
   86SAPS   C32 8180   3.710   4.697  10.312  0.3011 -0.8146  0.0067
   86SAPS   H2X 8181   3.605   4.731  10.325  1.2115  1.9427  0.2783
   86SAPS   H2Y 8182   3.717   4.587  10.295  0.1010 -1.1033  1.6995
   86SAPS   C23 8183   4.213   4.676  10.402 -0.1526 -0.4342  0.3082
   86SAPS   H3R 8184   4.297   4.742  10.372 -1.0799  0.6893  0.1506
   86SAPS   H3S 8185   4.116   4.718  10.366 -0.3061 -1.8920 -1.0626
   86SAPS   C24 8186   4.254   4.553  10.319  0.2542  0.5246 -0.4898
   86SAPS   H4R 8187   4.179   4.472  10.339  0.1491  1.5037  3.6311
   86SAPS   H4S 8188   4.343   4.508  10.368  0.3999  0.4818 -0.7977
   86SAPS   C25 8189   4.275   4.572  10.167  0.3613 -0.3485  0.3275
   86SAPS   H5R 8190   4.353   4.643  10.137  0.6667 -1.6534 -2.1228
   86SAPS   C26 8191   4.189   4.539  10.075  0.0291 -0.5822 -0.6791
   86SAPS   H6R 8192   4.218   4.547   9.970  0.5388 -1.7378 -0.6412
   86SAPS   C27 8193   4.061   4.461  10.097 -0.2452 -0.2614  0.5658
   86SAPS   H7R 8194   4.012   4.485  10.194 -1.5051 -0.0676 -0.1023
   86SAPS   H7S 8195   4.090   4.354  10.109 -1.5634 -0.8832 -1.4842
   86SAPS   C28 8196   3.972   4.466   9.974  0.1873 -0.3040  0.5140
   86SAPS   H8R 8197   3.899   4.547   9.989 -2.0332 -2.2169  0.2661
   86SAPS   C29 8198   3.976   4.394   9.859 -0.2943  0.9136 -0.2842
   86SAPS   H9R 8199   3.891   4.402   9.789 -0.0788 -1.9269 -0.9044
   86SAPS  C210 8200   4.079   4.296   9.819 -0.2149 -0.0334 -0.1764
   86SAPS  H10R 8201   4.058   4.201   9.872 -0.5180  0.9587  1.5286
   86SAPS  H10S 8202   4.177   4.317   9.868 -0.0847 -1.9274  0.4264
   86SAPS  C211 8203   4.095   4.274   9.671  0.0625  0.4289  1.0213
   86SAPS  H11R 8204   4.134   4.355   9.607 -0.4898 -0.4444 -0.4618
   86SAPS  C212 8205   4.050   4.158   9.615 -0.2307 -0.2171 -0.7649
   86SAPS  H12R 8206   4.048   4.149   9.506  1.3678 -2.4379 -0.6407
   86SAPS  C213 8207   3.992   4.036   9.680  0.2200  0.1280 -0.0359
   86SAPS  H13R 8208   4.039   4.014   9.778 -0.4491 -0.6268  0.1123
   86SAPS  H13S 8209   4.001   3.948   9.613 -0.8385  0.2044 -0.2831
   86SAPS  C214 8210   3.843   4.057   9.685  0.5137  1.0005  0.0295
   86SAPS  H14R 8211   3.813   4.130   9.762  1.8874  1.3397  0.2520
   86SAPS  C215 8212   3.741   4.023   9.597  0.0651  0.3097  0.0514
   86SAPS  H15R 8213   3.636   4.046   9.618  1.2361  5.1388  1.2733
   86SAPS  C216 8214   3.773   3.951   9.464  0.3758  0.8818 -0.1910
   86SAPS  H16R 8215   3.879   3.960   9.433  0.6279 -2.7830 -0.6277
   86SAPS  H16S 8216   3.716   3.998   9.381 -0.8776 -1.9670 -0.9956
   86SAPS  C217 8217   3.734   3.802   9.471 -0.7089 -0.0798  0.7932
   86SAPS  H17R 8218   3.629   3.798   9.507 -2.2238 -1.0891 -3.4517
   86SAPS  H17S 8219   3.803   3.749   9.540 -0.1218  0.2963  0.4991
   86SAPS  C218 8220   3.757   3.733   9.338 -0.1782 -0.4302 -0.2432
   86SAPS  H18R 8221   3.766   3.623   9.334  1.6017 -0.2648 -2.5310
   86SAPS  H18S 8222   3.856   3.765   9.298 -0.9393  0.4928 -1.4425
   86SAPS  C219 8223   3.655   3.765   9.231  0.7261 -0.6014  0.2522
   86SAPS  H19R 8224   3.637   3.875   9.231 -0.0086 -0.7195 -0.6915
   86SAPS  H19S 8225   3.561   3.717   9.264 -1.2176  1.2020 -2.4902
   86SAPS  C220 8226   3.683   3.717   9.089  0.8955  0.2069 -0.2985
   86SAPS  H20R 8227   3.599   3.707   9.016  0.1781  0.5827  0.4603
   86SAPS  H20S 8228   3.707   3.609   9.100 -3.9704 -0.8778  0.9709
   86SAPS  H20T 8229   3.768   3.775   9.049  0.1827  0.8159 -0.9582
   86SAPS   C33 8230   3.778   4.767  10.202  0.2036  0.3133 -0.4528
   86SAPS   H3X 8231   3.885   4.749  10.178  1.2716  2.2845  2.5513
   86SAPS   H3Y 8232   3.791   4.876  10.223  2.1850 -0.3204  1.8231
   86SAPS   C34 8233   3.698   4.749  10.070 -0.5902 -0.3473 -0.4992
   86SAPS   H4X 8234   3.593   4.782  10.058 -0.6811 -0.1806  0.7182
   86SAPS   H4Y 8235   3.701   4.639  10.054 -1.7314 -0.3683 -0.5982
   86SAPS   C35 8236   3.764   4.822   9.951 -0.3746 -0.0947 -0.1535
   86SAPS   H5X 8237   3.863   4.773   9.942  0.1574  1.3320 -2.3159
   86SAPS   H5Y 8238   3.790   4.929   9.968  0.0019 -0.3011  0.6125
   86SAPS   C36 8239   3.708   4.794   9.818 -0.2892  0.6137 -0.5214
   86SAPS   H6X 8240   3.757   4.859   9.743  0.5745  1.0437  0.4097
   86SAPS   H6Y 8241   3.604   4.831   9.809 -0.4508 -0.0299 -1.3714
   86SAPS   C37 8242   3.705   4.644   9.775 -0.1515  0.4003 -0.4452
   86SAPS   H7X 8243   3.644   4.592   9.852  0.8914 -0.1954 -0.0201
   86SAPS   H7Y 8244   3.813   4.618   9.775 -0.9153 -3.0093 -0.3623
   86SAPS   C38 8245   3.646   4.619   9.639  0.2654 -0.1800 -0.5709
   86SAPS   H8X 8246   3.665   4.707   9.574  0.7191  0.0419 -0.1357
   86SAPS   H8Y 8247   3.536   4.632   9.645  0.6388  3.0781 -0.1659
   86SAPS   C39 8248   3.672   4.483   9.575  0.1151  0.5647  0.6577
   86SAPS   H9X 8249   3.627   4.399   9.631  2.5210 -0.7711  0.6115
   86SAPS   H9Y 8250   3.780   4.460   9.581  0.2236  1.0481  0.6467
   86SAPS  C310 8251   3.589   4.486   9.446  0.4075 -0.4670  0.3905
   86SAPS  H10X 8252   3.631   4.571   9.389  0.2806  0.5905  1.8471
   86SAPS  H10Y 8253   3.482   4.503   9.470  0.1687 -3.0559  1.3650
   86SAPS  C311 8254   3.618   4.357   9.363 -0.2782 -0.1559  0.2073
   86SAPS  H11X 8255   3.570   4.268   9.409  0.2537 -1.0771 -0.9854
   86SAPS  H11Y 8256   3.727   4.336   9.351  0.0180  1.4645 -0.0457
   86SAPS  C312 8257   3.566   4.373   9.222  0.6878 -0.7671  0.0507
   86SAPS  H12X 8258   3.605   4.296   9.152  1.0714 -1.6120  1.1631
   86SAPS  H12Y 8259   3.599   4.474   9.192 -0.2370 -0.6585 -0.6198
   86SAPS  C313 8260   3.414   4.375   9.208 -0.3807  0.5901  0.2659
   86SAPS  H13X 8261   3.373   4.427   9.297 -0.8802  0.3321  0.1885
   86SAPS  H13Y 8262   3.389   4.267   9.213 -1.2126  0.8813  2.9360
   86SAPS  C314 8263   3.361   4.436   9.076  0.2242  0.0372 -0.8680
   86SAPS  H14X 8264   3.399   4.541   9.071  1.2945 -0.3611 -1.3401
   86SAPS  H14Y 8265   3.252   4.438   9.097  0.2981 -1.3073 -0.3033
   86SAPS  C315 8266   3.397   4.356   8.954 -0.7309  0.5239  0.1230
   86SAPS  H15X 8267   3.348   4.256   8.957  0.2018  0.0642  0.1404
   86SAPS  H15Y 8268   3.506   4.343   8.971 -0.3459  2.0685 -1.0063
   86SAPS  C316 8269   3.363   4.426   8.821  0.4555  0.9853  0.4248
   86SAPS  H16X 8270   3.448   4.495   8.799 -0.4488  3.5052  4.4240
   86SAPS  H16Y 8271   3.272   4.486   8.842 -0.6071 -0.7994  0.9862
   86SAPS  C317 8272   3.340   4.324   8.706 -0.3970  0.4821  0.5730
   86SAPS  H17X 8273   3.241   4.273   8.708 -0.2270  0.1676  1.1320
   86SAPS  H17Y 8274   3.414   4.241   8.720 -1.4615 -0.6793 -0.5260
   86SAPS  C318 8275   3.360   4.385   8.570 -0.3007 -0.2237 -0.6362
   86SAPS  H18X 8276   3.360   4.306   8.492 -0.8097  0.2129 -1.0840
   86SAPS  H18Y 8277   3.457   4.437   8.562  0.4507 -1.4944  0.1431
   86SAPS  H18Z 8278   3.277   4.459   8.559 -0.8546 -0.4765  1.6460
   87SAPS     N 8279   3.790   5.174  11.233  0.0171  0.2118  0.5917
   87SAPS   HN1 8280   3.742   5.256  11.276  1.8874  0.8985  1.4537
   87SAPS   HN2 8281   3.781   5.086  11.288  1.2444 -0.3251 -0.0427
   87SAPS   HN3 8282   3.893   5.191  11.223 -0.1132  1.3156  1.0546
   87SAPS   C12 8283   3.731   5.153  11.099 -0.3490 -0.1268  0.4490
   87SAPS  H12A 8284   3.777   5.064  11.060 -3.2043 -0.4878 -2.3418
   87SAPS   C13 8285   3.578   5.136  11.090 -0.0700 -0.1064 -0.0923
   87SAPS  O13A 8286   3.516   5.117  11.196 -0.0697  0.0405  0.0674
   87SAPS  O13B 8287   3.534   5.078  10.982  0.0263  0.7882 -0.1697
   87SAPS   C11 8288   3.762   5.277  11.004 -0.0008  0.0033  0.3914
   87SAPS  H11A 8289   3.733   5.238  10.904  3.9021 -3.1490  0.3319
   87SAPS  H11B 8290   3.873   5.287  11.007 -0.0465  0.2398  1.4986
   87SAPS     P 8291   3.717   5.528  10.950 -0.0152  0.5114  0.0505
   87SAPS   O13 8292   3.622   5.636  10.994 -0.2351 -0.2459 -0.4162
   87SAPS   O14 8293   3.861   5.561  10.956 -0.8202 -0.6863 -0.2551
   87SAPS   O12 8294   3.694   5.401  11.041 -0.8376  0.1349 -0.2096
   87SAPS   O11 8295   3.674   5.476  10.805  0.2545  0.6405  0.2670
   87SAPS    C1 8296   3.539   5.428  10.798 -0.4112 -0.2002 -0.7503
   87SAPS    HA 8297   3.552   5.318  10.803 -1.4250 -0.3416 -1.0212
   87SAPS    HB 8298   3.464   5.456  10.876  1.3168 -2.2882  1.7432
   87SAPS    C2 8299   3.476   5.473  10.663  0.0386  0.4992  0.1537
   87SAPS    HS 8300   3.368   5.452  10.663 -0.0896  1.1248  0.8305
   87SAPS   O21 8301   3.534   5.403  10.555  0.0517  0.2087  0.1560
   87SAPS   C21 8302   3.525   5.268  10.555 -0.3842 -0.5692 -0.9517
   87SAPS   O22 8303   3.451   5.203  10.629 -0.3342  0.4453 -0.0567
   87SAPS   C22 8304   3.618   5.205  10.445  0.5347 -0.3255 -0.2652
   87SAPS   H2R 8305   3.641   5.276  10.363  1.4956 -0.0501  0.2297
   87SAPS   H2S 8306   3.713   5.187  10.500  0.4279 -0.8492 -0.2452
   87SAPS    C3 8307   3.486   5.624  10.645  0.5847  0.7563 -0.2910
   87SAPS    HX 8308   3.591   5.658  10.631  0.5659 -0.2561 -3.3563
   87SAPS    HY 8309   3.433   5.668  10.732  0.8601  1.1371 -0.3140
   87SAPS   O31 8310   3.406   5.656  10.527  0.2981 -0.7296 -0.3752
   87SAPS   C31 8311   3.455   5.751  10.448  0.0731  0.1855 -0.1818
   87SAPS   O32 8312   3.542   5.837  10.474 -0.3909 -0.0639 -0.1881
   87SAPS   C32 8313   3.376   5.742  10.316  0.0506 -0.5910 -0.3301
   87SAPS   H2X 8314   3.373   5.849  10.286 -1.7068 -0.5631 -0.1159
   87SAPS   H2Y 8315   3.269   5.715  10.325  0.3193 -0.8992  2.2792
   87SAPS   C23 8316   3.556   5.077  10.387 -0.1105  0.5225 -0.1191
   87SAPS   H3R 8317   3.550   5.001  10.468 -0.0004  0.7872  0.1362
   87SAPS   H3S 8318   3.635   5.040  10.319 -0.4140  0.3215 -0.3676
   87SAPS   C24 8319   3.429   5.087  10.298  0.0484 -0.0396 -0.3128
   87SAPS   H4R 8320   3.344   5.118  10.364  1.4129  2.0782  0.5078
   87SAPS   H4S 8321   3.411   4.981  10.270  2.5773 -1.1832  2.1491
   87SAPS   C25 8322   3.433   5.179  10.181 -0.1179 -0.0048 -0.5497
   87SAPS   H5R 8323   3.425   5.287  10.198 -0.1058 -0.2908  1.3579
   87SAPS   C26 8324   3.434   5.134  10.053 -0.0542 -0.5822 -0.1014
   87SAPS   H6R 8325   3.449   5.205   9.970 -0.6855 -2.2846 -1.7176
   87SAPS   C27 8326   3.443   4.988  10.008  0.2736 -0.4698  0.3298
   87SAPS   H7R 8327   3.475   4.926  10.094 -0.9124 -0.9618  0.4321
   87SAPS   H7S 8328   3.519   4.981   9.928  0.0018 -1.7419  0.1856
   87SAPS   C28 8329   3.304   4.938   9.971  0.2284  0.4500  0.2578
   87SAPS   H8R 8330   3.233   4.930  10.055 -0.0293  2.6511  0.2785
   87SAPS   C29 8331   3.267   4.899   9.846 -0.2864  0.3004 -0.2085
   87SAPS   H9R 8332   3.175   4.840   9.835  0.1176  0.1237 -2.7713
   87SAPS  C210 8333   3.340   4.892   9.720  0.1053 -0.2382  0.4357
   87SAPS  H10R 8334   3.389   4.792   9.714  0.1147 -0.1661 -1.0954
   87SAPS  H10S 8335   3.409   4.979   9.718  0.0177 -0.1751 -0.0420
   87SAPS  C211 8336   3.261   4.896   9.592  0.4311 -0.8964  0.2186
   87SAPS  H11R 8337   3.152   4.884   9.593  0.2923 -0.4120 -2.9336
   87SAPS  C212 8338   3.310   4.930   9.474 -0.2359 -0.2997 -0.2698
   87SAPS  H12R 8339   3.237   4.928   9.391  1.2837  0.3185 -1.6478
   87SAPS  C213 8340   3.444   4.955   9.428  1.2208  0.0176 -0.8221
   87SAPS  H13R 8341   3.505   4.974   9.519  0.3381  1.3855 -0.5119
   87SAPS  H13S 8342   3.435   5.049   9.369  2.9060  2.3832  2.5101
   87SAPS  C214 8343   3.501   4.842   9.339 -1.0356  0.0908 -0.0445
   87SAPS  H14R 8344   3.452   4.744   9.342 -1.1213  0.1603  2.0817
   87SAPS  C215 8345   3.601   4.855   9.249 -0.2738  0.2852 -0.7315
   87SAPS  H15R 8346   3.637   4.765   9.197 -1.5170 -1.1473  0.8035
   87SAPS  C216 8347   3.668   4.986   9.215 -0.2716  0.4916 -0.6292
   87SAPS  H16R 8348   3.764   4.960   9.165  0.3101 -0.9706  1.1862
   87SAPS  H16S 8349   3.700   5.049   9.300 -1.0264  1.7706 -1.2733
   87SAPS  C217 8350   3.585   5.080   9.122 -0.1267  0.0211  0.5432
   87SAPS  H17R 8351   3.512   5.141   9.178 -0.8182 -0.3678  0.0753
   87SAPS  H17S 8352   3.531   5.009   9.056 -0.1820 -0.8065  1.4646
   87SAPS  C218 8353   3.681   5.164   9.034 -0.1559 -0.2073 -0.0272
   87SAPS  H18R 8354   3.626   5.219   8.955 -0.3938 -0.5161 -0.0771
   87SAPS  H18S 8355   3.730   5.084   8.975 -1.7564 -1.9683  0.9889
   87SAPS  C219 8356   3.777   5.258   9.103 -0.1338  0.0080  0.1112
   87SAPS  H19R 8357   3.841   5.189   9.164 -3.2548 -1.5894  1.6933
   87SAPS  H19S 8358   3.713   5.321   9.169  3.7165  2.6785  1.5037
   87SAPS  C220 8359   3.853   5.349   9.004  0.9293  0.3098 -0.3455
   87SAPS  H20R 8360   3.897   5.438   9.054 -1.8256  1.9120 -0.6801
   87SAPS  H20S 8361   3.797   5.385   8.916 -1.5637 -0.7746  0.7438
   87SAPS  H20T 8362   3.944   5.299   8.965  0.2198  0.2326 -1.9268
   87SAPS   C33 8363   3.440   5.650  10.208 -0.0848 -0.3930  0.1465
   87SAPS   H3X 8364   3.443   5.541  10.231 -0.5264 -0.3509  0.4145
   87SAPS   H3Y 8365   3.547   5.679  10.195 -0.3061  0.8927  1.0858
   87SAPS   C34 8366   3.372   5.674  10.069 -0.7545  0.1845 -0.0416
   87SAPS   H4X 8367   3.379   5.783  10.045 -1.2785  0.4170  0.8638
   87SAPS   H4Y 8368   3.262   5.663  10.074 -0.8292  1.2632  0.7409
   87SAPS   C35 8369   3.432   5.586   9.953 -0.2270 -0.3844 -0.0060
   87SAPS   H5X 8370   3.392   5.483   9.943  0.6667 -0.5660 -2.1781
   87SAPS   H5Y 8371   3.541   5.585   9.973  0.0249 -2.5117 -1.3227
   87SAPS   C36 8372   3.406   5.646   9.811 -0.3329  0.3406 -0.5159
   87SAPS   H6X 8373   3.453   5.746   9.803 -0.9109  0.8108  1.7811
   87SAPS   H6Y 8374   3.295   5.649   9.810 -0.3993 -1.5487 -0.9080
   87SAPS   C37 8375   3.473   5.564   9.700  0.0011  0.5708 -0.3075
   87SAPS   H7X 8376   3.450   5.457   9.717  0.6943 -0.1052 -3.2961
   87SAPS   H7Y 8377   3.584   5.567   9.704 -0.0580  1.1890  1.0316
   87SAPS   C38 8378   3.415   5.600   9.555 -0.5123  0.6928  0.3966
   87SAPS   H8X 8379   3.437   5.707   9.536  0.6217  0.4410  0.2828
   87SAPS   H8Y 8380   3.306   5.587   9.573 -1.1718 -0.1545 -3.6383
   87SAPS   C39 8381   3.443   5.498   9.446  0.8089  0.8169  0.6193
   87SAPS   H9X 8382   3.420   5.394   9.479 -1.6388  1.3099  0.4946
   87SAPS   H9Y 8383   3.553   5.487   9.431  0.6814  0.9864 -0.4622
   87SAPS  C310 8384   3.370   5.524   9.314  1.4754  0.8207  0.4612
   87SAPS  H10X 8385   3.396   5.627   9.283 -0.2414  0.8103 -1.1643
   87SAPS  H10Y 8386   3.261   5.526   9.339  1.3905 -1.1681  0.3976
   87SAPS  C311 8387   3.402   5.424   9.210 -0.0918  0.2492 -0.6149
   87SAPS  H11X 8388   3.368   5.325   9.247  2.0631 -0.2424  0.1458
   87SAPS  H11Y 8389   3.513   5.416   9.203 -0.1321 -0.7188 -0.3139
   87SAPS  C312 8390   3.325   5.466   9.084  0.8847  0.7504 -0.6976
   87SAPS  H12X 8391   3.362   5.565   9.050  1.4705  0.9935  0.6233
   87SAPS  H12Y 8392   3.218   5.468   9.113  0.5288 -1.6156 -1.6894
   87SAPS  C313 8393   3.328   5.359   8.975 -0.6473 -0.3991 -0.9530
   87SAPS  H13X 8394   3.276   5.265   9.002  1.7247 -1.6480 -0.5010
   87SAPS  H13Y 8395   3.432   5.322   8.957 -0.0218 -0.0637  1.6720
   87SAPS  C314 8396   3.258   5.391   8.839 -0.0573 -0.6492 -0.6247
   87SAPS  H14X 8397   3.305   5.479   8.790 -0.7736  0.0536 -0.0586
   87SAPS  H14Y 8398   3.158   5.424   8.874 -0.5728 -1.7277 -1.0510
   87SAPS  C315 8399   3.234   5.266   8.746  0.7100  0.5743  0.4192
   87SAPS  H15X 8400   3.147   5.290   8.682 -0.8347 -1.4630  1.6970
   87SAPS  H15Y 8401   3.211   5.182   8.814  1.6139  1.0788  1.3685
   87SAPS  C316 8402   3.359   5.225   8.667  0.1804  0.7749  0.1101
   87SAPS  H16X 8403   3.449   5.222   8.731 -0.3546 -2.4875  0.7840
   87SAPS  H16Y 8404   3.382   5.276   8.570  0.3247  0.5404  0.0225
   87SAPS  C317 8405   3.342   5.085   8.617  0.0583  0.2306 -0.1039
   87SAPS  H17X 8406   3.242   5.083   8.569 -0.3003  0.2614  0.6403
   87SAPS  H17Y 8407   3.334   5.015   8.703  2.6412 -1.8581 -1.4926
   87SAPS  C318 8408   3.461   5.038   8.530  0.6380 -0.1182  0.1865
   87SAPS  H18X 8409   3.558   5.027   8.583  1.8740 -0.4164 -2.0621
   87SAPS  H18Y 8410   3.482   5.106   8.445 -0.7285 -1.1399 -0.9847
   87SAPS  H18Z 8411   3.443   4.940   8.482 -0.5678  0.0245  0.3246
   88SAPS     N 8412   6.508   2.677  10.879  0.7613  0.2735  0.3967
   88SAPS   HN1 8413   6.480   2.716  10.787  0.4287  1.8232  1.1254
   88SAPS   HN2 8414   6.600   2.711  10.913  0.5476  0.8867  0.3789
   88SAPS   HN3 8415   6.514   2.574  10.874 -1.3978 -0.0130  2.6264
   88SAPS   C12 8416   6.402   2.716  10.978  0.6291  0.8701 -0.2113
   88SAPS  H12A 8417   6.313   2.671  10.937  2.2123 -0.6704 -2.0324
   88SAPS   C13 8418   6.423   2.646  11.121  0.4425  0.0615  0.9681
   88SAPS  O13A 8419   6.525   2.572  11.136 -0.0061 -0.2045 -0.3474
   88SAPS  O13B 8420   6.337   2.672  11.211  0.4879 -0.0918 -0.2962
   88SAPS   C11 8421   6.397   2.875  11.009  0.3316  0.0211 -0.4455
   88SAPS  H11A 8422   6.496   2.905  11.048  0.1315  1.1591 -0.7860
   88SAPS  H11B 8423   6.326   2.899  11.091  0.5591  1.5904 -0.6856
   88SAPS     P 8424   6.232   3.008  10.846 -0.3881 -0.2173  0.1183
   88SAPS   O13 8425   6.146   3.034  10.964 -0.3323  0.1342 -0.4020
   88SAPS   O14 8426   6.254   3.118  10.753 -0.2292  0.0428  0.2070
   88SAPS   O12 8427   6.374   2.958  10.892 -0.7027 -0.1344  0.0907
   88SAPS   O11 8428   6.169   2.881  10.766 -0.1554 -0.4296 -0.0682
   88SAPS    C1 8429   6.186   2.877  10.620 -0.2425  0.4851  0.6927
   88SAPS    HA 8430   6.162   2.979  10.583 -2.4446 -0.0710  0.5521
   88SAPS    HB 8431   6.290   2.841  10.601 -1.6578 -2.8602 -0.9411
   88SAPS    C2 8432   6.098   2.766  10.555  0.0942  0.0863  0.1303
   88SAPS    HS 8433   6.111   2.774  10.445 -1.8302 -2.9402 -0.4017
   88SAPS   O21 8434   5.960   2.788  10.578  0.7851 -0.0836 -0.6762
   88SAPS   C21 8435   5.913   2.912  10.554  0.0993 -0.3529  0.6727
   88SAPS   O22 8436   5.955   2.997  10.482 -0.1835 -0.1457  0.4430
   88SAPS   C22 8437   5.775   2.918  10.608  0.5088  0.6687 -0.1103
   88SAPS   H2R 8438   5.718   2.826  10.584  1.2531 -0.2248  1.5058
   88SAPS   H2S 8439   5.780   2.934  10.718  1.2006 -0.5555  0.0405
   88SAPS    C3 8440   6.138   2.625  10.608  0.6200  0.6376  0.6095
   88SAPS    HX 8441   6.068   2.543  10.582  2.0207 -0.0939 -0.9140
   88SAPS    HY 8442   6.125   2.624  10.718  1.0133 -1.3264  0.6634
   88SAPS   O31 8443   6.271   2.589  10.580 -0.4785  0.4347 -0.2802
   88SAPS   C31 8444   6.298   2.544  10.457 -0.6367  0.4407 -0.1031
   88SAPS   O32 8445   6.218   2.512  10.371 -0.0879 -0.5945  0.6108
   88SAPS   C32 8446   6.446   2.523  10.453 -0.5328  0.3238  0.9124
   88SAPS   H2X 8447   6.485   2.461  10.536  3.0143  0.1070 -0.8055
   88SAPS   H2Y 8448   6.493   2.623  10.450 -1.3263  0.6947  0.7045
   88SAPS   C23 8449   5.680   3.024  10.538 -0.4755  0.6961 -0.2577
   88SAPS   H3R 8450   5.727   3.124  10.534  0.1072  0.4756  0.9289
   88SAPS   H3S 8451   5.594   3.028  10.608 -0.3708 -1.3292  0.0240
   88SAPS   C24 8452   5.643   2.994  10.395  0.8885  0.1553  0.1523
   88SAPS   H4R 8453   5.574   2.907  10.387  0.2913  0.5145  1.2781
   88SAPS   H4S 8454   5.741   2.974  10.346  1.2613  1.9557  0.1261
   88SAPS   C25 8455   5.590   3.120  10.334 -0.1511 -0.3340 -0.0910
   88SAPS   H5R 8456   5.530   3.185  10.399  3.8380  3.1113  0.3175
   88SAPS   C26 8457   5.609   3.165  10.208 -0.5673 -0.1179 -0.4797
   88SAPS   H6R 8458   5.549   3.256  10.190 -0.9615 -0.7993 -2.6895
   88SAPS   C27 8459   5.690   3.109  10.099 -0.5683 -0.3979 -0.3021
   88SAPS   H7R 8460   5.623   3.071  10.018  1.0289 -0.4333 -1.6250
   88SAPS   H7S 8461   5.749   3.025  10.142  0.2129  0.8609  1.0975
   88SAPS   C28 8462   5.784   3.219  10.060  0.2197  0.0082  0.4659
   88SAPS   H8R 8463   5.818   3.288  10.138 -0.0319 -0.5381  1.0667
   88SAPS   C29 8464   5.832   3.242   9.933 -0.2580  0.2419 -0.3188
   88SAPS   H9R 8465   5.888   3.335   9.912  1.0210 -0.1395  1.3394
   88SAPS  C210 8466   5.803   3.177   9.802  0.0437 -0.0043 -0.3990
   88SAPS  H10R 8467   5.762   3.075   9.819 -1.1614  0.2106 -1.8031
   88SAPS  H10S 8468   5.902   3.162   9.755  0.6414 -0.9085  1.1337
   88SAPS  C211 8469   5.701   3.257   9.724  0.0390  0.8476  0.1927
   88SAPS  H11R 8470   5.607   3.274   9.778  0.1174  0.0689  0.5830
   88SAPS  C212 8471   5.726   3.323   9.612  0.3826  0.3496 -0.0531
   88SAPS  H12R 8472   5.649   3.394   9.577  0.2848 -0.3059 -1.2114
   88SAPS  C213 8473   5.858   3.333   9.531 -0.0071  0.1570 -0.3724
   88SAPS  H13R 8474   5.885   3.229   9.500  1.2378  0.2352  0.4363
   88SAPS  H13S 8475   5.936   3.363   9.603  2.8810 -2.0815 -2.4421
   88SAPS  C214 8476   5.861   3.417   9.403  0.1403  0.0738 -0.1521
   88SAPS  H14R 8477   5.789   3.500   9.401 -1.1175 -0.9715  0.3155
   88SAPS  C215 8478   5.909   3.375   9.279  0.4675  0.2797 -0.5101
   88SAPS  H15R 8479   5.903   3.441   9.191 -3.7175 -0.3505 -0.7896
   88SAPS  C216 8480   5.987   3.248   9.242 -0.3312 -0.3578 -0.0978
   88SAPS  H16R 8481   5.966   3.173   9.322  0.7100  0.3704  0.8809
   88SAPS  H16S 8482   6.093   3.281   9.243 -0.4064 -0.1103  0.5928
   88SAPS  C217 8483   5.956   3.205   9.093 -0.1343  0.2893 -0.3588
   88SAPS  H17R 8484   5.850   3.173   9.091 -0.2012  0.2073  2.5665
   88SAPS  H17S 8485   6.011   3.108   9.083 -0.5817  0.0447 -0.4557
   88SAPS  C218 8486   5.992   3.306   8.986 -0.1544 -0.3049 -0.0303
   88SAPS  H18R 8487   6.086   3.351   9.023 -0.3696  1.1339 -1.1877
   88SAPS  H18S 8488   5.914   3.385   8.979  0.5353  0.4655  0.9343
   88SAPS  C219 8489   6.033   3.248   8.852  0.0466  0.5525 -0.2084
   88SAPS  H19R 8490   6.072   3.146   8.872  1.4199  1.3139  1.1353
   88SAPS  H19S 8491   6.112   3.300   8.794 -0.0063  2.0305  1.0216
   88SAPS  C220 8492   5.925   3.229   8.753 -0.4687 -0.0347  0.3149
   88SAPS  H20R 8493   5.971   3.230   8.652  1.4446  3.0703  1.1483
   88SAPS  H20S 8494   5.871   3.326   8.749  1.5691  1.0622 -2.5177
   88SAPS  H20T 8495   5.856   3.143   8.765 -2.0501  0.6938 -2.9883
   88SAPS   C33 8496   6.497   2.451  10.323  0.7589 -0.7257  0.0009
   88SAPS   H3X 8497   6.452   2.349  10.326  0.6813 -0.7082 -0.5317
   88SAPS   H3Y 8498   6.605   2.434  10.340  0.1642 -1.9316  3.0661
   88SAPS   C34 8499   6.473   2.530  10.197  0.5662 -0.1166 -0.2924
   88SAPS   H4X 8500   6.512   2.634  10.194 -0.0253  0.1668  1.3606
   88SAPS   H4Y 8501   6.364   2.542  10.184  0.6724  1.9218  0.4379
   88SAPS   C35 8502   6.523   2.441  10.088 -0.0381 -0.4344  0.4561
   88SAPS   H5X 8503   6.489   2.338  10.109 -1.7096 -0.0403 -0.1969
   88SAPS   H5Y 8504   6.633   2.441  10.072  0.0135  1.2739  0.6982
   88SAPS   C36 8505   6.461   2.485   9.954  0.2982 -0.5479 -0.3020
   88SAPS   H6X 8506   6.460   2.596   9.955 -1.7153 -0.5428 -0.3602
   88SAPS   H6Y 8507   6.356   2.446   9.955  0.4067 -0.9363 -2.1281
   88SAPS   C37 8508   6.522   2.427   9.826  0.3192  0.2445  1.0875
   88SAPS   H7X 8509   6.520   2.316   9.823  1.6332  0.2484 -0.8309
   88SAPS   H7Y 8510   6.630   2.454   9.824  0.4365 -0.3322 -1.0140
   88SAPS   C38 8511   6.472   2.489   9.693  0.4294 -0.0905 -0.0431
   88SAPS   H8X 8512   6.506   2.595   9.691 -0.6545  0.3353  2.3356
   88SAPS   H8Y 8513   6.362   2.477   9.683  0.4601 -0.6555  0.2507
   88SAPS   C39 8514   6.536   2.415   9.572 -0.1537 -0.5476 -0.2242
   88SAPS   H9X 8515   6.498   2.312   9.556 -0.9148 -0.7140  2.4452
   88SAPS   H9Y 8516   6.645   2.408   9.593  0.0788  1.5552 -0.6615
   88SAPS  C310 8517   6.497   2.484   9.439 -0.9862  0.3167 -0.0907
   88SAPS  H10X 8518   6.552   2.579   9.421  1.0622 -0.4965  1.7154
   88SAPS  H10Y 8519   6.391   2.512   9.459 -1.4984 -1.0437 -0.8619
   88SAPS  C311 8520   6.500   2.385   9.319  0.2706  0.7708  0.1808
   88SAPS  H11X 8521   6.463   2.286   9.354  2.4484  0.9225  3.1246
   88SAPS  H11Y 8522   6.605   2.356   9.296  0.2276 -1.8400  2.9425
   88SAPS  C312 8523   6.427   2.436   9.196 -0.2220  0.0102  0.2821
   88SAPS  H12X 8524   6.461   2.539   9.176  1.8582 -1.2201 -2.9684
   88SAPS  H12Y 8525   6.317   2.439   9.215 -0.5567  0.6601 -1.5931
   88SAPS  C313 8526   6.455   2.352   9.068  0.4224  0.1048  0.3285
   88SAPS  H13X 8527   6.420   2.247   9.080 -0.5808  0.5641  1.5260
   88SAPS  H13Y 8528   6.563   2.335   9.050 -0.1124 -0.6621 -2.2503
   88SAPS  C314 8529   6.394   2.414   8.944  0.0551 -0.8391  0.1547
   88SAPS  H14X 8530   6.445   2.508   8.915 -0.4840 -0.1715  1.3170
   88SAPS  H14Y 8531   6.285   2.434   8.959  0.1732  1.5300 -1.8524
   88SAPS  C315 8532   6.387   2.317   8.821 -0.3701  0.0865  0.0719
   88SAPS  H15X 8533   6.308   2.244   8.848 -0.3195  0.8519  2.3923
   88SAPS  H15Y 8534   6.483   2.263   8.810  0.1007  0.6422  1.3608
   88SAPS  C316 8535   6.333   2.371   8.691 -0.5946  0.2083  0.0608
   88SAPS  H16X 8536   6.383   2.467   8.666  0.7824 -0.1624  1.2715
   88SAPS  H16Y 8537   6.227   2.396   8.708 -0.3446  1.2165  0.1500
   88SAPS  C317 8538   6.339   2.278   8.571  0.7446  0.0866  0.2751
   88SAPS  H17X 8539   6.447   2.260   8.549 -0.0628 -1.8837 -2.2825
   88SAPS  H17Y 8540   6.277   2.326   8.492 -2.0765 -0.2558  2.2225
   88SAPS  C318 8541   6.282   2.131   8.596  0.2497  0.0472 -0.8873
   88SAPS  H18X 8542   6.302   2.076   8.502 -0.6907 -0.1120 -0.9940
   88SAPS  H18Y 8543   6.172   2.126   8.608  0.1415 -1.4702 -2.3718
   88SAPS  H18Z 8544   6.332   2.088   8.686 -0.7179  0.3819 -0.1866
   89SAPS     N 8545   5.234   6.373  10.950 -0.4058  0.5485  0.2919
   89SAPS   HN1 8546   5.289   6.460  10.964  0.1098  0.4735 -1.2457
   89SAPS   HN2 8547   5.262   6.323  10.863  0.6090  1.5974  0.0074
   89SAPS   HN3 8548   5.131   6.387  10.953 -0.5918 -0.2683 -1.4590
   89SAPS   C12 8549   5.288   6.277  11.048  0.1198  0.4875 -0.0365
   89SAPS  H12A 8550   5.313   6.330  11.138  5.3221  0.1134 -1.1288
   89SAPS   C13 8551   5.198   6.154  11.081 -0.2783 -0.7005 -0.1855
   89SAPS  O13A 8552   5.080   6.148  11.039 -0.0022  0.8123 -0.0436
   89SAPS  O13B 8553   5.237   6.070  11.165  0.0815 -0.6078  1.0939
   89SAPS   C11 8554   5.426   6.223  10.978  0.1163  0.0607  0.0280
   89SAPS  H11A 8555   5.456   6.132  11.034  1.3154  0.1428 -0.4802
   89SAPS  H11B 8556   5.499   6.305  10.995 -0.0904  1.1042 -3.7560
   89SAPS     P 8557   5.529   6.124  10.758  0.0276 -0.2140 -0.1445
   89SAPS   O13 8558   5.586   6.016  10.843 -0.2728  0.1096 -0.5001
   89SAPS   O14 8559   5.476   6.080  10.625 -0.3648 -0.0914 -0.2410
   89SAPS   O12 8560   5.405   6.186  10.837  0.7980  0.0046  0.4038
   89SAPS   O11 8561   5.632   6.241  10.741 -0.4454  0.0153  0.1181
   89SAPS    C1 8562   5.591   6.383  10.713  0.0114 -0.5025 -0.0332
   89SAPS    HA 8563   5.496   6.405  10.766  0.8248  1.2809  0.7600
   89SAPS    HB 8564   5.655   6.456  10.767 -0.8691 -0.4867  1.0056
   89SAPS    C2 8565   5.572   6.420  10.566 -0.5745  0.8728  0.3648
   89SAPS    HS 8566   5.462   6.406  10.553 -0.3580  0.2081 -0.8231
   89SAPS   O21 8567   5.652   6.333  10.476  0.3911 -0.0086  0.2288
   89SAPS   C21 8568   5.595   6.289  10.374  0.0372  0.3296  0.2169
   89SAPS   O22 8569   5.496   6.326  10.316  0.3843 -0.0527 -0.2525
   89SAPS   C22 8570   5.698   6.203  10.299  0.2979  0.7387  0.2853
   89SAPS   H2R 8571   5.786   6.269  10.283 -0.4525  1.2029 -2.2329
   89SAPS   H2S 8572   5.734   6.121  10.365  1.7610  2.5582  1.8036
   89SAPS    C3 8573   5.602   6.577  10.548 -0.7121  0.6042 -0.5410
   89SAPS    HX 8574   5.711   6.597  10.562 -0.2064 -1.2155 -1.6467
   89SAPS    HY 8575   5.562   6.635  10.633  2.3388 -0.1042  1.4688
   89SAPS   O31 8576   5.559   6.622  10.423  0.5140 -0.6831 -0.1088
   89SAPS   C31 8577   5.446   6.685  10.418 -0.4073  0.2572 -0.2979
   89SAPS   O32 8578   5.370   6.702  10.514  0.2356 -0.0746  0.1606
   89SAPS   C32 8579   5.422   6.755  10.279  0.3666 -0.6391  0.9686
   89SAPS   H2X 8580   5.444   6.864  10.285  2.2910 -1.0195  1.1426
   89SAPS   H2Y 8581   5.316   6.736  10.252  0.8014 -1.7056 -0.0322
   89SAPS   C23 8582   5.637   6.157  10.165  0.3502 -0.4916 -0.0868
   89SAPS   H3R 8583   5.588   6.240  10.109  0.4923  1.9068  3.2067
   89SAPS   H3S 8584   5.552   6.092  10.196 -0.5700 -0.1028 -1.7158
   89SAPS   C24 8585   5.721   6.067  10.076  0.0466  0.2611 -0.7119
   89SAPS   H4R 8586   5.750   5.980  10.138 -0.0842  0.6356 -0.1200
   89SAPS   H4S 8587   5.818   6.120  10.060  0.0629  1.1539  2.1029
   89SAPS   C25 8588   5.657   6.013   9.954  0.0774  0.2403 -0.2247
   89SAPS   H5R 8589   5.570   5.948   9.967  0.5833 -0.6536 -1.2006
   89SAPS   C26 8590   5.682   6.049   9.824 -0.0196  0.0366 -0.0962
   89SAPS   H6R 8591   5.619   6.006   9.745 -0.3434  2.1258 -1.0257
   89SAPS   C27 8592   5.781   6.151   9.770  0.2055  0.0291 -0.4264
   89SAPS   H7R 8593   5.854   6.093   9.709  1.3800 -0.6024  1.5445
   89SAPS   H7S 8594   5.842   6.196   9.851  0.1654 -3.7360  1.8562
   89SAPS   C28 8595   5.707   6.262   9.700  0.6838 -0.0336  0.4834
   89SAPS   H8R 8596   5.666   6.334   9.772  2.3110  0.2023  1.1869
   89SAPS   C29 8597   5.683   6.266   9.569  0.8833 -0.0701  0.3730
   89SAPS   H9R 8598   5.643   6.359   9.526  0.8295  0.4483  1.5232
   89SAPS  C210 8599   5.730   6.163   9.476  0.1421  0.0013  0.3719
   89SAPS  H10R 8600   5.755   6.072   9.536  0.6626  1.0692  1.7936
   89SAPS  H10S 8601   5.817   6.204   9.421 -0.4156  0.5589 -0.0921
   89SAPS  C211 8602   5.624   6.124   9.379  0.5853 -0.1946  0.5288
   89SAPS  H11R 8603   5.529   6.093   9.425  0.0315 -0.4341 -0.7512
   89SAPS  C212 8604   5.635   6.117   9.240  0.2207  0.8696 -0.1275
   89SAPS  H12R 8605   5.547   6.070   9.193 -0.1514  1.6752 -0.2290
   89SAPS  C213 8606   5.748   6.156   9.156  0.6207  0.4345 -0.6708
   89SAPS  H13R 8607   5.773   6.073   9.087 -1.2919 -1.6646  1.0683
   89SAPS  H13S 8608   5.841   6.159   9.216 -0.3364  0.3598  0.8406
   89SAPS  C214 8609   5.718   6.281   9.070 -0.3186  0.5287  0.1295
   89SAPS  H14R 8610   5.677   6.364   9.129 -3.8580 -1.9707  1.3883
   89SAPS  C215 8611   5.734   6.296   8.939  0.4155 -0.1068 -0.4824
   89SAPS  H15R 8612   5.707   6.391   8.890 -2.6888 -1.0145 -0.6987
   89SAPS  C216 8613   5.782   6.192   8.845  0.0830 -0.3506 -0.3643
   89SAPS  H16R 8614   5.695   6.162   8.782 -1.2613  1.7991  0.3919
   89SAPS  H16S 8615   5.835   6.112   8.900  0.0585 -1.0716 -1.3659
   89SAPS  C217 8616   5.874   6.249   8.737  0.1783 -0.7387  0.4038
   89SAPS  H17R 8617   5.826   6.336   8.687  0.3439 -1.9353 -1.9498
   89SAPS  H17S 8618   5.877   6.170   8.658 -0.6342 -0.4387  0.0690
   89SAPS  C218 8619   6.018   6.290   8.782  0.1086 -0.4689  0.1331
   89SAPS  H18R 8620   6.077   6.206   8.825  0.3033  0.1831  1.1479
   89SAPS  H18S 8621   5.994   6.363   8.862 -1.3687 -1.4048  0.5673
   89SAPS  C219 8622   6.100   6.352   8.668 -0.3613  0.5912  1.3226
   89SAPS  H19R 8623   6.188   6.396   8.720  0.6967  0.2346 -0.1394
   89SAPS  H19S 8624   6.045   6.443   8.635  1.6292  1.2944 -0.1051
   89SAPS  C220 8625   6.148   6.256   8.564 -0.1813  0.2368  0.1641
   89SAPS  H20R 8626   6.065   6.232   8.495  2.5932 -0.8452 -2.9481
   89SAPS  H20S 8627   6.176   6.160   8.612 -1.6102 -0.2711  0.0000
   89SAPS  H20T 8628   6.244   6.279   8.513 -0.9626 -1.3281 -2.0672
   89SAPS   C33 8629   5.512   6.703  10.167 -0.1204  0.5120 -0.6700
   89SAPS   H3X 8630   5.496   6.593  10.173  1.2757  0.2100 -2.2953
   89SAPS   H3Y 8631   5.618   6.725  10.192 -0.5412  1.5786  0.2403
   89SAPS   C34 8632   5.465   6.750  10.025 -0.3883  0.0412  0.3120
   89SAPS   H4X 8633   5.451   6.860  10.022  0.0275  0.0591 -1.4552
   89SAPS   H4Y 8634   5.364   6.706  10.012  0.4701 -2.2526  1.1154
   89SAPS   C35 8635   5.554   6.705   9.913 -0.3628  0.2511 -0.6708
   89SAPS   H5X 8636   5.564   6.596   9.932 -1.1528  0.2590 -0.1595
   89SAPS   H5Y 8637   5.654   6.752   9.919 -1.1182  1.8694 -0.5883
   89SAPS   C36 8638   5.504   6.724   9.768 -0.2249  0.4233 -0.1781
   89SAPS   H6X 8639   5.463   6.824   9.742  1.4800  0.8719 -1.2608
   89SAPS   H6Y 8640   5.431   6.642   9.758 -1.2821  1.3505 -0.1980
   89SAPS   C37 8641   5.616   6.694   9.669 -0.3720 -0.1257 -0.5856
   89SAPS   H7X 8642   5.682   6.611   9.701 -0.1693  0.2064 -0.1369
   89SAPS   H7Y 8643   5.678   6.787   9.671  1.1832 -1.1781  1.7403
   89SAPS   C38 8644   5.564   6.677   9.525 -0.1681  0.6224  0.1580
   89SAPS   H8X 8645   5.511   6.764   9.480 -0.9750 -1.3020 -2.8124
   89SAPS   H8Y 8646   5.500   6.586   9.523 -0.4850  0.8501 -0.2882
   89SAPS   C39 8647   5.680   6.646   9.423 -0.0380  0.2277  0.4791
   89SAPS   H9X 8648   5.739   6.564   9.470  0.5670 -0.3875 -1.3222
   89SAPS   H9Y 8649   5.740   6.737   9.405  1.1213 -0.9648 -1.8560
   89SAPS  C310 8650   5.634   6.576   9.289 -0.6376  0.1191 -0.7467
   89SAPS  H10X 8651   5.584   6.480   9.312  0.9567 -0.3786  0.8363
   89SAPS  H10Y 8652   5.720   6.538   9.229 -0.1737  1.2718 -0.8296
   89SAPS  C311 8653   5.527   6.657   9.209  0.0060 -0.4465  0.4687
   89SAPS  H11X 8654   5.536   6.761   9.247  0.4931 -0.4840  0.4556
   89SAPS  H11Y 8655   5.434   6.616   9.255  2.2841 -2.1350  3.7588
   89SAPS  C312 8656   5.521   6.634   9.059 -0.1571  0.2110 -0.2369
   89SAPS  H12X 8657   5.444   6.707   9.027  1.0230  0.8913 -1.5902
   89SAPS  H12Y 8658   5.493   6.534   9.021  0.8555  0.0490 -0.5640
   89SAPS  C313 8659   5.652   6.669   8.985 -0.8422  0.8050 -0.7135
   89SAPS  H13X 8660   5.731   6.601   9.024  0.1308  2.5799  0.4482
   89SAPS  H13Y 8661   5.694   6.771   9.000  0.0017  0.2593  0.6847
   89SAPS  C314 8662   5.632   6.645   8.837 -0.6080 -0.2211  0.0737
   89SAPS  H14X 8663   5.545   6.705   8.802  0.5685  1.3898 -0.1524
   89SAPS  H14Y 8664   5.599   6.539   8.825  0.4822 -0.3416 -2.0054
   89SAPS  C315 8665   5.755   6.674   8.755 -0.5690  0.1040  0.4512
   89SAPS  H15X 8666   5.736   6.675   8.646  3.0942  3.2057 -0.2831
   89SAPS  H15Y 8667   5.815   6.582   8.771 -1.5517 -0.6371 -0.1029
   89SAPS  C316 8668   5.814   6.808   8.782 -0.2056  0.6524  0.1397
   89SAPS  H16X 8669   5.860   6.792   8.882  2.0915  0.5755 -0.8933
   89SAPS  H16Y 8670   5.745   6.895   8.785 -1.0746 -0.0102 -0.5247
   89SAPS  C317 8671   5.924   6.829   8.673 -0.3926  0.3703 -0.1828
   89SAPS  H17X 8672   5.868   6.828   8.577 -2.2350 -0.8196  0.8598
   89SAPS  H17Y 8673   5.986   6.738   8.681 -0.2846  0.5167  0.6948
   89SAPS  C318 8674   6.004   6.957   8.689  0.1003 -0.0474  0.2553
   89SAPS  H18X 8675   6.102   6.955   8.636  0.9540  0.6377  1.7735
   89SAPS  H18Y 8676   6.013   6.980   8.797 -0.3977  0.3453  0.2144
   89SAPS  H18Z 8677   5.951   7.041   8.639  2.5052  0.7001 -1.1341
   90SAPS     N 8678   0.711   6.180  10.742  0.3121 -0.1445  0.5628
   90SAPS   HN1 8679   0.608   6.182  10.759  0.4034  0.0589  1.0881
   90SAPS   HN2 8680   0.755   6.268  10.774 -1.4739  0.3678  1.6885
   90SAPS   HN3 8681   0.718   6.167  10.639  0.3828 -3.8400  0.9328
   90SAPS   C12 8682   0.763   6.063  10.819 -0.4339  0.0423 -0.0862
   90SAPS  H12A 8683   0.841   6.007  10.771  1.9481  2.3993  0.8964
   90SAPS   C13 8684   0.830   6.102  10.955 -0.5391 -0.2442  0.0960
   90SAPS  O13A 8685   0.831   6.229  10.992 -0.5896  0.7105 -0.2640
   90SAPS  O13B 8686   0.898   6.015  11.019 -0.4012 -0.0554  0.0057
   90SAPS   C11 8687   0.638   5.974  10.855  0.1333 -0.3253  0.1113
   90SAPS  H11A 8688   0.565   6.038  10.908  1.0901  0.7413  0.1588
   90SAPS  H11B 8689   0.676   5.891  10.918  0.0320  0.1429  0.7890
   90SAPS     P 8690   0.553   5.770  10.694 -0.2329  0.3268  0.1645
   90SAPS   O13 8691   0.523   5.705  10.820  0.5874 -0.0258 -0.0834
   90SAPS   O14 8692   0.441   5.775  10.596  0.7912  0.0011 -0.2989
   90SAPS   O12 8693   0.583   5.926  10.725  0.1786 -0.1416 -0.9965
   90SAPS   O11 8694   0.689   5.711  10.637 -0.0474  0.3054 -0.2799
   90SAPS    C1 8695   0.759   5.793  10.539  0.5814 -0.0596  0.0854
   90SAPS    HA 8696   0.736   5.900  10.560  1.5961  0.2363 -0.2760
   90SAPS    HB 8697   0.868   5.774  10.546  0.2617 -2.3261 -0.7234
   90SAPS    C2 8698   0.709   5.755  10.392  0.2273 -0.3033  0.4323
   90SAPS    HS 8699   0.600   5.735  10.407 -0.4551  2.4601 -0.4855
   90SAPS   O21 8700   0.779   5.634  10.355 -0.1889 -0.0988 -0.0976
   90SAPS   C21 8701   0.739   5.519  10.406 -0.3533  0.3435 -0.3336
   90SAPS   O22 8702   0.638   5.499  10.466 -0.2322  0.3283  0.3555
   90SAPS   C22 8703   0.841   5.408  10.372  0.0760 -0.0464 -0.6345
   90SAPS   H2R 8704   0.901   5.409  10.465 -0.9708  1.2151  0.0484
   90SAPS   H2S 8705   0.780   5.315  10.366 -0.0751  0.0726 -0.9816
   90SAPS    C3 8706   0.740   5.877  10.302  0.3134  0.2235  0.3371
   90SAPS    HX 8707   0.846   5.909  10.307  0.7279 -1.1460  0.5474
   90SAPS    HY 8708   0.664   5.956  10.322 -0.1772  0.7908 -3.4886
   90SAPS   O31 8709   0.719   5.836  10.160  0.1433 -0.1204 -0.1441
   90SAPS   C31 8710   0.599   5.805  10.118 -0.0185  0.4756 -0.0388
   90SAPS   O32 8711   0.494   5.818  10.188  0.2123 -0.3498 -0.2175
   90SAPS   C32 8712   0.607   5.756   9.974 -0.1381 -0.1727 -0.1969
   90SAPS   H2X 8713   0.562   5.654   9.972  2.3028 -1.2861 -0.7761
   90SAPS   H2Y 8714   0.714   5.741   9.946  0.3915  0.7076  1.2750
   90SAPS   C23 8715   0.934   5.420  10.246  0.2585  0.1397  0.2203
   90SAPS   H3R 8716   1.011   5.340  10.252 -0.1047 -0.2117  0.2036
   90SAPS   H3S 8717   0.972   5.524  10.257  1.4328 -0.3251  0.5769
   90SAPS   C24 8718   0.856   5.408  10.112  0.4232 -0.3133 -0.0511
   90SAPS   H4R 8719   0.769   5.475  10.128 -0.1833 -1.6186  2.2468
   90SAPS   H4S 8720   0.812   5.307  10.119 -0.0574 -0.1136 -0.1879
   90SAPS   C25 8721   0.941   5.440   9.989  0.4636 -0.7761  0.0139
   90SAPS   H5R 8722   1.030   5.498  10.020  1.4126 -3.3622  2.2863
   90SAPS   C26 8723   0.924   5.403   9.869  0.1132  0.0046 -0.4474
   90SAPS   H6R 8724   0.994   5.447   9.796 -1.0779  2.1764 -0.3297
   90SAPS   C27 8725   0.818   5.305   9.821  0.6870 -0.2315 -0.2021
   90SAPS   H7R 8726   0.788   5.330   9.717 -0.4770 -1.7735 -0.2540
   90SAPS   H7S 8727   0.729   5.328   9.882  0.6161  1.0083 -0.7694
   90SAPS   C28 8728   0.873   5.164   9.832  0.7626 -0.4306  0.0334
   90SAPS   H8R 8729   0.909   5.136   9.932 -1.0127 -2.3573  0.1588
   90SAPS   C29 8730   0.883   5.078   9.729  0.1858  0.0389  0.3335
   90SAPS   H9R 8731   0.918   4.976   9.753 -1.1767 -0.3075  0.9027
   90SAPS  C210 8732   0.837   5.093   9.585 -0.2775  0.2230 -0.4927
   90SAPS  H10R 8733   0.727   5.106   9.579 -0.3250 -0.3913 -1.0562
   90SAPS  H10S 8734   0.853   4.993   9.539 -0.6453  0.7364 -1.7566
   90SAPS  C211 8735   0.899   5.190   9.491  0.3624  0.4572  1.0584
   90SAPS  H11R 8736   1.007   5.203   9.505  0.2579 -0.0256  2.3207
   90SAPS  C212 8737   0.836   5.265   9.394 -0.2548  0.3476 -0.1319
   90SAPS  H12R 8738   0.889   5.333   9.326 -0.2165 -0.4771 -0.9397
   90SAPS  C213 8739   0.687   5.254   9.365 -0.0514 -0.9512  0.2561
   90SAPS  H13R 8740   0.626   5.299   9.446 -1.1491 -0.4607 -0.8239
   90SAPS  H13S 8741   0.660   5.147   9.351 -1.3849 -0.7576  1.2217
   90SAPS  C214 8742   0.640   5.318   9.238 -0.4353 -0.4264  0.1673
   90SAPS  H14R 8743   0.546   5.375   9.246  0.2116  0.7918 -0.6464
   90SAPS  C215 8744   0.682   5.289   9.115 -0.3587  0.5564  0.0064
   90SAPS  H15R 8745   0.646   5.349   9.029  1.3497 -0.9715 -1.8135
   90SAPS  C216 8746   0.799   5.199   9.080  0.1575  0.4674  0.4075
   90SAPS  H16R 8747   0.800   5.107   9.142  3.3206  1.0182  1.2959
   90SAPS  H16S 8748   0.897   5.248   9.101  0.6646 -0.5249  0.3983
   90SAPS  C217 8749   0.800   5.156   8.930  0.1725 -0.2868 -0.4508
   90SAPS  H17R 8750   0.810   5.247   8.868 -1.7787 -0.2152 -0.6908
   90SAPS  H17S 8751   0.704   5.110   8.901 -0.6608  0.5131  0.9730
   90SAPS  C218 8752   0.925   5.076   8.900  0.7739 -0.8375  0.3425
   90SAPS  H18R 8753   0.933   5.007   8.987  3.3034 -1.4010 -0.2929
   90SAPS  H18S 8754   1.018   5.137   8.889 -0.5286  1.2806  0.8926
   90SAPS  C219 8755   0.920   5.003   8.771  0.7800 -0.2466  0.1511
   90SAPS  H19R 8756   0.900   5.069   8.684  2.4857 -0.0153 -0.0885
   90SAPS  H19S 8757   0.831   4.937   8.763  1.7031 -1.5142  0.1679
   90SAPS  C220 8758   1.050   4.924   8.753  0.3122 -0.4273  0.1316
   90SAPS  H20R 8759   1.133   4.997   8.768 -0.4131  0.5179 -0.4626
   90SAPS  H20S 8760   1.063   4.885   8.650 -1.4561  0.9472 -0.6369
   90SAPS  H20T 8761   1.055   4.840   8.826  1.4650 -2.0917 -1.8089
   90SAPS   C33 8762   0.543   5.855   9.876 -0.0584  0.0915  0.0416
   90SAPS   H3X 8763   0.552   5.963   9.900 -0.7209 -0.4166  2.7587
   90SAPS   H3Y 8764   0.443   5.810   9.895  0.6531 -1.7663 -0.5213
   90SAPS   C34 8765   0.560   5.834   9.728 -0.0929 -0.0112 -0.3963
   90SAPS   H4X 8766   0.668   5.839   9.702  0.0760  0.0220  0.3088
   90SAPS   H4Y 8767   0.503   5.910   9.671  0.6896  0.2243 -0.8745
   90SAPS   C35 8768   0.509   5.693   9.692 -0.8575  0.4077  0.2095
   90SAPS   H5X 8769   0.399   5.689   9.706 -0.8512  2.8593  1.3097
   90SAPS   H5Y 8770   0.552   5.612   9.755 -0.8242  0.8981  0.8213
   90SAPS   C36 8771   0.535   5.658   9.538 -0.3116 -0.5088  0.0369
   90SAPS   H6X 8772   0.553   5.551   9.514  1.2731 -0.3732  0.5525
   90SAPS   H6Y 8773   0.629   5.714   9.519  0.0286 -1.0498  0.1194
   90SAPS   C37 8774   0.419   5.709   9.448 -0.5359 -0.2466  0.2245
   90SAPS   H7X 8775   0.397   5.814   9.477  0.4136  0.1135 -0.3236
   90SAPS   H7Y 8776   0.330   5.644   9.464 -0.7188 -0.6328 -2.0744
   90SAPS   C38 8777   0.469   5.703   9.307 -0.2246 -0.5979 -0.3115
   90SAPS   H8X 8778   0.507   5.602   9.283 -0.9164 -0.9233 -0.0254
   90SAPS   H8Y 8779   0.564   5.760   9.306 -0.8678  0.4811 -1.3652
   90SAPS   C39 8780   0.372   5.759   9.199  0.0015 -0.2349 -0.2748
   90SAPS   H9X 8781   0.368   5.866   9.227  1.2686 -0.2218 -0.0775
   90SAPS   H9Y 8782   0.270   5.715   9.204 -1.1011  2.3236  0.2020
   90SAPS  C310 8783   0.420   5.751   9.059  0.0733 -0.0964 -0.1280
   90SAPS  H10X 8784   0.505   5.823   9.054 -0.2611  0.2655 -0.6522
   90SAPS  H10Y 8785   0.344   5.798   8.994  0.7814 -1.9176 -2.3550
   90SAPS  C311 8786   0.457   5.609   9.010 -0.7462  0.6618 -0.5400
   90SAPS  H11X 8787   0.359   5.558   9.007 -0.6001  0.4484 -1.8420
   90SAPS  H11Y 8788   0.525   5.566   9.087  1.3670  4.0994 -0.3678
   90SAPS  C312 8789   0.519   5.610   8.877 -0.1890  0.6271 -0.1771
   90SAPS  H12X 8790   0.627   5.635   8.884  0.0789 -0.2942 -0.9326
   90SAPS  H12Y 8791   0.469   5.690   8.819 -0.3370  1.2247  0.7550
   90SAPS  C313 8792   0.496   5.482   8.794  0.1734  0.3891 -0.2562
   90SAPS  H13X 8793   0.394   5.471   8.750  0.8227  1.3299 -2.0389
   90SAPS  H13Y 8794   0.519   5.386   8.845 -1.6606 -0.0178 -0.1405
   90SAPS  C314 8795   0.574   5.479   8.659  0.4971 -0.6296  0.5587
   90SAPS  H14X 8796   0.681   5.503   8.670  0.5812 -1.0446  0.6410
   90SAPS  H14Y 8797   0.524   5.555   8.594 -1.5357 -1.0054  1.6324
   90SAPS  C315 8798   0.557   5.350   8.580  0.4186  0.4953 -0.5044
   90SAPS  H15X 8799   0.449   5.324   8.573  0.2029  0.4005  2.5841
   90SAPS  H15Y 8800   0.600   5.264   8.637 -2.3532 -0.5763  0.0356
   90SAPS  C316 8801   0.615   5.351   8.447 -0.3974 -0.0762  0.3767
   90SAPS  H16X 8802   0.712   5.406   8.449 -0.6930  0.4360  0.5411
   90SAPS  H16Y 8803   0.553   5.415   8.380  0.6785 -0.4042 -0.9682
   90SAPS  C317 8804   0.612   5.216   8.372  0.3292 -0.2366  0.1056
   90SAPS  H17X 8805   0.620   5.239   8.264  2.2712 -0.2704  0.2407
   90SAPS  H17Y 8806   0.514   5.164   8.380  0.7808 -1.3135 -1.1713
   90SAPS  C318 8807   0.719   5.118   8.416  0.3512  0.0980 -0.9556
   90SAPS  H18X 8808   0.718   5.095   8.525 -0.0319  2.2885 -0.4778
   90SAPS  H18Y 8809   0.819   5.157   8.386 -0.3562  1.5956 -1.3903
   90SAPS  H18Z 8810   0.693   5.022   8.366 -0.0369  0.1936 -0.9340
   91SAPS     N 8811   5.838   4.276   5.763 -0.4212 -0.5310  0.1820
   91SAPS   HN1 8812   5.868   4.176   5.762 -0.3618 -0.5148  0.4241
   91SAPS   HN2 8813   5.788   4.299   5.675  0.3100 -0.8689 -0.3328
   91SAPS   HN3 8814   5.927   4.328   5.775  0.0581 -1.0206 -1.1279
   91SAPS   C12 8815   5.745   4.312   5.874  0.4149 -0.7810 -0.1878
   91SAPS  H12A 8816   5.770   4.410   5.911  1.8337 -0.3656 -2.1467
   91SAPS   C13 8817   5.605   4.337   5.810 -0.1351  0.3786 -0.5366
   91SAPS  O13A 8818   5.597   4.349   5.683  0.4569 -0.5799 -0.3288
   91SAPS  O13B 8819   5.514   4.364   5.889  0.1377  0.2350  0.1533
   91SAPS   C11 8820   5.737   4.201   5.982 -1.0065 -0.0057  0.5772
   91SAPS  H11A 8821   5.701   4.111   5.928 -1.5006  0.2382  0.4917
   91SAPS  H11B 8822   5.656   4.225   6.055 -0.3992  2.0179  0.6297
   91SAPS     P 8823   5.863   4.044   6.143  0.0720  0.0247 -0.4013
   91SAPS   O13 8824   5.813   3.931   6.065  0.4480  0.0585  0.0213
   91SAPS   O14 8825   6.005   4.027   6.189 -0.2935  0.2965 -0.5032
   91SAPS   O12 8826   5.854   4.181   6.058 -0.2335  0.5285 -0.4463
   91SAPS   O11 8827   5.750   4.068   6.259 -0.7294 -0.6755  0.4115
   91SAPS    C1 8828   5.813   4.115   6.375  0.2973 -0.4079 -0.3037
   91SAPS    HA 8829   5.913   4.073   6.399  0.1301 -0.2958  0.6090
   91SAPS    HB 8830   5.834   4.224   6.362  2.1085 -0.7983 -0.8466
   91SAPS    C2 8831   5.714   4.104   6.489  0.2246 -0.7350 -1.0585
   91SAPS    HS 8832   5.765   4.122   6.586 -1.3166 -0.8325 -0.2033
   91SAPS   O21 8833   5.659   3.971   6.489  0.1424 -0.5505  0.0595
   91SAPS   C21 8834   5.744   3.883   6.521  0.1004  0.5588  0.6991
   91SAPS   O22 8835   5.853   3.902   6.569  0.3703 -0.2614  0.5657
   91SAPS   C22 8836   5.698   3.753   6.462  0.0886 -0.1656  0.1120
   91SAPS   H2R 8837   5.666   3.761   6.356  0.9545  0.9428 -0.0673
   91SAPS   H2S 8838   5.786   3.685   6.473 -0.1637 -0.1612  2.4968
   91SAPS    C3 8839   5.599   4.208   6.490 -0.2594  0.0966  0.6441
   91SAPS    HX 8840   5.529   4.169   6.413  1.0721  0.2478 -0.6552
   91SAPS    HY 8841   5.650   4.302   6.459  0.7587 -0.6929 -0.1064
   91SAPS   O31 8842   5.542   4.228   6.622 -0.6048  0.0246 -0.0694
   91SAPS   C31 8843   5.429   4.163   6.643 -0.4738  0.1748  0.0935
   91SAPS   O32 8844   5.381   4.082   6.566  0.1639 -0.2287 -0.0726
   91SAPS   C32 8845   5.379   4.198   6.773 -0.5228 -0.1167  0.3385
   91SAPS   H2X 8846   5.268   4.204   6.777 -0.6812 -1.2872 -1.4689
   91SAPS   H2Y 8847   5.414   4.301   6.796 -0.0839 -0.1113 -0.3330
   91SAPS   C23 8848   5.572   3.702   6.539 -1.0262 -0.1655 -0.0739
   91SAPS   H3R 8849   5.542   3.606   6.492  0.8833 -0.3308 -0.9986
   91SAPS   H3S 8850   5.493   3.780   6.542  1.6094  2.5785  2.6508
   91SAPS   C24 8851   5.603   3.657   6.690 -0.2228  0.5790  0.2055
   91SAPS   H4R 8852   5.689   3.588   6.705  0.2942  1.0755 -0.4329
   91SAPS   H4S 8853   5.514   3.594   6.707 -0.6204  1.7307  2.5812
   91SAPS   C25 8854   5.598   3.779   6.780 -0.2154 -0.8608 -0.1486
   91SAPS   H5R 8855   5.514   3.849   6.774 -0.2234 -0.9296 -0.9472
   91SAPS   C26 8856   5.701   3.816   6.863  0.6055  0.6687 -0.2410
   91SAPS   H6R 8857   5.685   3.902   6.929  1.8179  0.4478  0.3669
   91SAPS   C27 8858   5.829   3.736   6.877 -0.7228 -0.6682  0.1408
   91SAPS   H7R 8859   5.888   3.813   6.930 -0.7240 -1.0306  0.6705
   91SAPS   H7S 8860   5.881   3.705   6.784  2.0753 -0.3422  1.5630
   91SAPS   C28 8861   5.834   3.606   6.957 -0.7859  0.2145  0.3310
   91SAPS   H8R 8862   5.835   3.511   6.902  0.2240  0.1121  0.4988
   91SAPS   C29 8863   5.854   3.599   7.093  0.0212 -0.6676 -0.0116
   91SAPS   H9R 8864   5.851   3.498   7.135  1.3989 -1.1084 -0.9338
   91SAPS  C210 8865   5.866   3.711   7.197 -0.0778 -0.6436 -0.4277
   91SAPS  H10R 8866   5.871   3.813   7.154 -0.9176  0.4882  2.0275
   91SAPS  H10S 8867   5.964   3.709   7.249  0.0840  0.3554 -0.6695
   91SAPS  C211 8868   5.759   3.695   7.300  0.1381 -0.1835  0.0820
   91SAPS  H11R 8869   5.657   3.703   7.259 -0.9490 -3.1545  2.0911
   91SAPS  C212 8870   5.778   3.712   7.431 -0.1608 -0.3464 -0.2461
   91SAPS  H12R 8871   5.700   3.696   7.507  0.8822 -1.3975  0.6317
   91SAPS  C213 8872   5.908   3.748   7.496  0.1941  0.0942 -0.4067
   91SAPS  H13R 8873   5.882   3.797   7.592  0.6753  0.2016 -0.3268
   91SAPS  H13S 8874   5.956   3.826   7.433  0.8459  0.8712  1.0213
   91SAPS  C214 8875   6.012   3.640   7.523 -0.2835 -0.1545  0.5027
   91SAPS  H14R 8876   6.073   3.612   7.436  1.4511  0.4770  1.5056
   91SAPS  C215 8877   6.029   3.587   7.647 -0.0830  0.6189  0.0912
   91SAPS  H15R 8878   6.110   3.515   7.662 -1.9373 -1.5624  0.0537
   91SAPS  C216 8879   5.958   3.615   7.779  0.3195 -0.5244  0.1311
   91SAPS  H16R 8880   5.930   3.525   7.837 -2.1545  0.0883 -0.0437
   91SAPS  H16S 8881   5.868   3.675   7.753  1.2900  0.6424 -0.6251
   91SAPS  C217 8882   6.046   3.703   7.877 -0.1675 -0.0622  0.2679
   91SAPS  H17R 8883   6.049   3.802   7.828 -1.3524 -0.0144  0.2831
   91SAPS  H17S 8884   6.149   3.660   7.884  0.4541  1.5061  0.9631
   91SAPS  C218 8885   5.973   3.723   8.010 -0.0431  0.0818  0.4635
   91SAPS  H18R 8886   5.975   3.630   8.071  0.3353 -0.4319 -0.3183
   91SAPS  H18S 8887   5.868   3.748   7.984  0.1842  0.7097  0.1463
   91SAPS  C219 8888   6.038   3.827   8.103  0.2775 -0.7232 -0.2051
   91SAPS  H19R 8889   5.981   3.829   8.198 -0.2910 -1.1099 -0.5318
   91SAPS  H19S 8890   6.030   3.926   8.054  2.2847  1.0529  2.8838
   91SAPS  C220 8891   6.186   3.804   8.142 -0.4973  0.1938  0.4091
   91SAPS  H20R 8892   6.206   3.695   8.154 -0.0557  0.0455 -1.5263
   91SAPS  H20S 8893   6.201   3.856   8.239 -0.7939  1.8981 -0.4426
   91SAPS  H20T 8894   6.252   3.858   8.071  0.2158  0.8292  1.5495
   91SAPS   C33 8895   5.448   4.107   6.876  0.1010  0.1482 -0.4638
   91SAPS   H3X 8896   5.559   4.113   6.875  0.0992  0.3900  0.1770
   91SAPS   H3Y 8897   5.415   4.001   6.868  0.4101  0.0607 -0.6011
   91SAPS   C34 8898   5.414   4.158   7.023 -0.1315 -0.1021  0.3604
   91SAPS   H4X 8899   5.307   4.185   7.033  0.1908  1.2825  0.1913
   91SAPS   H4Y 8900   5.465   4.250   7.060  0.0239 -0.8176  1.9526
   91SAPS   C35 8901   5.462   4.056   7.129  0.0673 -0.2773  0.1735
   91SAPS   H5X 8902   5.570   4.038   7.107 -0.2776 -3.2023  0.6506
   91SAPS   H5Y 8903   5.411   3.962   7.099  2.5930 -1.4788 -0.5573
   91SAPS   C36 8904   5.441   4.104   7.273 -0.4913 -0.2095  0.0786
   91SAPS   H6X 8905   5.492   4.201   7.291 -1.5876  0.3587  0.1638
   91SAPS   H6Y 8906   5.483   4.031   7.345 -2.5860 -1.6034 -0.0652
   91SAPS   C37 8907   5.298   4.114   7.306  0.6586  0.6447 -0.4558
   91SAPS   H7X 8908   5.257   4.011   7.294  2.0212  0.1282 -0.8189
   91SAPS   H7Y 8909   5.233   4.183   7.248 -0.2257 -0.7884 -1.1977
   91SAPS   C38 8910   5.269   4.166   7.448 -0.7527  0.3152  0.0053
   91SAPS   H8X 8911   5.179   4.230   7.443 -0.5884  0.5020 -0.5234
   91SAPS   H8Y 8912   5.352   4.225   7.494 -0.4316 -0.2906  0.2174
   91SAPS   C39 8913   5.244   4.041   7.535 -0.4182 -0.0042 -0.4598
   91SAPS   H9X 8914   5.337   3.988   7.565 -0.7815 -1.3331 -1.6728
   91SAPS   H9Y 8915   5.183   3.968   7.479 -2.1445 -0.2477  1.6623
   91SAPS  C310 8916   5.173   4.081   7.666 -0.7554  0.2106  0.0072
   91SAPS  H10X 8917   5.082   4.131   7.628  0.1129  0.8404 -1.2729
   91SAPS  H10Y 8918   5.232   4.158   7.720 -0.4299 -0.0245 -0.0083
   91SAPS  C311 8919   5.133   3.960   7.753  0.3233 -0.2757  0.0354
   91SAPS  H11X 8920   5.229   3.935   7.802  0.3595 -1.1480 -0.4708
   91SAPS  H11Y 8921   5.094   3.881   7.685 -0.3904  0.4518 -0.4112
   91SAPS  C312 8922   5.024   3.978   7.864 -1.0464  0.6598  0.0345
   91SAPS  H12X 8923   5.002   3.880   7.912 -1.6716  0.6959 -0.1739
   91SAPS  H12Y 8924   4.927   4.017   7.826 -0.1835  2.9097  0.0762
   91SAPS  C313 8925   5.079   4.071   7.970 -0.1392  0.5121  0.2051
   91SAPS  H13X 8926   5.003   4.138   8.015 -2.3219 -1.7720  0.0282
   91SAPS  H13Y 8927   5.155   4.137   7.923  2.5587 -1.7458  1.2945
   91SAPS  C314 8928   5.162   4.007   8.088  0.1038 -0.4305 -0.7072
   91SAPS  H14X 8929   5.225   4.089   8.127  1.1858 -1.8039  0.4623
   91SAPS  H14Y 8930   5.227   3.925   8.052  0.0541 -1.4211  1.4058
   91SAPS  C315 8931   5.070   3.954   8.198  0.6910 -0.5858  0.5395
   91SAPS  H15X 8932   5.009   3.869   8.163 -2.6207  1.6708  0.6298
   91SAPS  H15Y 8933   4.996   4.030   8.232  0.4424 -1.3124  1.6460
   91SAPS  C316 8934   5.153   3.907   8.321  0.0749 -0.6059 -0.6365
   91SAPS  H16X 8935   5.234   3.841   8.284  0.3712  0.7518 -2.4538
   91SAPS  H16Y 8936   5.075   3.856   8.382  0.9703  1.7108  2.6213
   91SAPS  C317 8937   5.220   4.022   8.395 -0.4828 -0.2257  0.3237
   91SAPS  H17X 8938   5.142   4.101   8.403  0.1473  0.3476  0.8334
   91SAPS  H17Y 8939   5.308   4.060   8.338 -0.9090  0.6650  0.2447
   91SAPS  C318 8940   5.258   3.982   8.538 -0.2849  0.9111  0.1859
   91SAPS  H18X 8941   5.296   4.070   8.594 -0.1198  1.7525 -1.2294
   91SAPS  H18Y 8942   5.347   3.918   8.521 -0.4754  0.0358  2.2647
   91SAPS  H18Z 8943   5.184   3.918   8.590  2.2863 -2.1998  0.2066
   92SAPS     N 8944   4.764   2.275   6.118  0.8215  0.0196  0.7291
   92SAPS   HN1 8945   4.729   2.277   6.020  1.2777  0.2360  0.5641
   92SAPS   HN2 8946   4.729   2.355   6.176 -0.4822  0.8718 -1.1789
   92SAPS   HN3 8947   4.867   2.290   6.120  0.6186  1.2630  3.5252
   92SAPS   C12 8948   4.723   2.148   6.184  0.3249  0.2395  0.9815
   92SAPS  H12A 8949   4.615   2.149   6.174  0.1649 -0.9662  2.4267
   92SAPS   C13 8950   4.774   2.019   6.112  0.0418  0.1575  0.6808
   92SAPS  O13A 8951   4.810   2.023   5.991  0.3061 -0.1524 -0.1697
   92SAPS  O13B 8952   4.752   1.918   6.179 -0.7538 -0.1787  0.4598
   92SAPS   C11 8953   4.774   2.156   6.335  0.3318  0.8727  0.7197
   92SAPS  H11A 8954   4.883   2.177   6.327  0.8146 -1.9932 -0.7733
   92SAPS  H11B 8955   4.768   2.061   6.393 -2.7954  0.0377 -0.9079
   92SAPS     P 8956   4.563   2.248   6.453 -0.2156 -0.2004 -0.1761
   92SAPS   O13 8957   4.559   2.345   6.566 -0.5696 -0.6096 -0.9597
   92SAPS   O14 8958   4.460   2.274   6.351 -0.1939  0.4333 -0.3161
   92SAPS   O12 8959   4.707   2.266   6.395  0.2479 -0.1122 -0.4449
   92SAPS   O11 8960   4.564   2.096   6.511  0.0558 -0.4447 -0.4831
   92SAPS    C1 8961   4.491   2.059   6.629  0.0395  0.7208  0.1933
   92SAPS    HA 8962   4.432   2.143   6.671  1.1530  2.3132 -1.3705
   92SAPS    HB 8963   4.428   1.972   6.601  0.0105  1.6700 -2.8924
   92SAPS    C2 8964   4.593   2.024   6.748  0.3064  0.1916  0.0872
   92SAPS    HS 8965   4.538   1.981   6.835 -1.2911  0.4036 -0.8042
   92SAPS   O21 8966   4.657   2.141   6.792  1.0439 -0.2276 -0.2819
   92SAPS   C21 8967   4.582   2.226   6.871  0.5027  0.6138  0.2890
   92SAPS   O22 8968   4.464   2.205   6.904 -0.6458 -0.2158 -0.3023
   92SAPS   C22 8969   4.661   2.350   6.914 -0.1930 -0.0844 -0.1699
   92SAPS   H2R 8970   4.768   2.318   6.908 -0.3134 -0.9104  1.8241
   92SAPS   H2S 8971   4.643   2.424   6.833  0.2269  0.1791 -0.0261
   92SAPS    C3 8972   4.705   1.924   6.693 -0.0736 -0.9253 -0.8835
   92SAPS    HX 8973   4.781   1.963   6.622 -1.8904  2.1777 -1.2153
   92SAPS    HY 8974   4.645   1.867   6.619  0.3522 -2.1118 -0.3316
   92SAPS   O31 8975   4.767   1.837   6.791  0.4545 -0.1258  0.3889
   92SAPS   C31 8976   4.699   1.746   6.856  0.4452  0.1830 -0.6445
   92SAPS   O32 8977   4.587   1.714   6.821 -0.0859  0.3741 -0.0203
   92SAPS   C32 8978   4.767   1.693   6.977 -0.6270 -0.1737 -0.4549
   92SAPS   H2X 8979   4.732   1.588   6.982  0.8146 -0.6176  0.7845
   92SAPS   H2Y 8980   4.738   1.746   7.071  3.7005  1.0016  0.3387
   92SAPS   C23 8981   4.623   2.403   7.055 -0.3131  0.0091  0.4924
   92SAPS   H3R 8982   4.518   2.372   7.071 -0.3015 -1.2549 -1.6446
   92SAPS   H3S 8983   4.647   2.511   7.049  0.7270 -0.3895 -3.9395
   92SAPS   C24 8984   4.704   2.342   7.169  0.0193  0.1781 -0.1093
   92SAPS   H4R 8985   4.809   2.354   7.135 -0.4007 -1.1571 -1.9706
   92SAPS   H4S 8986   4.671   2.236   7.172 -2.1692  0.7806 -1.7270
   92SAPS   C25 8987   4.683   2.403   7.306  0.0196 -0.0687 -0.6076
   92SAPS   H5R 8988   4.726   2.504   7.313  0.0099  0.0362 -1.9199
   92SAPS   C26 8989   4.637   2.347   7.420  0.4532  0.6810 -0.1325
   92SAPS   H6R 8990   4.619   2.408   7.510 -0.8339  0.8896 -0.5103
   92SAPS   C27 8991   4.585   2.212   7.439  0.5938  0.5225 -0.1891
   92SAPS   H7R 8992   4.570   2.157   7.344 -0.5915 -1.6583  1.2126
   92SAPS   H7S 8993   4.482   2.238   7.473  0.2825  3.6490 -3.2035
   92SAPS   C28 8994   4.674   2.127   7.534 -0.0823  0.4261  0.8575
   92SAPS   H8R 8995   4.764   2.086   7.486  0.2697  1.7032  0.3926
   92SAPS   C29 8996   4.648   2.112   7.664  0.7811  0.6070  1.0370
   92SAPS   H9R 8997   4.709   2.037   7.717 -2.2340 -1.5617  1.5597
   92SAPS  C210 8998   4.534   2.162   7.754 -0.3777 -0.1972 -0.0284
   92SAPS  H10R 8999   4.476   2.081   7.802  0.6351 -0.5042  0.6998
   92SAPS  H10S 9000   4.459   2.220   7.696 -2.3019 -2.6765 -0.0552
   92SAPS  C211 9001   4.593   2.258   7.855  0.3263  0.1631  0.3594
   92SAPS  H11R 9002   4.599   2.366   7.836 -2.0784 -0.0064 -1.5841
   92SAPS  C212 9003   4.619   2.215   7.978  0.3422  0.7361 -0.1965
   92SAPS  H12R 9004   4.669   2.285   8.047  0.3247  0.9876 -0.4394
   92SAPS  C213 9005   4.597   2.073   8.040 -0.6210 -0.0084 -0.8142
   92SAPS  H13R 9006   4.528   2.005   7.986  0.4587 -0.9043 -1.0685
   92SAPS  H13S 9007   4.542   2.072   8.137  0.5467 -1.2831 -0.1487
   92SAPS  C214 9008   4.726   2.000   8.069 -0.4310  0.2629  0.3620
   92SAPS  H14R 9009   4.816   2.056   8.042  0.2139  0.5197  2.8990
   92SAPS  C215 9010   4.752   1.877   8.126  0.7391 -0.3185 -0.2527
   92SAPS  H15R 9011   4.854   1.836   8.112  0.7060 -1.4932  2.6552
   92SAPS  C216 9012   4.658   1.774   8.170 -0.1740  0.1854 -0.6540
   92SAPS  H16R 9013   4.559   1.823   8.177  0.5151  1.2356  2.4259
   92SAPS  H16S 9014   4.680   1.751   8.276 -1.8908  3.1727  0.3805
   92SAPS  C217 9015   4.648   1.639   8.090 -0.8315  0.4624 -0.1766
   92SAPS  H17R 9016   4.658   1.660   7.982  2.9326 -2.6032 -0.5225
   92SAPS  H17S 9017   4.548   1.597   8.112 -1.3236  2.5215  1.7805
   92SAPS  C218 9018   4.760   1.538   8.124  0.1454  0.0296  0.1253
   92SAPS  H18R 9019   4.735   1.488   8.220  1.3757 -1.3165 -0.2311
   92SAPS  H18S 9020   4.859   1.588   8.137 -0.3429  0.4380  2.6019
   92SAPS  C219 9021   4.772   1.429   8.017 -0.2123  0.5439 -0.0156
   92SAPS  H19R 9022   4.863   1.371   8.044  0.1522  0.7874 -0.7029
   92SAPS  H19S 9023   4.780   1.480   7.918 -1.5953  0.7197 -0.0521
   92SAPS  C220 9024   4.651   1.335   8.006  0.0742 -0.3831  0.3493
   92SAPS  H20R 9025   4.642   1.256   8.083 -0.5354 -0.7279 -0.0764
   92SAPS  H20S 9026   4.667   1.277   7.913 -1.1469 -0.2232  0.0312
   92SAPS  H20T 9027   4.554   1.381   7.979  0.4313  0.5718  0.6528
   92SAPS   C33 9028   4.919   1.672   6.954 -0.3457 -0.0826 -0.3770
   92SAPS   H3X 9029   4.969   1.770   6.940  2.8335 -1.4096  1.3094
   92SAPS   H3Y 9030   4.937   1.614   6.861 -0.0608 -0.5731 -0.0172
   92SAPS   C34 9031   4.987   1.594   7.064  0.0270 -0.2156 -0.1791
   92SAPS   H4X 9032   5.095   1.619   7.062  0.1192 -0.6364 -0.6906
   92SAPS   H4Y 9033   4.981   1.483   7.058 -0.5499 -0.3094  1.5675
   92SAPS   C35 9034   4.922   1.604   7.207  0.6612  0.0924  0.7709
   92SAPS   H5X 9035   4.836   1.533   7.212  0.8663 -0.0559  2.5831
   92SAPS   H5Y 9036   4.887   1.706   7.231  0.8021  0.0608  1.1125
   92SAPS   C36 9037   5.024   1.568   7.316 -0.5919 -0.1964 -0.9155
   92SAPS   H6X 9038   5.109   1.639   7.313  0.5949 -1.6012 -0.6980
   92SAPS   H6Y 9039   5.059   1.464   7.301 -2.8390 -0.9096 -1.5509
   92SAPS   C37 9040   4.966   1.560   7.454 -0.1051  0.1361 -0.3906
   92SAPS   H7X 9041   4.886   1.490   7.485 -0.9398  2.0054  1.8369
   92SAPS   H7Y 9042   4.928   1.663   7.473 -0.5806 -0.4883  2.1237
   92SAPS   C38 9043   5.078   1.537   7.561 -0.4558  0.0499  0.0792
   92SAPS   H8X 9044   5.174   1.585   7.531  1.2000 -2.9195  0.4899
   92SAPS   H8Y 9045   5.108   1.431   7.575 -0.3566  0.3941  2.7901
   92SAPS   C39 9046   5.037   1.594   7.703 -0.3957 -0.4063  0.3287
   92SAPS   H9X 9047   4.934   1.578   7.741 -1.6106 -0.5866 -2.8427
   92SAPS   H9Y 9048   5.048   1.703   7.686  1.5957 -0.9249 -2.0092
   92SAPS  C310 9049   5.135   1.534   7.802 -0.0808  0.1164 -0.2439
   92SAPS  H10X 9050   5.241   1.556   7.777  0.0722 -0.0826  0.2391
   92SAPS  H10Y 9051   5.121   1.424   7.798  3.3157 -0.4769  1.9252
   92SAPS  C311 9052   5.120   1.561   7.955 -0.5363  0.2054  0.3991
   92SAPS  H11X 9053   5.059   1.486   8.009  0.3366 -1.1203 -0.4453
   92SAPS  H11Y 9054   5.076   1.661   7.974 -0.0695  0.4996 -0.0289
   92SAPS  C312 9055   5.256   1.554   8.023  0.6430  0.5399 -0.7010
   92SAPS  H12X 9056   5.245   1.581   8.130  3.4165  0.4225 -0.3348
   92SAPS  H12Y 9057   5.325   1.632   7.984  1.2137  0.7200  0.6686
   92SAPS  C313 9058   5.332   1.417   8.012  0.4961 -0.9671  1.0186
   92SAPS  H13X 9059   5.303   1.350   7.929  0.5412 -0.9859  1.0175
   92SAPS  H13Y 9060   5.316   1.355   8.103  0.1345 -1.0574  0.8909
   92SAPS  C314 9061   5.487   1.439   8.008  0.3508  0.1188 -0.4474
   92SAPS  H14X 9062   5.527   1.474   8.106  2.7073 -1.6634 -0.7385
   92SAPS  H14Y 9063   5.489   1.523   7.935 -1.1501 -0.0639 -0.7307
   92SAPS  C315 9064   5.561   1.306   7.963  0.2593  0.0468  0.0788
   92SAPS  H15X 9065   5.662   1.322   7.919 -0.3132 -1.5163 -1.8348
   92SAPS  H15Y 9066   5.500   1.261   7.882 -0.2577 -1.8105  1.4679
   92SAPS  C316 9067   5.581   1.208   8.080  0.0443  0.2183  1.1407
   92SAPS  H16X 9068   5.493   1.198   8.147  0.5460 -0.4834  1.7091
   92SAPS  H16Y 9069   5.665   1.244   8.144  0.3613 -0.9437  1.4026
   92SAPS  C317 9070   5.610   1.064   8.031  0.3691  0.7846  0.0231
   92SAPS  H17X 9071   5.700   1.077   7.967  0.7243 -4.3176 -0.7482
   92SAPS  H17Y 9072   5.532   1.027   7.961  3.0514 -0.7081 -2.3182
   92SAPS  C318 9073   5.646   0.957   8.138  0.4129  0.1059 -0.1213
   92SAPS  H18X 9074   5.547   0.952   8.188  0.5133  0.7603  0.1625
   92SAPS  H18Y 9075   5.721   0.979   8.218  0.5350  1.2020 -0.5300
   92SAPS  H18Z 9076   5.653   0.855   8.096  1.8592 -0.0135  0.3770
   93SAPS     N 9077   5.464   1.618   6.117  0.2219 -0.4022  0.3256
   93SAPS   HN1 9078   5.388   1.656   6.176  0.4018 -0.5851  0.6731
   93SAPS   HN2 9079   5.443   1.616   6.015  0.0310 -2.7710  0.3946
   93SAPS   HN3 9080   5.468   1.516   6.137  0.2411 -0.8111 -1.6180
   93SAPS   C12 9081   5.588   1.700   6.146  0.0978 -0.5099 -0.4779
   93SAPS  H12A 9082   5.674   1.639   6.121  1.3792 -0.0614  2.6400
   93SAPS   C13 9083   5.582   1.836   6.067 -0.0910  0.4565 -0.0566
   93SAPS  O13A 9084   5.469   1.876   6.038  0.1852 -0.5007  0.7682
   93SAPS  O13B 9085   5.673   1.919   6.084 -0.4530 -0.7029  0.2309
   93SAPS   C11 9086   5.593   1.727   6.298  0.3613  0.2774 -0.3019
   93SAPS  H11A 9087   5.496   1.766   6.334 -0.3119 -0.9475 -0.7391
   93SAPS  H11B 9088   5.672   1.801   6.324  0.5426 -0.5927  1.6820
   93SAPS     P 9089   5.742   1.554   6.436  0.1147  1.2048  0.5845
   93SAPS   O13 9090   5.724   1.411   6.471 -0.0860  0.5670  0.1486
   93SAPS   O14 9091   5.849   1.592   6.339  0.7571 -0.1875 -0.3383
   93SAPS   O12 9092   5.614   1.605   6.369  0.0463 -0.5042 -0.5810
   93SAPS   O11 9093   5.753   1.639   6.565 -0.6018 -0.0532 -0.4188
   93SAPS    C1 9094   5.631   1.703   6.617  0.4194 -0.4292  0.1199
   93SAPS    HA 9095   5.588   1.776   6.545  0.6878 -2.0328 -1.6973
   93SAPS    HB 9096   5.544   1.639   6.641  1.0690 -1.1373  0.6378
   93SAPS    C2 9097   5.660   1.789   6.751  0.2842 -0.4038 -0.0600
   93SAPS    HS 9098   5.567   1.800   6.810  0.1489 -0.4492 -0.2617
   93SAPS   O21 9099   5.705   1.923   6.711 -0.0991  0.4222 -0.2443
   93SAPS   C21 9100   5.624   2.002   6.659 -0.2032  0.9284  0.0245
   93SAPS   O22 9101   5.500   1.985   6.649  0.0817 -0.0339 -0.0077
   93SAPS   C22 9102   5.701   2.130   6.631  0.1040  0.2799 -0.5062
   93SAPS   H2R 9103   5.791   2.097   6.575  1.2432  0.6730  1.0589
   93SAPS   H2S 9104   5.644   2.199   6.565  1.0941  0.4335 -1.1991
   93SAPS    C3 9105   5.770   1.713   6.831 -0.2826 -0.5507 -0.4048
   93SAPS    HX 9106   5.861   1.689   6.771 -0.3946 -0.4672 -0.6084
   93SAPS    HY 9107   5.725   1.614   6.855 -0.4044 -1.3700 -3.7339
   93SAPS   O31 9108   5.811   1.780   6.949 -0.5367 -0.2850  0.0036
   93SAPS   C31 9109   5.900   1.882   6.927  0.0081 -0.3167  0.1798
   93SAPS   O32 9110   5.960   1.904   6.827  0.4962 -0.2607  0.5554
   93SAPS   C32 9111   5.906   1.955   7.061 -0.0295  0.5306 -0.0705
   93SAPS   H2X 9112   5.912   1.886   7.147 -1.5540  1.4240  0.7745
   93SAPS   H2Y 9113   5.811   2.009   7.081  0.8780  2.7289 -1.4589
   93SAPS   C23 9114   5.755   2.210   6.753 -0.2008  0.8515 -0.5006
   93SAPS   H3R 9115   5.840   2.274   6.721  1.1195 -1.1911 -1.1911
   93SAPS   H3S 9116   5.805   2.146   6.829  0.7449 -0.2603 -2.0222
   93SAPS   C24 9117   5.645   2.283   6.831 -0.3174  0.5296 -0.9537
   93SAPS   H4R 9118   5.554   2.236   6.873  0.8586  1.1241  2.3992
   93SAPS   H4S 9119   5.603   2.354   6.757  1.1561 -1.5368 -3.8820
   93SAPS   C25 9120   5.701   2.365   6.942  0.4626 -0.1381 -0.1218
   93SAPS   H5R 9121   5.764   2.450   6.911  1.6555  0.8459  4.5629
   93SAPS   C26 9122   5.666   2.357   7.077  0.7291 -0.0309  0.0990
   93SAPS   H6R 9123   5.719   2.423   7.149 -0.5246 -0.9291  1.8815
   93SAPS   C27 9124   5.575   2.255   7.151 -0.4434  0.7013 -0.2753
   93SAPS   H7R 9125   5.632   2.229   7.243  1.3019  1.7507 -1.0202
   93SAPS   H7S 9126   5.552   2.161   7.097 -0.4499  0.5912 -0.0779
   93SAPS   C28 9127   5.456   2.336   7.185 -0.2322  0.4729 -0.2814
   93SAPS   H8R 9128   5.394   2.358   7.096  0.3960 -0.0431 -0.8566
   93SAPS   C29 9129   5.419   2.384   7.308 -0.4200  0.1149  0.6059
   93SAPS   H9R 9130   5.318   2.428   7.316 -2.2443 -3.3758 -2.0044
   93SAPS  C210 9131   5.487   2.382   7.447 -0.1505  0.3611  0.6741
   93SAPS  H10R 9132   5.471   2.488   7.478  1.2988  1.9700 -3.6194
   93SAPS  H10S 9133   5.597   2.366   7.447  0.0350  1.5649  0.2028
   93SAPS  C211 9134   5.416   2.287   7.537  0.9310 -0.1186  0.2698
   93SAPS  H11R 9135   5.326   2.232   7.503 -0.3508  0.7367  2.2152
   93SAPS  C212 9136   5.461   2.253   7.661  0.2663  0.0439  0.2141
   93SAPS  H12R 9137   5.402   2.179   7.717  0.6912  0.4147  1.1679
   93SAPS  C213 9138   5.573   2.333   7.733  0.3531 -0.1982  0.7905
   93SAPS  H13R 9139   5.650   2.370   7.662  0.0439 -1.6562 -0.3238
   93SAPS  H13S 9140   5.625   2.261   7.799  0.9297 -0.7969 -0.2897
   93SAPS  C214 9141   5.518   2.459   7.798  0.4076  0.1491  0.1214
   93SAPS  H14R 9142   5.483   2.528   7.720 -2.0630 -2.8816 -1.5231
   93SAPS  C215 9143   5.508   2.492   7.937 -0.5998 -0.1149 -0.0680
   93SAPS  H15R 9144   5.477   2.593   7.967 -0.5992  0.1332 -0.8678
   93SAPS  C216 9145   5.559   2.410   8.046  0.1446 -0.8425 -0.6348
   93SAPS  H16R 9146   5.647   2.451   8.099  1.2128 -1.0252 -2.2363
   93SAPS  H16S 9147   5.582   2.306   8.013  1.5290 -0.0872 -2.1109
   93SAPS  C217 9148   5.448   2.401   8.163 -0.2199  0.1186 -0.0387
   93SAPS  H17R 9149   5.466   2.314   8.230 -1.6554 -0.1256  0.0616
   93SAPS  H17S 9150   5.346   2.391   8.119  0.4285  2.3673 -2.1110
   93SAPS  C218 9151   5.457   2.530   8.249  0.6538  0.0561 -0.4325
   93SAPS  H18R 9152   5.438   2.618   8.183  0.8967  0.6873  0.3402
   93SAPS  H18S 9153   5.562   2.538   8.283 -0.0039  0.9368  1.4728
   93SAPS  C219 9154   5.349   2.534   8.355 -0.0031 -0.0918  0.1160
   93SAPS  H19R 9155   5.359   2.445   8.421 -1.4740 -0.4883 -0.1849
   93SAPS  H19S 9156   5.252   2.532   8.302  1.2310 -1.1797 -2.2243
   93SAPS  C220 9157   5.351   2.665   8.431  0.2416 -0.5341  0.0186
   93SAPS  H20R 9158   5.309   2.648   8.532  1.2206 -2.6503  0.0816
   93SAPS  H20S 9159   5.296   2.740   8.369  2.8390  0.6933 -0.8854
   93SAPS  H20T 9160   5.453   2.709   8.436  0.0306 -0.0656  0.2950
   93SAPS   C33 9161   6.029   2.059   7.059  0.0801 -0.7696  0.4773
   93SAPS   H3X 9162   6.034   2.102   6.957  2.1610 -1.5014  0.2431
   93SAPS   H3Y 9163   6.125   2.004   7.062  0.3573 -0.2488  1.2376
   93SAPS   C34 9164   6.014   2.157   7.174 -0.5639 -0.6601  0.6457
   93SAPS   H4X 9165   5.927   2.222   7.153 -0.6202 -1.9370 -3.3540
   93SAPS   H4Y 9166   6.091   2.238   7.182 -0.7806 -0.6441  3.2769
   93SAPS   C35 9167   6.000   2.088   7.312 -0.5554 -0.4763 -0.4970
   93SAPS   H5X 9168   6.098   2.041   7.338 -0.8747 -1.2034 -0.6204
   93SAPS   H5Y 9169   5.925   2.006   7.304  0.0472 -1.0788 -0.0337
   93SAPS   C36 9170   5.968   2.198   7.419  0.5611  0.6758 -0.0421
   93SAPS   H6X 9171   5.870   2.250   7.412 -1.1583 -2.7226 -2.2247
   93SAPS   H6Y 9172   6.039   2.282   7.402  0.4776  0.6689 -0.4175
   93SAPS   C37 9173   5.989   2.167   7.567 -0.4345  0.3633 -0.1657
   93SAPS   H7X 9174   6.007   2.252   7.637  2.1043 -0.5564  0.3467
   93SAPS   H7Y 9175   6.080   2.103   7.557 -0.1325  0.7368  0.1612
   93SAPS   C38 9176   5.873   2.094   7.624  0.0216  1.1706 -0.7618
   93SAPS   H8X 9177   5.864   1.991   7.582  4.4877  1.3929 -2.5652
   93SAPS   H8Y 9178   5.778   2.146   7.599 -0.6680  0.1197 -0.3783
   93SAPS   C39 9179   5.878   2.101   7.781  0.7655  0.9622 -0.5792
   93SAPS   H9X 9180   5.826   2.192   7.816 -0.6157  0.4626 -1.2895
   93SAPS   H9Y 9181   5.982   2.096   7.822  0.8218  0.2673 -0.7864
   93SAPS  C310 9182   5.797   1.979   7.821 -0.1283 -0.5725  0.5621
   93SAPS  H10X 9183   5.853   1.887   7.794  0.3387 -0.4903  1.2290
   93SAPS  H10Y 9184   5.707   1.983   7.756 -0.7162  1.1207  1.4539
   93SAPS  C311 9185   5.760   1.966   7.968  0.0408  0.2360 -0.1315
   93SAPS  H11X 9186   5.715   2.061   8.004  0.1557  0.2113  0.0780
   93SAPS  H11Y 9187   5.855   1.970   8.025 -0.0884  1.0047  0.0330
   93SAPS  C312 9188   5.676   1.847   8.009 -1.1023 -0.9239  0.7503
   93SAPS  H12X 9189   5.738   1.759   7.982 -1.3405 -0.5684 -1.0711
   93SAPS  H12Y 9190   5.577   1.848   7.958 -0.9038  3.1044  0.3098
   93SAPS  C313 9191   5.666   1.848   8.163 -0.3715 -0.1121 -0.3952
   93SAPS  H13X 9192   5.605   1.937   8.187  3.3957  2.0069  1.6487
   93SAPS  H13Y 9193   5.765   1.874   8.206 -0.3289 -2.5960  1.1009
   93SAPS  C314 9194   5.598   1.717   8.208  0.1817  0.4473  0.4766
   93SAPS  H14X 9195   5.658   1.626   8.184  0.3920  0.9140 -0.8177
   93SAPS  H14Y 9196   5.503   1.699   8.154  1.1529 -1.5005 -0.6538
   93SAPS  C315 9197   5.580   1.720   8.363 -0.7131 -0.1022  0.4714
   93SAPS  H15X 9198   5.529   1.814   8.396 -1.3464  0.4859 -2.1195
   93SAPS  H15Y 9199   5.687   1.723   8.394 -0.0546 -2.8748 -1.3991
   93SAPS  C316 9200   5.505   1.594   8.417 -0.1572 -0.5245  0.0966
   93SAPS  H16X 9201   5.559   1.505   8.378  1.4836  1.4047 -2.1629
   93SAPS  H16Y 9202   5.408   1.586   8.365 -0.2055 -1.5497  0.3299
   93SAPS  C317 9203   5.487   1.593   8.574  0.3189 -0.8328  0.6773
   93SAPS  H17X 9204   5.406   1.666   8.595  1.0532 -0.2962  1.6746
   93SAPS  H17Y 9205   5.566   1.641   8.634  0.3661  0.3507 -0.3110
   93SAPS  C318 9206   5.457   1.453   8.611  0.1025 -0.2767 -0.1558
   93SAPS  H18X 9207   5.389   1.414   8.533 -0.6469 -1.8005  1.2281
   93SAPS  H18Y 9208   5.420   1.445   8.715  0.1422  0.5344 -0.0764
   93SAPS  H18Z 9209   5.546   1.388   8.602 -1.9025 -2.9337 -1.4689
   94SAPS     N 9210   5.433   4.623   5.782  0.4235  0.3374  0.8299
   94SAPS   HN1 9211   5.345   4.611   5.729 -0.7049  0.8906  2.5302
   94SAPS   HN2 9212   5.467   4.525   5.787 -2.5078 -0.6643  1.7439
   94SAPS   HN3 9213   5.417   4.667   5.874 -1.0325  0.0853  0.7021
   94SAPS   C12 9214   5.523   4.701   5.696 -0.4822 -0.3718 -0.3231
   94SAPS  H12A 9215   5.566   4.626   5.630 -1.5964  0.5635 -2.1465
   94SAPS   C13 9216   5.464   4.801   5.604 -0.2751  0.1347 -0.8189
   94SAPS  O13A 9217   5.344   4.828   5.619 -0.2073  0.4322  0.1199
   94SAPS  O13B 9218   5.532   4.847   5.509 -0.2248 -0.5425  0.5630
   94SAPS   C11 9219   5.634   4.762   5.783  0.0467 -0.2329 -0.3897
   94SAPS  H11A 9220   5.583   4.826   5.859 -1.4993 -0.6063 -1.1071
   94SAPS  H11B 9221   5.704   4.819   5.718  1.1453 -0.8505  0.2305
   94SAPS     P 9222   5.847   4.711   5.927 -0.2902 -0.2207 -0.3794
   94SAPS   O13 9223   5.943   4.600   5.906  0.0275  0.0439  0.0575
   94SAPS   O14 9224   5.894   4.846   5.888  0.0050  0.0930 -0.0124
   94SAPS   O12 9225   5.719   4.661   5.847 -0.0198  0.3502 -0.1522
   94SAPS   O11 9226   5.786   4.713   6.069  0.0194  0.1851  0.0965
   94SAPS    C1 9227   5.693   4.616   6.119  0.2809 -0.5213 -0.2037
   94SAPS    HA 9228   5.594   4.629   6.068 -0.7244 -2.7229  1.1184
   94SAPS    HB 9229   5.715   4.508   6.105 -1.5347 -1.1014  1.2571
   94SAPS    C2 9230   5.666   4.648   6.265 -0.9510  0.0874 -0.1263
   94SAPS    HS 9231   5.641   4.756   6.268 -2.0517 -0.1774  0.3328
   94SAPS   O21 9232   5.789   4.611   6.336 -0.2345 -0.5149 -0.2337
   94SAPS   C21 9233   5.828   4.697   6.424 -0.3352 -0.6462 -0.1983
   94SAPS   O22 9234   5.787   4.809   6.448 -0.3903 -0.1130 -0.4015
   94SAPS   C22 9235   5.939   4.625   6.501  0.1971  0.2361  0.3619
   94SAPS   H2R 9236   6.021   4.610   6.428 -0.2402 -2.5665  0.3966
   94SAPS   H2S 9237   5.979   4.699   6.573  0.8075  1.5286 -1.2694
   94SAPS    C3 9238   5.558   4.555   6.323 -0.1438  0.4188  0.1954
   94SAPS    HX 9239   5.577   4.449   6.300  4.5226  1.7418 -2.6894
   94SAPS    HY 9240   5.465   4.588   6.271  0.1691 -1.3971 -1.5640
   94SAPS   O31 9241   5.558   4.556   6.467 -0.0161 -0.2303  0.1478
   94SAPS   C31 9242   5.465   4.627   6.534 -0.1107  0.0359  0.5346
   94SAPS   O32 9243   5.374   4.690   6.488  0.1703  0.0312  0.8259
   94SAPS   C32 9244   5.510   4.633   6.679  0.5811  0.2563 -0.2913
   94SAPS   H2X 9245   5.551   4.734   6.699  1.3380 -0.0570 -0.2750
   94SAPS   H2Y 9246   5.586   4.553   6.691  1.2875  1.0907  0.8419
   94SAPS   C23 9247   5.903   4.485   6.555  0.6700  0.0112  0.4557
   94SAPS   H3R 9248   5.934   4.406   6.484 -0.6681 -1.3668  1.3803
   94SAPS   H3S 9249   5.792   4.473   6.559  0.9918 -3.0308  1.3788
   94SAPS   C24 9250   5.947   4.455   6.702 -0.1883  0.0687 -0.1196
   94SAPS   H4R 9251   6.054   4.482   6.704 -0.1521 -0.0237 -0.7587
   94SAPS   H4S 9252   5.933   4.350   6.737  1.3083 -0.3516 -0.7467
   94SAPS   C25 9253   5.880   4.550   6.800 -0.5509 -0.4702 -0.2675
   94SAPS   H5R 9254   5.916   4.653   6.793  1.1891 -1.1026 -0.9125
   94SAPS   C26 9255   5.802   4.510   6.903  0.0979  0.5088  0.0947
   94SAPS   H6R 9256   5.760   4.582   6.975 -1.5261  0.3225 -0.6356
   94SAPS   C27 9257   5.768   4.363   6.934 -0.3518 -0.3480  0.0919
   94SAPS   H7R 9258   5.752   4.301   6.843  1.8027  0.4809 -0.8791
   94SAPS   H7S 9259   5.672   4.360   6.989 -0.7332 -1.9279 -0.6314
   94SAPS   C28 9260   5.879   4.306   7.017  0.6037  0.3389 -0.0295
   94SAPS   H8R 9261   5.972   4.290   6.959  0.0186  2.3792 -1.6367
   94SAPS   C29 9262   5.881   4.273   7.143 -0.3386  0.3407  0.2105
   94SAPS   H9R 9263   5.978   4.239   7.183 -1.1694  1.7060  3.6068
   94SAPS  C210 9264   5.764   4.288   7.235  1.1077 -0.2187 -0.3532
   94SAPS  H10R 9265   5.719   4.188   7.250 -5.1945  2.5100  0.3085
   94SAPS  H10S 9266   5.678   4.342   7.192  0.8211  0.3610  0.9123
   94SAPS  C211 9267   5.806   4.360   7.362 -0.6314  0.4562 -0.6403
   94SAPS  H11R 9268   5.859   4.455   7.348 -0.9605  0.6141 -0.8307
   94SAPS  C212 9269   5.784   4.313   7.485 -0.1621  0.0201  0.2311
   94SAPS  H12R 9270   5.816   4.363   7.577  0.3819 -1.2493  0.7370
   94SAPS  C213 9271   5.728   4.172   7.509 -0.4286  0.2570  0.2640
   94SAPS  H13R 9272   5.745   4.109   7.419  0.8217 -0.0851  0.7242
   94SAPS  H13S 9273   5.618   4.179   7.526  0.0264  0.4990  3.3921
   94SAPS  C214 9274   5.802   4.106   7.625  0.2041 -0.4054 -0.5265
   94SAPS  H14R 9275   5.910   4.093   7.607  0.1018  0.0057 -1.5192
   94SAPS  C215 9276   5.738   4.051   7.736 -0.3097 -0.6277  0.5483
   94SAPS  H15R 9277   5.795   4.018   7.824 -0.3583  0.4902  1.0026
   94SAPS  C216 9278   5.590   4.050   7.765 -0.1694 -0.0434 -0.2042
   94SAPS  H16R 9279   5.563   3.955   7.815 -1.5354  2.4745  4.1171
   94SAPS  H16S 9280   5.534   4.033   7.671  0.7061  1.4096 -0.9959
   94SAPS  C217 9281   5.541   4.175   7.847 -0.3802 -0.3105  0.4347
   94SAPS  H17R 9282   5.430   4.180   7.840 -0.3605 -0.7708 -0.2694
   94SAPS  H17S 9283   5.594   4.263   7.803  0.8669 -0.8242  0.8725
   94SAPS  C218 9284   5.579   4.172   7.996 -0.3953 -1.2296 -0.2126
   94SAPS  H18R 9285   5.518   4.243   8.055  0.4091 -1.3025  0.7120
   94SAPS  H18S 9286   5.681   4.216   7.995 -1.2781  0.9142  1.1445
   94SAPS  C219 9287   5.571   4.028   8.056 -0.6220  0.0421  0.3115
   94SAPS  H19R 9288   5.641   3.964   7.999  0.3285 -0.0337  1.5520
   94SAPS  H19S 9289   5.468   3.986   8.046 -0.8793  0.5546  0.7745
   94SAPS  C220 9290   5.619   4.044   8.198 -0.8027  0.5375 -0.5107
   94SAPS  H20R 9291   5.583   4.136   8.248  2.0329  1.4697 -0.1004
   94SAPS  H20S 9292   5.730   4.049   8.209 -0.7700 -2.2482  0.8949
   94SAPS  H20T 9293   5.609   3.967   8.278  3.5644 -0.2705 -0.5979
   94SAPS   C33 9294   5.399   4.623   6.778  0.2391  0.1735  0.5039
   94SAPS   H3X 9295   5.336   4.538   6.744  1.1472  0.5663 -2.3538
   94SAPS   H3Y 9296   5.344   4.719   6.769 -0.5024 -0.4377 -1.8449
   94SAPS   C34 9297   5.438   4.584   6.916 -0.9450  0.8586 -0.3280
   94SAPS   H4X 9298   5.496   4.666   6.961 -3.0026  0.7133  2.7148
   94SAPS   H4Y 9299   5.495   4.489   6.914  0.2105  1.5566 -0.9607
   94SAPS   C35 9300   5.316   4.559   7.013 -0.5575  0.3790 -0.6130
   94SAPS   H5X 9301   5.271   4.459   6.995  1.6379 -0.7376 -0.0834
   94SAPS   H5Y 9302   5.239   4.638   7.018 -0.0606  0.8052  0.5706
   94SAPS   C36 9303   5.386   4.549   7.154 -0.6255 -0.6572 -0.5374
   94SAPS   H6X 9304   5.438   4.647   7.164 -0.3005 -0.7724 -1.0951
   94SAPS   H6Y 9305   5.456   4.463   7.162 -0.3545 -0.6314 -2.5587
   94SAPS   C37 9306   5.279   4.536   7.271  0.2446 -0.1926  0.3066
   94SAPS   H7X 9307   5.221   4.446   7.240 -1.6646  1.3013 -0.5483
   94SAPS   H7Y 9308   5.221   4.630   7.280  0.9089  0.3983 -1.4455
   94SAPS   C38 9309   5.340   4.485   7.404  0.7188 -0.4150 -0.1651
   94SAPS   H8X 9310   5.404   4.397   7.383 -1.0117 -1.5213 -0.9522
   94SAPS   H8Y 9311   5.255   4.454   7.469 -0.5113  0.0606 -1.4936
   94SAPS   C39 9312   5.424   4.599   7.469  0.7858 -0.2304 -0.1598
   94SAPS   H9X 9313   5.367   4.692   7.489  0.5736 -0.6357  1.1970
   94SAPS   H9Y 9314   5.506   4.632   7.401  1.6013  2.8250  2.1912
   94SAPS  C310 9315   5.490   4.544   7.595  0.2298 -0.3233  0.6056
   94SAPS  H10X 9316   5.543   4.452   7.563  0.2713  0.4252 -1.5417
   94SAPS  H10Y 9317   5.408   4.519   7.666 -0.9292 -0.8292 -0.8953
   94SAPS  C311 9318   5.595   4.644   7.662 -0.4041  0.3825  0.1389
   94SAPS  H11X 9319   5.553   4.747   7.666 -1.4392 -0.0437  0.1855
   94SAPS  H11Y 9320   5.685   4.656   7.598  0.4926  2.9098  1.7681
   94SAPS  C312 9321   5.639   4.591   7.797 -0.3671  0.4736  0.1371
   94SAPS  H12X 9322   5.739   4.630   7.828  0.7813 -0.7358 -1.9114
   94SAPS  H12Y 9323   5.651   4.481   7.798  1.0115  0.5966  2.6229
   94SAPS  C313 9324   5.535   4.625   7.899 -0.5547  0.4734  0.4418
   94SAPS  H13X 9325   5.430   4.611   7.864 -0.4631  2.6199 -0.7803
   94SAPS  H13Y 9326   5.550   4.732   7.921  2.0381 -0.0331  1.2894
   94SAPS  C314 9327   5.545   4.548   8.032 -0.8348  0.5926  0.3460
   94SAPS  H14X 9328   5.646   4.528   8.072 -1.3650 -0.1078  1.3696
   94SAPS  H14Y 9329   5.497   4.448   8.018 -0.0685  0.3185 -0.3461
   94SAPS  C315 9330   5.479   4.610   8.153  0.1058 -0.0390  0.0946
   94SAPS  H15X 9331   5.377   4.647   8.128  0.4888  1.5640  0.8210
   94SAPS  H15Y 9332   5.535   4.699   8.190 -1.1637  0.9040 -0.2030
   94SAPS  C316 9333   5.452   4.511   8.269  0.7079 -0.8982  0.7688
   94SAPS  H16X 9334   5.381   4.429   8.243  1.7381 -0.7435 -2.7857
   94SAPS  H16Y 9335   5.403   4.567   8.351  1.7977  1.1813  0.0441
   94SAPS  C317 9336   5.579   4.446   8.313  0.1808 -0.9020 -0.3759
   94SAPS  H17X 9337   5.656   4.521   8.342  1.6035 -2.1349 -0.9248
   94SAPS  H17Y 9338   5.617   4.379   8.234 -0.7443 -0.2102 -1.4278
   94SAPS  C318 9339   5.547   4.350   8.430 -0.2732 -0.9756 -0.5072
   94SAPS  H18X 9340   5.466   4.282   8.395 -1.9301 -0.0492  1.4167
   94SAPS  H18Y 9341   5.495   4.409   8.508  0.1410 -1.1357 -0.1096
   94SAPS  H18Z 9342   5.638   4.301   8.470 -0.7014  0.0265  1.7621
   95SAPS     N 9343   1.993   2.534   6.222 -0.2580 -0.1513 -0.2293
   95SAPS   HN1 9344   2.023   2.440   6.190 -0.4680  0.2630 -1.6684
   95SAPS   HN2 9345   1.903   2.565   6.180 -1.0369 -3.0280 -0.7403
   95SAPS   HN3 9346   2.073   2.599   6.208  0.7534 -1.0871  1.1281
   95SAPS   C12 9347   1.969   2.521   6.368  0.8743 -0.3690  0.4364
   95SAPS  H12A 9348   2.015   2.608   6.414 -0.9761  1.5500 -1.2134
   95SAPS   C13 9349   1.817   2.510   6.410  0.1468 -0.5485 -0.7137
   95SAPS  O13A 9350   1.729   2.521   6.319  0.3872 -0.0695 -0.7281
   95SAPS  O13B 9351   1.788   2.500   6.533 -0.6189 -0.1831  0.1639
   95SAPS   C11 9352   2.044   2.392   6.409 -0.5519  0.4235 -0.2962
   95SAPS  H11A 9353   1.997   2.306   6.355 -3.6037  1.1072  1.1158
   95SAPS  H11B 9354   2.020   2.375   6.517 -3.3986  1.2995 -0.7455
   95SAPS     P 9355   2.281   2.288   6.417 -0.2091  0.4170  0.1595
   95SAPS   O13 9356   2.243   2.166   6.340 -0.0492 -0.0623 -0.1508
   95SAPS   O14 9357   2.421   2.332   6.388  0.1172  0.1376 -0.0991
   95SAPS   O12 9358   2.178   2.403   6.378  0.3230  0.7381  0.4392
   95SAPS   O11 9359   2.261   2.275   6.576  0.2886 -0.5958 -0.0109
   95SAPS    C1 9360   2.281   2.392   6.656  0.3057  0.0248  0.2771
   95SAPS    HA 9361   2.390   2.406   6.671  0.6204 -1.7833 -0.1745
   95SAPS    HB 9362   2.233   2.483   6.615  4.3654  1.0400 -2.5601
   95SAPS    C2 9363   2.214   2.369   6.796 -0.6235 -0.1559  0.1757
   95SAPS    HS 9364   2.232   2.462   6.854  0.1727  0.1458 -0.5494
   95SAPS   O21 9365   2.276   2.265   6.868  0.3940 -0.0855  0.4981
   95SAPS   C21 9366   2.395   2.284   6.930  0.1758 -1.2704  0.2756
   95SAPS   O22 9367   2.453   2.393   6.941  0.0129  0.0443  0.6069
   95SAPS   C22 9368   2.460   2.149   6.964 -0.0185  0.1262 -0.2326
   95SAPS   H2R 9369   2.378   2.087   7.007  0.9055 -1.1077 -0.2428
   95SAPS   H2S 9370   2.487   2.093   6.872  0.9023 -1.0336  0.7333
   95SAPS    C3 9371   2.062   2.360   6.783 -0.3387  0.3553 -0.9225
   95SAPS    HX 9372   2.047   2.286   6.701 -0.5739  0.1567 -0.7014
   95SAPS    HY 9373   2.015   2.454   6.746 -0.7950 -0.7911 -3.3653
   95SAPS   O31 9374   2.012   2.315   6.907 -0.1859  0.0680  0.8927
   95SAPS   C31 9375   1.980   2.410   6.994 -0.8135 -0.2423  0.0500
   95SAPS   O32 9376   1.990   2.528   6.975 -0.5965 -0.4681 -0.6619
   95SAPS   C32 9377   1.923   2.349   7.114 -0.6457  0.3911 -0.4040
   95SAPS   H2X 9378   1.935   2.239   7.110 -1.6870  0.2632 -0.2290
   95SAPS   H2Y 9379   1.814   2.369   7.129 -0.1166  1.7697  2.0099
   95SAPS   C23 9380   2.593   2.143   7.045 -0.3960 -0.4152  0.6117
   95SAPS   H3R 9381   2.580   2.205   7.136  2.7484 -1.4274  1.8445
   95SAPS   H3S 9382   2.682   2.184   6.992 -0.5995 -0.9200 -0.1181
   95SAPS   C24 9383   2.633   1.995   7.073 -0.0555  0.2612 -0.8642
   95SAPS   H4R 9384   2.732   1.977   7.120  0.2561  2.1153 -0.7933
   95SAPS   H4S 9385   2.627   1.945   6.973 -2.1639  1.4967 -1.3886
   95SAPS   C25 9386   2.530   1.936   7.164  0.0155  0.1556 -1.2363
   95SAPS   H5R 9387   2.456   1.869   7.117 -1.7482  0.7909  0.5188
   95SAPS   C26 9388   2.533   1.934   7.298  0.2305  0.6932 -0.9044
   95SAPS   H6R 9389   2.457   1.893   7.366  3.0335 -0.3475  1.7240
   95SAPS   C27 9390   2.644   1.996   7.380  0.3129  0.4582  0.3028
   95SAPS   H7R 9391   2.650   2.103   7.348  0.8682  0.1840 -0.5144
   95SAPS   H7S 9392   2.740   1.950   7.350 -1.8740 -1.6621 -4.0968
   95SAPS   C28 9393   2.631   1.989   7.531  0.0374  0.2893  0.8301
   95SAPS   H8R 9394   2.562   1.911   7.568  0.4929  0.3291  1.7562
   95SAPS   C29 9395   2.690   2.075   7.621 -0.4081  0.5636 -0.1851
   95SAPS   H9R 9396   2.660   2.046   7.723 -0.1534  0.7664 -0.0516
   95SAPS  C210 9397   2.762   2.205   7.602 -0.0110  0.5262 -0.4741
   95SAPS  H10R 9398   2.689   2.284   7.574  1.6503  3.2180  2.4786
   95SAPS  H10S 9399   2.833   2.186   7.518  1.1726  3.5262 -0.1961
   95SAPS  C211 9400   2.822   2.253   7.732  0.1140  0.1333 -0.1702
   95SAPS  H11R 9401   2.781   2.215   7.827  2.2900 -1.0314  0.3181
   95SAPS  C212 9402   2.925   2.336   7.740  0.6707 -0.1168 -0.0312
   95SAPS  H12R 9403   2.962   2.354   7.842 -1.1101 -2.1299  1.0028
   95SAPS  C213 9404   2.999   2.402   7.628 -0.1719  0.2203  0.0073
   95SAPS  H13R 9405   3.028   2.310   7.573 -0.9675 -0.8072  1.3051
   95SAPS  H13S 9406   3.094   2.451   7.657 -0.7818  1.0466  0.6395
   95SAPS  C214 9407   2.917   2.493   7.540 -0.3280  0.9441 -0.2019
   95SAPS  H14R 9408   2.883   2.585   7.591  0.6563  1.0490  0.2730
   95SAPS  C215 9409   2.891   2.476   7.406 -0.6041  0.4943  0.4257
   95SAPS  H15R 9410   2.807   2.531   7.361 -0.7135  1.9199  2.3268
   95SAPS  C216 9411   2.936   2.361   7.321  0.6702 -0.0559 -0.0081
   95SAPS  H16R 9412   2.857   2.285   7.306  2.5947 -1.9552 -0.9130
   95SAPS  H16S 9413   3.022   2.312   7.372  0.2959  0.9024  1.5879
   95SAPS  C217 9414   2.989   2.413   7.189  0.5761  1.1430  0.2590
   95SAPS  H17R 9415   3.038   2.324   7.142 -1.1517 -0.8555  2.1135
   95SAPS  H17S 9416   3.057   2.498   7.212 -0.5200  1.6137  1.8167
   95SAPS  C218 9417   2.874   2.462   7.102 -0.3723 -0.1911 -0.1496
   95SAPS  H18R 9418   2.826   2.550   7.150 -0.0215 -0.5528  0.8682
   95SAPS  H18S 9419   2.801   2.380   7.085 -1.6525  0.5749  1.5752
   95SAPS  C219 9420   2.926   2.494   6.957 -0.3782  0.3204 -0.1007
   95SAPS  H19R 9421   2.997   2.411   6.933 -1.2958 -0.5516  0.1558
   95SAPS  H19S 9422   2.987   2.586   6.967 -0.6073  0.9539 -3.7378
   95SAPS  C220 9423   2.827   2.506   6.849  0.2910  0.3504 -0.2313
   95SAPS  H20R 9424   2.762   2.595   6.861  1.7014  1.0112  2.9737
   95SAPS  H20S 9425   2.770   2.411   6.840  0.4364  0.1051  1.4089
   95SAPS  H20T 9426   2.882   2.507   6.752  0.6238 -0.2459 -0.0508
   95SAPS   C33 9427   1.982   2.419   7.243 -0.2783  0.4500  0.0349
   95SAPS   H3X 9428   1.975   2.529   7.229  1.9863  0.6671  0.4171
   95SAPS   H3Y 9429   2.090   2.394   7.254 -0.3805  0.5067  1.2112
   95SAPS   C34 9430   1.918   2.375   7.379 -0.1605 -0.0198  1.0197
   95SAPS   H4X 9431   1.916   2.265   7.390 -0.6120  0.0121  1.2901
   95SAPS   H4Y 9432   1.813   2.407   7.361 -0.1977 -0.7194 -0.0283
   95SAPS   C35 9433   1.989   2.439   7.499 -0.1218 -0.6619  0.0911
   95SAPS   H5X 9434   2.012   2.546   7.478  0.5581 -0.5835  1.1882
   95SAPS   H5Y 9435   2.088   2.390   7.512 -0.6208 -1.6914  0.0253
   95SAPS   C36 9436   1.912   2.422   7.625 -0.0447  0.0469 -0.1351
   95SAPS   H6X 9437   1.914   2.317   7.660  0.5031  0.2361  0.4161
   95SAPS   H6Y 9438   1.811   2.453   7.592  0.7893  1.5047 -1.4074
   95SAPS   C37 9439   1.957   2.507   7.746  0.3120 -0.0250  0.2752
   95SAPS   H7X 9440   1.966   2.611   7.710  1.6314  0.6002  2.2941
   95SAPS   H7Y 9441   2.057   2.482   7.788  0.3487 -1.0471 -0.3890
   95SAPS   C38 9442   1.863   2.498   7.867  0.2558 -0.2129 -0.1209
   95SAPS   H8X 9443   1.756   2.518   7.842  0.3397  1.5568  0.8792
   95SAPS   H8Y 9444   1.889   2.569   7.948  1.4794 -1.0433  0.2276
   95SAPS   C39 9445   1.872   2.364   7.943 -0.0825 -0.7366 -0.1643
   95SAPS   H9X 9446   1.978   2.345   7.969  0.6308  1.4354 -1.3767
   95SAPS   H9Y 9447   1.854   2.281   7.871  1.0159 -2.7363  1.7757
   95SAPS  C310 9448   1.785   2.347   8.066 -0.1659  0.1470  0.2140
   95SAPS  H10X 9449   1.804   2.243   8.097  2.5318  0.8105  0.9234
   95SAPS  H10Y 9450   1.680   2.378   8.046 -0.4874 -0.1009  1.4926
   95SAPS  C311 9451   1.825   2.448   8.173 -0.1227  0.1796 -0.0030
   95SAPS  H11X 9452   1.796   2.553   8.150 -0.4368 -0.0833 -0.8233
   95SAPS  H11Y 9453   1.936   2.458   8.178 -0.0529 -1.3562  2.4638
   95SAPS  C312 9454   1.759   2.403   8.310  0.2110  0.1585  0.4424
   95SAPS  H12X 9455   1.787   2.297   8.325 -0.2983 -0.2283 -1.2045
   95SAPS  H12Y 9456   1.648   2.396   8.304  0.1571 -1.0483  2.4975
   95SAPS  C313 9457   1.792   2.483   8.439  0.4888 -0.3833 -0.3125
   95SAPS  H13X 9458   1.794   2.589   8.405 -1.0139  0.4721  2.1042
   95SAPS  H13Y 9459   1.897   2.459   8.465  0.5038  1.6887  1.7712
   95SAPS  C314 9460   1.698   2.473   8.556 -0.8012  0.3561 -0.0699
   95SAPS  H14X 9461   1.598   2.503   8.519 -1.3388  0.0989  1.1240
   95SAPS  H14Y 9462   1.734   2.548   8.629 -0.5424  0.1866 -0.0228
   95SAPS  C315 9463   1.698   2.341   8.633 -0.1807  1.0836 -0.4779
   95SAPS  H15X 9464   1.800   2.312   8.667 -0.0053  0.8210 -1.2160
   95SAPS  H15Y 9465   1.658   2.262   8.566  1.7861  1.4271 -2.1323
   95SAPS  C316 9466   1.617   2.354   8.761  0.5629 -0.0066 -0.0815
   95SAPS  H16X 9467   1.680   2.412   8.832 -1.8164  0.8660  1.3727
   95SAPS  H16Y 9468   1.609   2.256   8.814  1.1499  1.2975  2.4854
   95SAPS  C317 9469   1.481   2.423   8.749  0.3586  0.0997  0.3599
   95SAPS  H17X 9470   1.433   2.380   8.658  1.1642  0.7946 -0.4075
   95SAPS  H17Y 9471   1.488   2.534   8.751  2.0432 -0.0075  1.5798
   95SAPS  C318 9472   1.384   2.391   8.870 -0.1085  0.3523 -0.5407
   95SAPS  H18X 9473   1.286   2.443   8.866  0.0690  0.9811  2.2588
   95SAPS  H18Y 9474   1.432   2.412   8.968  0.5797  1.7922 -1.1630
   95SAPS  H18Z 9475   1.363   2.282   8.872  3.0432 -0.2703  0.7725
   96SAPS     N 9476   2.774   4.095   6.111  0.1857 -0.1418 -0.3591
   96SAPS   HN1 9477   2.844   4.079   6.186 -0.4953 -1.7525 -0.0502
   96SAPS   HN2 9478   2.793   4.175   6.047 -1.0205  0.6592  0.2413
   96SAPS   HN3 9479   2.684   4.125   6.156  0.8512  0.9177  0.3014
   96SAPS   C12 9480   2.760   3.976   6.022  0.9651  0.0885 -0.6855
   96SAPS  H12A 9481   2.681   4.006   5.955 -0.6960  1.1464  1.6770
   96SAPS   C13 9482   2.880   3.943   5.936 -0.1611 -0.4367  0.8353
   96SAPS  O13A 9483   2.976   4.027   5.949 -0.0435 -0.0369  0.5461
   96SAPS  O13B 9484   2.885   3.844   5.850 -0.0399 -0.4008 -0.0402
   96SAPS   C11 9485   2.722   3.849   6.111 -0.2877  0.5648  0.1661
   96SAPS  H11A 9486   2.813   3.819   6.168 -0.5281 -0.8764 -0.1936
   96SAPS  H11B 9487   2.688   3.761   6.052 -0.9479  0.0640  1.2808
   96SAPS     P 9488   2.603   3.767   6.318 -0.0336  0.0548  0.5739
   96SAPS   O13 9489   2.484   3.788   6.400  1.0675 -0.2755 -0.0612
   96SAPS   O14 9490   2.623   3.628   6.263 -0.9275  0.0141 -0.3080
   96SAPS   O12 9491   2.616   3.878   6.207  0.1771  0.5007 -0.0484
   96SAPS   O11 9492   2.727   3.791   6.406 -0.3710  0.0839  0.5928
   96SAPS    C1 9493   2.743   3.916   6.487  0.6133 -0.7190  0.1569
   96SAPS    HA 9494   2.824   3.984   6.454  1.7277 -1.2072  1.7993
   96SAPS    HB 9495   2.648   3.973   6.490  0.1881 -1.4663  0.9651
   96SAPS    C2 9496   2.783   3.887   6.635  0.0913 -0.2113  0.6514
   96SAPS    HS 9497   2.876   3.828   6.640  0.2647  0.2073  2.9144
   96SAPS   O21 9498   2.683   3.806   6.703 -0.3718 -0.4373  0.5780
   96SAPS   C21 9499   2.733   3.733   6.812 -0.3456 -0.3513  0.4383
   96SAPS   O22 9500   2.852   3.719   6.839 -0.0654 -0.3665 -0.1227
   96SAPS   C22 9501   2.618   3.668   6.887  0.6927  0.2057  0.7133
   96SAPS   H2R 9502   2.541   3.747   6.893 -0.7185 -0.8636 -2.2421
   96SAPS   H2S 9503   2.573   3.597   6.814 -0.4524  0.3522  1.2577
   96SAPS    C3 9504   2.797   4.025   6.711 -0.1955  0.3780 -0.1026
   96SAPS    HX 9505   2.705   4.085   6.698  0.5850  2.0043  1.6613
   96SAPS    HY 9506   2.883   4.082   6.670 -0.3850 -0.8083 -2.2123
   96SAPS   O31 9507   2.822   4.012   6.851  0.1046  0.0761  0.2056
   96SAPS   C31 9508   2.725   4.030   6.937 -0.4878 -0.1049  0.8818
   96SAPS   O32 9509   2.607   4.052   6.908  0.0611 -0.6268 -0.5559
   96SAPS   C32 9510   2.783   4.010   7.072 -0.4233  0.6233  0.0852
   96SAPS   H2X 9511   2.869   4.075   7.096  0.6493 -1.1358  1.1367
   96SAPS   H2Y 9512   2.833   3.911   7.062  1.0926  1.3279  0.5732
   96SAPS   C23 9513   2.652   3.597   7.016  0.5092 -0.0971 -0.0033
   96SAPS   H3R 9514   2.694   3.675   7.084  0.6901 -0.7840  0.6803
   96SAPS   H3S 9515   2.717   3.508   7.006  1.5266  0.7951 -1.4476
   96SAPS   C24 9516   2.522   3.545   7.093  0.5186 -0.1254 -0.2753
   96SAPS   H4R 9517   2.553   3.469   7.167 -0.5030 -0.9284 -0.6531
   96SAPS   H4S 9518   2.473   3.483   7.015  1.7764  1.1145 -2.0770
   96SAPS   C25 9519   2.421   3.643   7.140 -0.5293 -0.3606  0.3732
   96SAPS   H5R 9520   2.332   3.666   7.081  1.1170  0.9930 -1.6372
   96SAPS   C26 9521   2.428   3.707   7.262  0.1873 -0.1351 -0.7807
   96SAPS   H6R 9522   2.341   3.771   7.284  2.1315  2.2563  0.1821
   96SAPS   C27 9523   2.520   3.687   7.377  0.4183 -0.9875  0.3942
   96SAPS   H7R 9524   2.511   3.773   7.447 -1.3914 -1.7404  1.1232
   96SAPS   H7S 9525   2.626   3.687   7.344  0.0567  0.9158 -0.8595
   96SAPS   C28 9526   2.513   3.557   7.454 -0.1063  0.4791 -0.1256
   96SAPS   H8R 9527   2.564   3.473   7.405  1.4751  1.7521 -0.7159
   96SAPS   C29 9528   2.461   3.543   7.576 -0.0015  0.4981 -0.0719
   96SAPS   H9R 9529   2.468   3.447   7.628 -4.2110  0.7516  1.1214
   96SAPS  C210 9530   2.402   3.650   7.663 -0.8396 -0.1505 -0.0739
   96SAPS  H10R 9531   2.321   3.596   7.716  1.2035 -2.8343  0.4014
   96SAPS  H10S 9532   2.344   3.716   7.595  0.5158  1.0664 -0.0807
   96SAPS  C211 9533   2.493   3.716   7.770  0.3037 -0.4220 -1.2204
   96SAPS  H11R 9534   2.533   3.814   7.741  0.9162  0.4162  2.2477
   96SAPS  C212 9535   2.517   3.672   7.897  0.1188  0.0792  0.1198
   96SAPS  H12R 9536   2.587   3.732   7.958  0.3871  1.5823 -1.6159
   96SAPS  C213 9537   2.455   3.555   7.973 -0.0801  0.0754 -0.2965
   96SAPS  H13R 9538   2.526   3.518   8.051 -0.1718 -0.4766 -0.4751
   96SAPS  H13S 9539   2.451   3.471   7.901 -0.7596 -1.7647  1.8110
   96SAPS  C214 9540   2.309   3.576   8.013 -0.0342  1.0908  0.2653
   96SAPS  H14R 9541   2.243   3.627   7.942 -3.2928 -0.7109  1.8736
   96SAPS  C215 9542   2.262   3.550   8.131 -0.0581 -0.2112 -0.6366
   96SAPS  H15R 9543   2.164   3.594   8.156  0.2988  0.5243 -0.5238
   96SAPS  C216 9544   2.331   3.498   8.252 -0.1947 -0.2001  0.1232
   96SAPS  H16R 9545   2.341   3.578   8.328  1.2169  0.8576 -1.1502
   96SAPS  H16S 9546   2.431   3.459   8.224  0.4800  0.4688  1.5804
   96SAPS  C217 9547   2.260   3.387   8.336 -0.3156 -0.0114 -0.1088
   96SAPS  H17R 9548   2.325   3.377   8.425  0.8264  0.8780 -0.8213
   96SAPS  H17S 9549   2.260   3.298   8.270 -2.2972 -0.8357  0.9557
   96SAPS  C218 9550   2.109   3.414   8.361 -0.0260  0.2869  0.0565
   96SAPS  H18R 9551   2.062   3.428   8.262  0.6102  0.3980 -0.2280
   96SAPS  H18S 9552   2.104   3.509   8.419  1.4391  0.6861 -0.4682
   96SAPS  C219 9553   2.048   3.294   8.429 -0.1517 -0.5294  0.6978
   96SAPS  H19R 9554   2.096   3.273   8.527  1.2014 -1.7106 -0.2128
   96SAPS  H19S 9555   2.049   3.206   8.361 -3.0709  1.4563 -2.0642
   96SAPS  C220 9556   1.895   3.318   8.439 -0.3375 -0.5024  0.1101
   96SAPS  H20R 9557   1.861   3.366   8.345 -0.2567  1.3974  1.0243
   96SAPS  H20S 9558   1.877   3.391   8.521 -0.3305 -0.6050  0.2041
   96SAPS  H20T 9559   1.831   3.229   8.454  0.0846 -0.7944  0.1834
   96SAPS   C33 9560   2.669   4.032   7.170 -0.4415  0.4028  0.1918
   96SAPS   H3X 9561   2.577   3.974   7.147  0.6935 -1.5294  0.3747
   96SAPS   H3Y 9562   2.640   4.139   7.168 -0.8123  0.3115  0.6001
   96SAPS   C34 9563   2.720   3.994   7.306  0.3213  0.5419 -0.6748
   96SAPS   H4X 9564   2.830   4.009   7.313  0.4639 -0.4610 -0.6935
   96SAPS   H4Y 9565   2.701   3.885   7.318  0.0884  0.3079 -2.9553
   96SAPS   C35 9566   2.662   4.072   7.423  0.4091 -0.9158 -0.1098
   96SAPS   H5X 9567   2.552   4.074   7.408  0.2726 -1.4943  0.7773
   96SAPS   H5Y 9568   2.701   4.176   7.415  0.5337 -1.0876 -1.9260
   96SAPS   C36 9569   2.719   4.016   7.553  0.3385 -0.2311  0.5460
   96SAPS   H6X 9570   2.825   4.047   7.540 -1.2290  3.6522 -4.8272
   96SAPS   H6Y 9571   2.714   3.906   7.563  0.4856 -0.1649  1.3731
   96SAPS   C37 9572   2.665   4.075   7.688 -0.1314  0.3296  0.8166
   96SAPS   H7X 9573   2.558   4.048   7.702 -0.0264 -0.6632 -0.2487
   96SAPS   H7Y 9574   2.687   4.184   7.694  1.9058 -0.0742  1.2616
   96SAPS   C38 9575   2.758   4.014   7.807 -0.2372  0.3479  0.7325
   96SAPS   H8X 9576   2.864   4.004   7.774 -0.1090  2.9358  0.2292
   96SAPS   H8Y 9577   2.717   3.912   7.822  1.4897 -0.8182 -2.0711
   96SAPS   C39 9578   2.734   4.104   7.933  0.7059  0.1185  0.2185
   96SAPS   H9X 9579   2.631   4.081   7.970  1.4461 -1.2845  1.4323
   96SAPS   H9Y 9580   2.731   4.212   7.905 -0.8121  0.1218  0.3208
   96SAPS  C310 9581   2.836   4.085   8.040 -0.4171  0.4991 -0.5741
   96SAPS  H10X 9582   2.930   4.102   7.983  0.3141  1.3017  0.8496
   96SAPS  H10Y 9583   2.844   3.980   8.076  0.2512  0.6753 -0.1918
   96SAPS  C311 9584   2.827   4.180   8.163  0.6136  0.1098  0.0844
   96SAPS  H11X 9585   2.727   4.164   8.210 -0.1559  0.1220 -1.5153
   96SAPS  H11Y 9586   2.832   4.282   8.119 -1.7625  1.1910  2.1221
   96SAPS  C312 9587   2.946   4.151   8.254  0.0546  0.2636  0.0837
   96SAPS  H12X 9588   3.037   4.113   8.202 -0.2408 -0.7992  0.3196
   96SAPS  H12Y 9589   2.919   4.062   8.315 -2.5631  1.9279  1.3932
   96SAPS  C313 9590   2.992   4.266   8.346 -0.3482 -0.3679 -0.0175
   96SAPS  H13X 9591   3.031   4.348   8.282 -2.6456  0.9713  0.2314
   96SAPS  H13Y 9592   3.066   4.233   8.422 -0.2201 -0.0046  0.0173
   96SAPS  C314 9593   2.872   4.330   8.428  0.8791 -0.1969 -0.2890
   96SAPS  H14X 9594   2.842   4.267   8.515 -1.4630  1.3750  0.0839
   96SAPS  H14Y 9595   2.787   4.343   8.357  1.4028  0.8065 -0.7390
   96SAPS  C315 9596   2.902   4.468   8.491  0.0747 -0.3460 -0.5309
   96SAPS  H15X 9597   2.902   4.540   8.406  2.4837 -0.7713 -0.9328
   96SAPS  H15Y 9598   3.003   4.467   8.537 -0.7297 -0.4265  1.2556
   96SAPS  C316 9599   2.796   4.521   8.593 -0.3144 -0.1996  0.4847
   96SAPS  H16X 9600   2.701   4.491   8.544 -1.1803  2.9557  0.1308
   96SAPS  H16Y 9601   2.802   4.632   8.596 -0.0592 -0.2108  0.3855
   96SAPS  C317 9602   2.796   4.465   8.734  0.0767 -0.0536  0.0610
   96SAPS  H17X 9603   2.893   4.497   8.778 -1.2821  2.8041  1.1197
   96SAPS  H17Y 9604   2.783   4.354   8.731  3.6234 -0.4683 -1.7148
   96SAPS  C318 9605   2.695   4.532   8.829  0.9677  0.0977  0.1354
   96SAPS  H18X 9606   2.703   4.506   8.937 -1.5854 -1.4967 -0.0056
   96SAPS  H18Y 9607   2.592   4.497   8.805  0.8816  0.0823  0.5165
   96SAPS  H18Z 9608   2.709   4.641   8.820 -0.6381  0.2400 -0.8281
   97SAPS     N 9609   3.369   1.987   6.188 -0.5213  0.5098  0.5489
   97SAPS   HN1 9610   3.278   1.938   6.204 -0.8574  1.9541  3.4678
   97SAPS   HN2 9611   3.390   2.045   6.272  1.7364  0.2241  0.1963
   97SAPS   HN3 9612   3.370   2.044   6.101  0.6828 -0.1940  0.0965
   97SAPS   C12 9613   3.489   1.906   6.159  0.6218  0.7123 -0.2369
   97SAPS  H12A 9614   3.479   1.815   6.217 -1.1200  0.7686 -0.4298
   97SAPS   C13 9615   3.487   1.859   6.011 -0.4463  0.0339  0.0215
   97SAPS  O13A 9616   3.400   1.892   5.928  0.1521 -0.7064 -0.3617
   97SAPS  O13B 9617   3.585   1.789   5.979 -0.5859  0.1305  0.0068
   97SAPS   C11 9618   3.615   1.997   6.188 -0.2704  0.2777  0.2960
   97SAPS  H11A 9619   3.621   2.071   6.105  0.6566  0.2746  0.3512
   97SAPS  H11B 9620   3.710   1.940   6.180  0.0577  0.9516 -0.6743
   97SAPS     P 9621   3.675   1.998   6.459 -0.4484 -0.6235  0.2102
   97SAPS   O13 9622   3.800   1.932   6.421  0.1304  0.0634 -0.2343
   97SAPS   O14 9623   3.671   2.091   6.576  0.4127  0.2035  0.1723
   97SAPS   O12 9624   3.604   2.059   6.324 -0.2498  1.2479  0.2059
   97SAPS   O11 9625   3.562   1.887   6.479  0.5016 -0.0483 -0.8459
   97SAPS    C1 9626   3.435   1.907   6.544  0.2013  0.2438 -0.3410
   97SAPS    HA 9627   3.412   2.015   6.562  0.8873  0.1039  1.4905
   97SAPS    HB 9628   3.359   1.864   6.476 -1.4356 -0.3311  1.8049
   97SAPS    C2 9629   3.421   1.839   6.686  0.0128  0.1774 -0.4500
   97SAPS    HS 9630   3.317   1.841   6.726  0.0195  1.4789 -0.4937
   97SAPS   O21 9631   3.527   1.886   6.770  0.5212 -0.0583 -0.2077
   97SAPS   C21 9632   3.480   1.920   6.891  0.4094 -0.2061 -0.8353
   97SAPS   O22 9633   3.362   1.922   6.928 -0.5488  0.3360  0.1189
   97SAPS   C22 9634   3.595   1.933   6.993  1.3736  0.1988 -0.1131
   97SAPS   H2R 9635   3.642   1.833   7.002 -1.2723 -0.9096  2.0494
   97SAPS   H2S 9636   3.667   2.008   6.954  0.1693  1.3799 -0.0897
   97SAPS    C3 9637   3.448   1.688   6.675 -0.6805  0.2102  0.5663
   97SAPS    HX 9638   3.536   1.667   6.611 -0.7024  0.5663  0.4179
   97SAPS    HY 9639   3.369   1.646   6.610  0.9235  0.2357 -1.4461
   97SAPS   O31 9640   3.458   1.620   6.799 -0.0699  0.2326  0.4720
   97SAPS   C31 9641   3.348   1.585   6.861 -0.0214  0.0426  0.2239
   97SAPS   O32 9642   3.236   1.630   6.845  0.0972  0.0864  0.1089
   97SAPS   C32 9643   3.398   1.491   6.973  0.8479 -0.7877  0.6238
   97SAPS   H2X 9644   3.508   1.480   6.969  0.9467  0.6986 -1.6857
   97SAPS   H2Y 9645   3.367   1.384   6.964 -0.5039 -0.4480  1.1273
   97SAPS   C23 9646   3.555   1.972   7.141  0.5390  0.2704  0.2999
   97SAPS   H3R 9647   3.521   1.882   7.197  1.9905  0.1676  1.0239
   97SAPS   H3S 9648   3.469   2.043   7.143  0.3004  0.0013 -0.2709
   97SAPS   C24 9649   3.671   2.039   7.231  0.0841  0.0618  0.5492
   97SAPS   H4R 9650   3.629   2.107   7.308  1.4130  2.3823 -0.7424
   97SAPS   H4S 9651   3.731   2.095   7.157  0.7122  0.1039  1.0919
   97SAPS   C25 9652   3.748   1.920   7.281 -0.1819  0.3280 -0.0876
   97SAPS   H5R 9653   3.838   1.893   7.225 -0.8320 -0.7892 -0.6105
   97SAPS   C26 9654   3.726   1.857   7.393  0.0977 -0.5715 -0.0554
   97SAPS   H6R 9655   3.791   1.775   7.429 -1.2151 -1.3633  0.5713
   97SAPS   C27 9656   3.610   1.888   7.490 -0.5603 -0.1721 -0.1067
   97SAPS   H7R 9657   3.579   1.791   7.533 -0.8522 -0.0209  0.0240
   97SAPS   H7S 9658   3.529   1.911   7.417 -1.1679  0.4756  0.7742
   97SAPS   C28 9659   3.653   2.002   7.583 -0.4100 -0.1399  0.1340
   97SAPS   H8R 9660   3.683   2.097   7.537  0.2965 -0.5650 -0.3020
   97SAPS   C29 9661   3.657   1.990   7.718 -0.5497  0.0296 -0.5994
   97SAPS   H9R 9662   3.681   2.078   7.780  2.3613 -0.6819 -0.6414
   97SAPS  C210 9663   3.637   1.868   7.803 -0.3707 -0.3706  0.6529
   97SAPS  H10R 9664   3.727   1.803   7.801 -1.5729 -2.1934  2.7716
   97SAPS  H10S 9665   3.554   1.813   7.752  0.2064  0.0510 -0.7646
   97SAPS  C211 9666   3.592   1.883   7.943 -0.7058 -0.2337  1.1361
   97SAPS  H11R 9667   3.488   1.852   7.966 -0.4851 -0.3944  1.9560
   97SAPS  C212 9668   3.665   1.915   8.054 -0.4653 -0.0856 -0.1399
   97SAPS  H12R 9669   3.617   1.899   8.152 -1.6656 -1.5704 -0.9441
   97SAPS  C213 9670   3.810   1.949   8.057 -0.0506  0.7138 -0.4365
   97SAPS  H13R 9671   3.846   1.959   7.952 -0.8188  1.1210 -0.6608
   97SAPS  H13S 9672   3.857   1.857   8.099  0.0493  0.8266 -0.3030
   97SAPS  C214 9673   3.829   2.060   8.161  0.3956  0.3806  0.3976
   97SAPS  H14R 9674   3.792   2.159   8.132  2.0113  0.9898  0.3759
   97SAPS  C215 9675   3.864   2.056   8.292 -0.8806 -0.4414 -0.2279
   97SAPS  H15R 9676   3.881   2.153   8.341 -0.8347 -0.6626  0.1975
   97SAPS  C216 9677   3.917   1.937   8.362  0.7723  0.4595 -0.2097
   97SAPS  H16R 9678   3.971   1.979   8.450 -1.1224  0.9684  0.7367
   97SAPS  H16S 9679   3.995   1.878   8.310  1.8849  2.1393 -0.4752
   97SAPS  C217 9680   3.817   1.833   8.421  0.8298 -0.3184 -0.1453
   97SAPS  H17R 9681   3.742   1.799   8.346 -2.0992  0.3793  2.3877
   97SAPS  H17S 9682   3.743   1.884   8.486 -0.5297 -0.9086 -1.2159
   97SAPS  C218 9683   3.876   1.718   8.495 -0.7800  0.0311  0.5402
   97SAPS  H18R 9684   3.918   1.759   8.590 -1.2820 -2.1584  1.7484
   97SAPS  H18S 9685   3.953   1.655   8.447  0.1345  1.8448 -0.4431
   97SAPS  C219 9686   3.777   1.622   8.549  0.2897 -0.0177  0.1493
   97SAPS  H19R 9687   3.739   1.561   8.465  1.2581 -0.3039 -0.0833
   97SAPS  H19S 9688   3.694   1.689   8.579  0.2068  0.5048 -1.1960
   97SAPS  C220 9689   3.812   1.543   8.674 -0.0906  0.4198 -0.2537
   97SAPS  H20R 9690   3.910   1.493   8.662  0.6449  2.2234 -2.0105
   97SAPS  H20S 9691   3.731   1.467   8.681  1.0511 -0.9005 -0.9834
   97SAPS  H20T 9692   3.827   1.600   8.768 -1.0494  0.0420  0.1340
   97SAPS   C33 9693   3.350   1.525   7.115 -0.2050  1.3021  0.0410
   97SAPS   H3X 9694   3.255   1.477   7.149  1.2731 -2.1451 -0.5767
   97SAPS   H3Y 9695   3.353   1.636   7.122 -4.2067  1.4746  0.5005
   97SAPS   C34 9696   3.450   1.473   7.224 -0.0117 -0.6470 -0.5069
   97SAPS   H4X 9697   3.554   1.507   7.206 -0.6514  1.3839 -0.4501
   97SAPS   H4Y 9698   3.467   1.363   7.232  2.9349 -0.1205  1.1383
   97SAPS   C35 9699   3.395   1.524   7.361  0.6285  0.0244 -0.3133
   97SAPS   H5X 9700   3.290   1.494   7.380 -0.9063  4.4665 -1.1567
   97SAPS   H5Y 9701   3.389   1.635   7.362 -1.4652 -0.0806  1.1950
   97SAPS   C36 9702   3.497   1.473   7.464  0.4430  0.3759  0.0342
   97SAPS   H6X 9703   3.601   1.501   7.439  0.0166  1.3259 -0.7164
   97SAPS   H6Y 9704   3.489   1.363   7.451 -0.4403  0.7037 -2.4209
   97SAPS   C37 9705   3.454   1.514   7.604 -0.5692  0.0430 -0.3547
   97SAPS   H7X 9706   3.348   1.494   7.629 -0.7647  1.7450  0.2286
   97SAPS   H7Y 9707   3.465   1.624   7.600  3.8053 -0.3192 -0.8694
   97SAPS   C38 9708   3.544   1.437   7.701  0.0870  0.2916 -0.2980
   97SAPS   H8X 9709   3.555   1.331   7.668  0.8770  0.7404 -1.5099
   97SAPS   H8Y 9710   3.508   1.438   7.806  0.7445  0.5781 -0.0747
   97SAPS   C39 9711   3.686   1.504   7.708 -0.2349  0.1508 -0.3351
   97SAPS   H9X 9712   3.680   1.615   7.712 -2.6524  0.1026 -1.4037
   97SAPS   H9Y 9713   3.739   1.489   7.612 -2.0122 -0.2023 -1.2911
   97SAPS  C310 9714   3.766   1.455   7.829  0.1835  1.0167  0.0486
   97SAPS  H10X 9715   3.870   1.488   7.809  1.1619 -3.1690 -2.2177
   97SAPS  H10Y 9716   3.794   1.349   7.814  0.6380  1.2801 -0.9742
   97SAPS  C311 9717   3.703   1.489   7.964  0.4448  0.4283  0.0867
   97SAPS  H11X 9718   3.624   1.413   7.979 -0.8727  1.7054 -0.2747
   97SAPS  H11Y 9719   3.663   1.593   7.956  1.3172  0.7598 -0.0804
   97SAPS  C312 9720   3.795   1.481   8.084  0.6107  0.7751 -0.1514
   97SAPS  H12X 9721   3.732   1.514   8.169  0.5136  1.0028 -0.3134
   97SAPS  H12Y 9722   3.877   1.557   8.079  1.5331 -0.3071 -1.9214
   97SAPS  C313 9723   3.854   1.338   8.111 -0.1116 -0.5159  0.1326
   97SAPS  H13X 9724   3.908   1.298   8.022 -3.2508 -1.4655 -1.4052
   97SAPS  H13Y 9725   3.784   1.257   8.141  1.4667 -1.6984  0.7469
   97SAPS  C314 9726   3.943   1.335   8.239  0.1472 -0.2648  0.8797
   97SAPS  H14X 9727   3.871   1.333   8.323  0.0027 -2.0258  0.7313
   97SAPS  H14Y 9728   4.000   1.430   8.244 -0.0589 -0.0415 -0.9183
   97SAPS  C315 9729   4.036   1.211   8.254 -0.0939 -0.0168  0.5174
   97SAPS  H15X 9730   4.093   1.215   8.350 -1.5958  3.3996  1.3659
   97SAPS  H15Y 9731   4.110   1.204   8.172 -0.4695 -0.1617  0.1915
   97SAPS  C316 9732   3.961   1.082   8.220 -0.0037  0.5145  0.5819
   97SAPS  H16X 9733   3.917   1.080   8.118  1.0437 -2.2303  0.1420
   97SAPS  H16Y 9734   3.875   1.057   8.286 -0.3200 -1.3789 -0.4994
   97SAPS  C317 9735   4.050   0.954   8.211  0.1323  0.0712 -0.2801
   97SAPS  H17X 9736   4.095   0.950   8.313  0.4379  0.7155 -0.3863
   97SAPS  H17Y 9737   4.135   0.957   8.139  0.1374 -2.2944 -0.4081
   97SAPS  C318 9738   3.961   0.824   8.192 -0.1511 -0.0578 -0.2100
   97SAPS  H18X 9739   4.015   0.728   8.178 -3.4491 -1.9152 -0.7222
   97SAPS  H18Y 9740   3.899   0.842   8.101  2.0902  0.6934 -1.6315
   97SAPS  H18Z 9741   3.894   0.818   8.281  0.7144 -0.5656  0.4202
   98SAPS     N 9742   1.616   2.668   6.144 -0.3640 -0.2591  0.2034
   98SAPS   HN1 9743   1.663   2.595   6.202 -0.2651  0.4122  0.9808
   98SAPS   HN2 9744   1.678   2.750   6.159 -0.5041 -0.1365  0.1083
   98SAPS   HN3 9745   1.518   2.674   6.180  0.7830 -0.0430  3.4759
   98SAPS   C12 9746   1.615   2.614   6.008  0.1314  0.0109 -0.0582
   98SAPS  H12A 9747   1.557   2.691   5.958  2.3562  1.5925 -0.2624
   98SAPS   C13 9748   1.754   2.604   5.946 -0.4496  0.2279  0.3507
   98SAPS  O13A 9749   1.850   2.667   6.004  0.0873 -0.3226 -0.3744
   98SAPS  O13B 9750   1.771   2.548   5.836 -1.2769 -0.0454 -0.0259
   98SAPS   C11 9751   1.550   2.467   6.015  0.6698  0.2209  0.0708
   98SAPS  H11A 9752   1.533   2.432   5.911  0.2706  0.7255 -0.0355
   98SAPS  H11B 9753   1.446   2.465   6.054  0.0863 -0.5035 -1.4481
   98SAPS     P 9754   1.652   2.231   6.065 -0.0667 -0.1274 -0.2341
   98SAPS   O13 9755   1.569   2.179   5.959 -0.1006  0.7326  0.4659
   98SAPS   O14 9756   1.802   2.214   6.059 -0.4452  0.2683  0.4557
   98SAPS   O12 9757   1.626   2.381   6.100  0.0162 -0.2525  0.7080
   98SAPS   O11 9758   1.603   2.170   6.202  0.5765 -0.4878  0.2505
   98SAPS    C1 9759   1.626   2.028   6.229  0.6731  0.2015  0.2825
   98SAPS    HA 9760   1.528   1.978   6.221  1.7576 -2.1568  1.4411
   98SAPS    HB 9761   1.688   1.972   6.156  0.1189 -2.9847  2.1562
   98SAPS    C2 9762   1.684   2.016   6.378 -0.7134  0.6487  0.2852
   98SAPS    HS 9763   1.698   1.906   6.392  1.0216  0.6242 -1.3334
   98SAPS   O21 9764   1.588   2.071   6.471  0.7434 -0.5799  0.0720
   98SAPS   C21 9765   1.493   1.983   6.505  0.6316 -0.0266 -0.1156
   98SAPS   O22 9766   1.454   1.891   6.442 -0.1817  0.0557 -0.7194
   98SAPS   C22 9767   1.457   2.018   6.647  0.3985  1.0162 -0.3133
   98SAPS   H2R 9768   1.544   1.992   6.711 -2.2933 -2.0296  2.3151
   98SAPS   H2S 9769   1.461   2.128   6.663 -0.6119  1.0541 -0.2371
   98SAPS    C3 9770   1.824   2.079   6.385  0.2057  0.3214  0.6265
   98SAPS    HX 9771   1.798   2.183   6.359 -3.5182 -0.3889  1.2967
   98SAPS    HY 9772   1.900   2.040   6.313 -1.0199 -1.9543  0.5202
   98SAPS   O31 9773   1.866   2.068   6.526 -0.2506  0.0518  0.0606
   98SAPS   C31 9774   1.944   1.964   6.555 -0.3204 -0.1492  0.4377
   98SAPS   O32 9775   1.986   1.879   6.479  0.2620  0.0014  0.0360
   98SAPS   C32 9776   1.970   1.954   6.710 -0.0093  0.5024  0.1211
   98SAPS   H2X 9777   1.873   1.926   6.756  1.3460 -0.4323  2.5318
   98SAPS   H2Y 9778   1.983   2.057   6.750 -2.0077  0.8918 -0.2017
   98SAPS   C23 9779   1.339   1.942   6.698  0.6942  0.1933  0.4483
   98SAPS   H3R 9780   1.363   1.836   6.718  0.4264 -0.0360 -0.4324
   98SAPS   H3S 9781   1.262   1.934   6.619  0.8164  1.7854  0.1511
   98SAPS   C24 9782   1.266   2.012   6.814  0.3728 -0.1980 -0.1714
   98SAPS   H4R 9783   1.223   2.107   6.776  0.5762 -0.7326 -1.7752
   98SAPS   H4S 9784   1.347   2.048   6.882 -0.7718  1.4857  0.3483
   98SAPS   C25 9785   1.159   1.928   6.883  0.3325  0.4582 -0.5373
   98SAPS   H5R 9786   1.120   1.851   6.815  1.8838 -1.9655  1.2214
   98SAPS   C26 9787   1.136   1.927   7.010 -0.0901 -1.1026 -1.4921
   98SAPS   H6R 9788   1.047   1.873   7.046 -0.6052  0.3351 -0.5885
   98SAPS   C27 9789   1.180   2.033   7.112 -0.1361 -0.0099 -0.9647
   98SAPS   H7R 9790   1.257   2.107   7.078  0.6514  0.4039  1.5920
   98SAPS   H7S 9791   1.228   1.970   7.191 -1.2487  0.6418  0.2501
   98SAPS   C28 9792   1.069   2.105   7.182  0.2059  0.6779 -0.5921
   98SAPS   H8R 9793   0.986   2.150   7.126 -2.5645 -1.4538  1.7000
   98SAPS   C29 9794   1.050   2.121   7.313 -0.1534 -0.7241  0.7703
   98SAPS   H9R 9795   0.959   2.176   7.339  0.1563 -0.1149  0.5815
   98SAPS  C210 9796   1.130   2.062   7.428 -0.0485  0.5834 -0.4483
   98SAPS  H10R 9797   1.240   2.052   7.412 -0.0472  0.9868 -0.6975
   98SAPS  H10S 9798   1.103   1.956   7.445  1.1928  0.1532 -1.1490
   98SAPS  C211 9799   1.111   2.152   7.549 -0.2042  0.0258  0.1463
   98SAPS  H11R 9800   1.050   2.242   7.531 -0.1436  0.8871  3.7388
   98SAPS  C212 9801   1.155   2.135   7.675 -0.0044  0.6329 -0.2808
   98SAPS  H12R 9802   1.124   2.211   7.748 -1.2991 -1.2499  1.2066
   98SAPS  C213 9803   1.241   2.018   7.726 -0.0093 -0.0694 -0.1974
   98SAPS  H13R 9804   1.200   1.926   7.679  0.7255 -0.6990  0.4023
   98SAPS  H13S 9805   1.221   2.005   7.834 -1.2797  3.7385  0.0981
   98SAPS  C214 9806   1.387   2.049   7.697 -0.1685  0.1964  0.2103
   98SAPS  H14R 9807   1.409   2.041   7.590  1.9475  0.9664  0.5539
   98SAPS  C215 9808   1.487   2.086   7.780 -0.0905  0.1823  0.2904
   98SAPS  H15R 9809   1.585   2.090   7.730  0.6756 -3.4780  1.3679
   98SAPS  C216 9810   1.484   2.103   7.927  0.6765  0.0757 -0.2694
   98SAPS  H16R 9811   1.383   2.083   7.969  0.8496 -2.5315 -0.9792
   98SAPS  H16S 9812   1.501   2.209   7.957  0.1428 -0.4625  2.1150
   98SAPS  C217 9813   1.592   2.011   8.001 -0.0282 -0.6103  0.2122
   98SAPS  H17R 9814   1.688   2.048   7.959 -1.9783  1.1430 -2.9267
   98SAPS  H17S 9815   1.580   1.903   7.977 -2.7427  0.0264 -1.6032
   98SAPS  C218 9816   1.581   2.040   8.150 -0.0802 -0.5567  0.2258
   98SAPS  H18R 9817   1.473   2.054   8.172 -0.5345 -1.1653 -1.5180
   98SAPS  H18S 9818   1.627   2.140   8.170 -0.3561  0.1584 -2.4979
   98SAPS  C219 9819   1.637   1.923   8.232  0.1065 -0.3755 -0.5795
   98SAPS  H19R 9820   1.731   1.892   8.183  0.7619 -1.3366  1.2282
   98SAPS  H19S 9821   1.573   1.833   8.225 -0.6341 -0.1262  2.4053
   98SAPS  C220 9822   1.658   1.957   8.377 -1.1203  0.7279  0.2995
   98SAPS  H20R 9823   1.706   2.056   8.384  0.5081  0.0079 -0.5118
   98SAPS  H20S 9824   1.736   1.893   8.423 -2.1407 -1.7668 -1.2956
   98SAPS  H20T 9825   1.561   1.951   8.432 -1.3349 -0.9162 -0.2083
   98SAPS   C33 9826   2.089   1.854   6.747  0.4545  0.1218  0.2737
   98SAPS   H3X 9827   2.155   1.840   6.658 -0.7345 -1.0962 -0.4418
   98SAPS   H3Y 9828   2.051   1.750   6.753  2.0528 -0.3791  1.8262
   98SAPS   C34 9829   2.167   1.904   6.879 -0.0092 -0.3418  0.2838
   98SAPS   H4X 9830   2.202   2.005   6.850  0.3388 -0.5648 -0.0828
   98SAPS   H4Y 9831   2.249   1.830   6.891  2.1242  1.8363 -0.5374
   98SAPS   C35 9832   2.072   1.918   7.000 -0.4901  0.5299 -0.0745
   98SAPS   H5X 9833   2.005   1.830   7.013 -1.2971  1.0938 -0.3713
   98SAPS   H5Y 9834   2.003   2.004   6.983  2.6022  2.8639 -1.3933
   98SAPS   C36 9835   2.140   1.947   7.133  0.4984 -0.0021 -0.5469
   98SAPS   H6X 9836   2.190   2.046   7.124 -1.0866  0.6941 -1.9737
   98SAPS   H6Y 9837   2.224   1.874   7.141 -1.1670 -1.6740  2.5912
   98SAPS   C37 9838   2.064   1.940   7.265  0.1086  0.8854  0.3560
   98SAPS   H7X 9839   2.036   1.835   7.288  3.1562 -0.2306 -0.7826
   98SAPS   H7Y 9840   1.969   1.997   7.256 -0.1822  0.5707  1.3552
   98SAPS   C38 9841   2.136   2.004   7.389  0.6228  0.6875 -0.2366
   98SAPS   H8X 9842   2.174   2.107   7.367 -1.6845  1.4099 -0.9592
   98SAPS   H8Y 9843   2.216   1.937   7.427 -0.1446 -1.0974 -1.7111
   98SAPS   C39 9844   2.037   2.008   7.515  0.5033 -0.8471 -0.1359
   98SAPS   H9X 9845   2.009   1.904   7.542 -1.8765 -0.3214 -0.5189
   98SAPS   H9Y 9846   1.941   2.053   7.482  1.5543  0.9835 -0.7957
   98SAPS  C310 9847   2.097   2.097   7.632  0.2940 -0.6564 -0.8948
   98SAPS  H10X 9848   2.017   2.113   7.707  2.6675  0.8667  1.4017
   98SAPS  H10Y 9849   2.130   2.196   7.592 -0.4374 -0.4896 -1.0896
   98SAPS  C311 9850   2.214   2.042   7.705  0.0813  0.1065 -0.2604
   98SAPS  H11X 9851   2.288   2.019   7.625  1.5889 -0.7570  1.3747
   98SAPS  H11Y 9852   2.176   1.951   7.756  0.7997 -0.1259 -0.1423
   98SAPS  C312 9853   2.298   2.139   7.803  0.6112 -0.1810  0.0343
   98SAPS  H12X 9854   2.336   2.223   7.741 -0.9528  1.5337  1.3505
   98SAPS  H12Y 9855   2.388   2.081   7.833  0.5496  0.4331  1.4057
   98SAPS  C313 9856   2.226   2.202   7.928  0.1027 -0.4681 -0.2309
   98SAPS  H13X 9857   2.137   2.259   7.895  0.7572  1.2069  0.8389
   98SAPS  H13Y 9858   2.301   2.270   7.973  0.6927 -1.0539 -0.3160
   98SAPS  C314 9859   2.178   2.102   8.039 -0.9299  0.4168 -0.9738
   98SAPS  H14X 9860   2.262   2.031   8.058 -0.6336  0.5046 -1.9642
   98SAPS  H14Y 9861   2.095   2.037   8.004 -0.7583  0.0021 -0.6129
   98SAPS  C315 9862   2.139   2.168   8.174 -0.0039 -1.0079 -0.7146
   98SAPS  H15X 9863   2.075   2.257   8.159 -1.2597 -1.9337 -0.9009
   98SAPS  H15Y 9864   2.229   2.208   8.225  0.1663 -0.9390 -1.0689
   98SAPS  C316 9865   2.056   2.074   8.270  0.0220 -0.2035 -0.2599
   98SAPS  H16X 9866   1.977   2.027   8.207 -0.1769  0.8443 -0.8013
   98SAPS  H16Y 9867   2.018   2.146   8.345 -0.2355  0.9540 -1.4765
   98SAPS  C317 9868   2.154   1.981   8.334 -0.2162 -0.1098  0.8228
   98SAPS  H17X 9869   2.228   2.043   8.390 -0.3981  1.1187 -0.2744
   98SAPS  H17Y 9870   2.201   1.919   8.255 -0.5313 -1.5071  1.7093
   98SAPS  C318 9871   2.076   1.885   8.425 -0.2091  0.3171 -0.4820
   98SAPS  H18X 9872   1.998   1.828   8.371 -0.0092  0.9607 -1.4579
   98SAPS  H18Y 9873   2.029   1.945   8.505 -0.8221  2.1607 -2.1859
   98SAPS  H18Z 9874   2.147   1.814   8.472  0.9093  0.7551 -1.4789
   99SAPS     N 9875   1.240   5.755   6.187  0.0359 -0.4258 -0.5478
   99SAPS   HN1 9876   1.179   5.774   6.269 -0.0212 -1.1432 -0.4249
   99SAPS   HN2 9877   1.269   5.851   6.159  1.1406 -0.5972 -0.0013
   99SAPS   HN3 9878   1.187   5.705   6.113 -2.2062 -0.4275  1.0306
   99SAPS   C12 9879   1.366   5.680   6.243  0.4875 -0.5795  0.0530
   99SAPS  H12A 9880   1.332   5.608   6.315 -0.0617 -0.8619 -0.4841
   99SAPS   C13 9881   1.448   5.604   6.145 -0.5644  0.4164  0.5743
   99SAPS  O13A 9882   1.421   5.611   6.029 -0.1514  0.1621  0.1783
   99SAPS  O13B 9883   1.554   5.546   6.181 -0.5206 -0.5237  0.0214
   99SAPS   C11 9884   1.455   5.782   6.319  0.3653  0.5308  0.5450
   99SAPS  H11A 9885   1.546   5.727   6.353  1.8930  2.5371 -0.1552
   99SAPS  H11B 9886   1.403   5.817   6.411 -0.7470  2.7139 -0.8955
   99SAPS     P 9887   1.443   6.039   6.258  0.1410  0.1482  0.0424
   99SAPS   O13 9888   1.517   6.128   6.161  0.5150  0.0065 -0.0491
   99SAPS   O14 9889   1.297   6.033   6.247 -0.6268  0.7054 -0.1825
   99SAPS   O12 9890   1.494   5.890   6.236  0.1386 -0.4027  0.0839
   99SAPS   O11 9891   1.487   6.073   6.410  0.1441  0.4093  0.2855
   99SAPS    C1 9892   1.613   6.033   6.464 -0.3043 -0.0601 -0.2672
   99SAPS    HA 9893   1.616   5.926   6.491  0.3528 -0.2047 -0.9054
   99SAPS    HB 9894   1.691   6.049   6.387 -1.3844 -0.3704 -1.4434
   99SAPS    C2 9895   1.645   6.117   6.602  0.7910 -0.2084  0.2303
   99SAPS    HS 9896   1.753   6.101   6.621  0.9930  2.5493  1.5376
   99SAPS   O21 9897   1.562   6.073   6.711 -0.3186 -0.3170  0.1321
   99SAPS   C21 9898   1.617   5.972   6.781  0.1205  0.0215  1.1617
   99SAPS   O22 9899   1.722   5.922   6.762  0.7256  0.2140 -0.0719
   99SAPS   C22 9900   1.521   5.931   6.889  0.8691 -0.1985  0.9236
   99SAPS   H2R 9901   1.429   5.986   6.860  0.5658 -1.9368 -1.6201
   99SAPS   H2S 9902   1.503   5.822   6.877 -1.8430  0.2983  0.1543
   99SAPS    C3 9903   1.633   6.267   6.590  0.7002 -0.3609 -0.3072
   99SAPS    HX 9904   1.532   6.300   6.559  0.0979  0.1798  2.1627
   99SAPS    HY 9905   1.708   6.294   6.512  2.9302  1.5149  2.3685
   99SAPS   O31 9906   1.675   6.332   6.716 -0.0343 -0.0085  0.1932
   99SAPS   C31 9907   1.581   6.368   6.805  0.3722 -0.0338  0.1458
   99SAPS   O32 9908   1.465   6.348   6.798 -0.0705 -0.4472  0.4526
   99SAPS   C32 9909   1.646   6.447   6.921 -0.0394  0.7387  0.7146
   99SAPS   H2X 9910   1.672   6.546   6.877  0.4982  1.0811  1.7810
   99SAPS   H2Y 9911   1.742   6.394   6.944 -0.2430 -0.2158 -0.5220
   99SAPS   C23 9912   1.553   5.955   7.036 -0.1164 -0.3736 -0.6196
   99SAPS   H3R 9913   1.570   6.065   7.048  1.6245 -0.4061 -2.4415
   99SAPS   H3S 9914   1.644   5.894   7.056  0.0527  0.2188  0.4359
   99SAPS   C24 9915   1.443   5.901   7.120  0.7144 -0.9181 -0.6257
   99SAPS   H4R 9916   1.428   5.798   7.081 -0.7739 -0.4769 -1.2829
   99SAPS   H4S 9917   1.359   5.964   7.083  1.6223 -0.0071 -1.1703
   99SAPS   C25 9918   1.461   5.909   7.276  0.1615  0.5652 -0.3046
   99SAPS   H5R 9919   1.561   5.931   7.317 -1.1721  1.1234  2.8166
   99SAPS   C26 9920   1.371   5.875   7.374  0.5309 -0.3320 -0.0076
   99SAPS   H6R 9921   1.396   5.884   7.481 -0.0225 -1.1482  0.1979
   99SAPS   C27 9922   1.234   5.840   7.344  0.1340  0.2709  0.2360
   99SAPS   H7R 9923   1.212   5.745   7.398 -0.7467  0.3976  0.1005
   99SAPS   H7S 9924   1.225   5.810   7.237  0.4679  1.1268 -0.0367
   99SAPS   C28 9925   1.131   5.951   7.377 -0.1998  0.0059  0.0427
   99SAPS   H8R 9926   1.146   6.049   7.330  3.1579  0.5793  2.1055
   99SAPS   C29 9927   1.028   5.942   7.461 -1.0200  0.1720 -0.5789
   99SAPS   H9R 9928   0.964   6.031   7.473  1.5697  1.7314  2.2955
   99SAPS  C210 9929   0.995   5.818   7.544  0.3714 -0.2428 -0.8234
   99SAPS  H10R 9930   1.067   5.735   7.527 -0.8883 -1.6358  0.5071
   99SAPS  H10S 9931   0.896   5.780   7.509 -1.2901  1.7377  1.5866
   99SAPS  C211 9932   0.986   5.846   7.692  0.1386 -0.2691 -0.0891
   99SAPS  H11R 9933   0.896   5.903   7.718  0.5186  1.0044 -1.4753
   99SAPS  C212 9934   1.076   5.818   7.792  0.0196  0.2081  0.0557
   99SAPS  H12R 9935   1.032   5.836   7.891  1.8032 -1.7358  1.2442
   99SAPS  C213 9936   1.206   5.750   7.790  0.3509 -0.2280  0.5142
   99SAPS  H13R 9937   1.239   5.739   7.684 -0.7763 -1.3531  0.2584
   99SAPS  H13S 9938   1.171   5.655   7.835 -0.6998  0.8399  1.9951
   99SAPS  C214 9939   1.309   5.810   7.876 -0.6114  0.2570 -0.6008
   99SAPS  H14R 9940   1.337   5.914   7.852  0.3955  0.0063 -0.5457
   99SAPS  C215 9941   1.356   5.751   7.987 -0.2611  0.3307 -0.1000
   99SAPS  H15R 9942   1.412   5.806   8.065 -1.4782 -0.3993  1.3129
   99SAPS  C216 9943   1.317   5.615   8.040  0.4004 -0.5289  0.2236
   99SAPS  H16R 9944   1.391   5.570   8.109  1.1206 -0.0975 -0.2569
   99SAPS  H16S 9945   1.311   5.542   7.956  1.6524  0.3508 -0.6393
   99SAPS  C217 9946   1.175   5.613   8.116  0.1176 -0.1122 -0.5064
   99SAPS  H17R 9947   1.096   5.664   8.055  0.3826  0.8827 -0.0278
   99SAPS  H17S 9948   1.192   5.670   8.209 -0.8935  0.2539 -0.5337
   99SAPS  C218 9949   1.143   5.467   8.136  0.1473  0.1481 -0.7203
   99SAPS  H18R 9950   1.084   5.464   8.230  1.1141 -0.9726 -0.1464
   99SAPS  H18S 9951   1.229   5.400   8.157  2.3463  3.0172 -0.1701
   99SAPS  C219 9952   1.053   5.401   8.026  0.6411  0.5404  0.1343
   99SAPS  H19R 9953   1.099   5.410   7.925 -2.2870  3.1694 -1.0535
   99SAPS  H19S 9954   0.966   5.470   8.029 -0.9711 -1.4290 -0.1383
   99SAPS  C220 9955   1.015   5.262   8.062 -0.4515 -0.1453 -0.0233
   99SAPS  H20R 9956   1.096   5.186   8.075  0.7220  1.3379  1.5979
   99SAPS  H20S 9957   0.934   5.224   7.997 -0.3673 -1.6710  0.7259
   99SAPS  H20T 9958   0.980   5.258   8.167  1.7134 -1.2461  0.6968
   99SAPS   C33 9959   1.560   6.451   7.047  0.5345 -0.4587 -0.3055
   99SAPS   H3X 9960   1.519   6.350   7.070 -0.9258 -0.0569 -1.0922
   99SAPS   H3Y 9961   1.479   6.515   7.008  1.0400  1.7163  2.1175
   99SAPS   C34 9962   1.630   6.511   7.173  0.1142 -0.0432  0.8362
   99SAPS   H4X 9963   1.650   6.619   7.157  1.5487 -0.2415  1.2951
   99SAPS   H4Y 9964   1.725   6.456   7.188  0.3388  0.3363  0.8194
   99SAPS   C35 9965   1.538   6.496   7.298  0.3137  0.0861 -0.0676
   99SAPS   H5X 9966   1.439   6.532   7.262 -0.3139 -0.3794  1.1704
   99SAPS   H5Y 9967   1.582   6.555   7.382 -0.8841  1.6190 -0.4901
   99SAPS   C36 9968   1.523   6.357   7.355  0.8728  0.1892 -0.5995
   99SAPS   H6X 9969   1.618   6.326   7.403 -0.6085 -1.8290  1.1283
   99SAPS   H6Y 9970   1.491   6.275   7.288  1.5056  0.4021 -1.1681
   99SAPS   C37 9971   1.428   6.362   7.483 -0.0980  0.1414 -0.0453
   99SAPS   H7X 9972   1.344   6.427   7.452  0.3311  0.0339 -1.4363
   99SAPS   H7Y 9973   1.481   6.420   7.563 -2.1676  0.7050  0.9581
   99SAPS   C38 9974   1.367   6.229   7.520 -0.7000 -0.0879  0.0616
   99SAPS   H8X 9975   1.442   6.158   7.561 -1.8954 -1.3487  0.0794
   99SAPS   H8Y 9976   1.328   6.179   7.429 -2.7225 -1.6337  1.7406
   99SAPS   C39 9977   1.248   6.249   7.611 -0.0087 -0.0212 -0.4703
   99SAPS   H9X 9978   1.192   6.153   7.603 -2.0369  1.0156  0.9923
   99SAPS   H9Y 9979   1.178   6.327   7.573 -0.4214  0.1107  0.5557
   99SAPS  C310 9980   1.295   6.287   7.754 -0.1056 -0.8366  0.9588
   99SAPS  H10X 9981   1.351   6.383   7.749 -2.7225  0.6439 -1.8050
   99SAPS  H10Y 9982   1.370   6.211   7.785  1.7019 -0.7021 -2.7618
   99SAPS  C311 9983   1.178   6.294   7.852  0.6390  0.0652 -0.4117
   99SAPS  H11X 9984   1.102   6.363   7.810 -0.6258 -0.5464  0.8121
   99SAPS  H11Y 9985   1.216   6.345   7.943 -1.0526  0.3814  0.1287
   99SAPS  C312 9986   1.114   6.153   7.873 -0.5210 -0.0688 -0.0825
   99SAPS  H12X 9987   1.194   6.086   7.912 -1.1699  0.1829  1.7473
   99SAPS  H12Y 9988   1.072   6.113   7.778  0.1737  0.4459 -0.6067
   99SAPS  C313 9989   0.992   6.148   7.972  0.6138  0.5225  1.1976
   99SAPS  H13X 9990   0.952   6.044   7.968  1.8166  0.0979 -0.3998
   99SAPS  H13Y 9991   0.913   6.211   7.924  0.4018 -1.4145 -1.0730
   99SAPS  C314 9992   1.027   6.211   8.105  0.2548  0.7289 -0.0678
   99SAPS  H14X 9993   1.050   6.318   8.087 -2.8143  1.3501 -0.5569
   99SAPS  H14Y 9994   1.119   6.164   8.144  2.0837  4.3784  0.2454
   99SAPS  C315 9995   0.908   6.210   8.211  0.6241 -0.2294  0.6779
   99SAPS  H15X 9996   0.818   6.254   8.164  0.4839 -1.9567 -0.6836
   99SAPS  H15Y 9997   0.938   6.272   8.299 -0.5755  2.1545 -0.5381
   99SAPS  C316 9998   0.870   6.077   8.264 -0.5335 -0.4700  0.0157
   99SAPS  H16X 9999   0.803   6.018   8.196 -1.8363 -0.3048  1.1283
   99SAPS  H16Y10000   0.812   6.089   8.358 -0.6875  0.1506 -0.1553
   99SAPS  C31710001   0.996   5.990   8.300 -0.6615  0.4014  0.8639
   99SAPS  H17X10002   1.069   6.057   8.349  0.0724  0.4440 -0.2689
   99SAPS  H17Y10003   1.052   5.965   8.207 -1.8073  3.0883 -0.6020
   99SAPS  C31810004   0.965   5.866   8.381 -0.3577 -0.6424 -0.5188
   99SAPS  H18X10005   0.890   5.903   8.454  1.0630  2.5357 -0.6063
   99SAPS  H18Y10006   1.053   5.833   8.441 -1.5509 -2.3851  0.3329
   99SAPS  H18Z10007   0.938   5.779   8.317 -0.6557  0.6467 -2.1629
  100SAPS     N10008   3.917   1.705   6.353 -0.1133 -0.6014 -0.3373
  100SAPS   HN110009   4.013   1.691   6.390 -2.0107 -2.3753  4.3152
  100SAPS   HN210010   3.899   1.803   6.383 -4.2974 -0.8891 -1.6467
  100SAPS   HN310011   3.848   1.650   6.408  0.2217 -0.7164 -0.0291
  100SAPS   C1210012   3.906   1.681   6.209  0.9409  0.2503  1.0002
  100SAPS  H12A10013   3.801   1.678   6.185  0.9221 -1.3490  1.2278
  100SAPS   C1310014   3.969   1.795   6.127 -0.2258  0.5086  0.6785
  100SAPS  O13A10015   4.014   1.900   6.177  0.2641 -0.0646 -0.7721
  100SAPS  O13B10016   3.975   1.781   6.000  0.3432  0.1412 -0.7449
  100SAPS   C1110017   3.961   1.541   6.175  0.6384  0.1452 -0.0037
  100SAPS  H11A10018   4.069   1.538   6.200  1.3190  1.9740 -2.4801
  100SAPS  H11B10019   3.946   1.529   6.066 -0.8354 -0.1485  0.2235
  100SAPS     P10020   3.888   1.283   6.205  0.5940  0.0902 -0.3901
  100SAPS   O1310021   3.824   1.270   6.071  0.7450  0.1190  0.5680
  100SAPS   O1410022   4.028   1.253   6.228  0.1340  0.1708  0.3434
  100SAPS   O1210023   3.873   1.438   6.237 -0.0657 -0.4360 -0.1379
  100SAPS   O1110024   3.803   1.220   6.320 -0.3360  0.4148  0.7232
  100SAPS    C110025   3.727   1.288   6.417 -0.2419  0.5632  0.0709
  100SAPS    HA10026   3.687   1.381   6.372 -3.3715  0.1699  1.8589
  100SAPS    HB10027   3.640   1.222   6.437 -1.1641  1.3527 -1.2146
  100SAPS    C210028   3.804   1.328   6.542  0.4627 -0.3038  0.6420
  100SAPS    HS10029   3.873   1.405   6.502  3.1466 -1.7729  2.3383
  100SAPS   O2110030   3.859   1.213   6.606 -0.5035  0.0930 -0.1726
  100SAPS   C2110031   3.988   1.231   6.650 -0.5970  0.3701  0.2784
  100SAPS   O2210032   4.063   1.322   6.624  0.3377  0.4769  0.2259
  100SAPS   C2210033   4.031   1.110   6.729  0.2038  0.1748  0.1278
  100SAPS   H2R10034   3.940   1.053   6.761  1.1839  0.1677  3.0433
  100SAPS   H2S10035   4.092   1.045   6.663 -0.8371  1.2960 -2.0084
  100SAPS    C310036   3.700   1.396   6.639 -0.6985 -0.8748  0.3292
  100SAPS    HX10037   3.628   1.323   6.681  0.0878 -0.7008  2.0271
  100SAPS    HY10038   3.640   1.463   6.574 -0.4920  0.9505  1.9585
  100SAPS   O3110039   3.772   1.471   6.742  0.5993  0.1853  0.1637
  100SAPS   C3110040   3.815   1.594   6.695  0.7776  0.2396 -0.3791
  100SAPS   O3210041   3.793   1.637   6.584  0.3108 -0.4162  0.7571
  100SAPS   C3210042   3.876   1.666   6.812 -0.1168 -0.6442 -1.0539
  100SAPS   H2X10043   3.821   1.634   6.903  1.1145  2.6996  0.9469
  100SAPS   H2Y10044   3.853   1.774   6.808  3.5280  0.1728 -1.9965
  100SAPS   C2310045   4.108   1.141   6.862  0.4741  0.4153 -0.4502
  100SAPS   H3R10046   4.164   1.232   6.830 -1.2036  2.0367  1.1188
  100SAPS   H3S10047   4.183   1.063   6.887  0.4847  0.6829  0.3841
  100SAPS   C2410048   4.018   1.169   6.987 -0.4978 -0.1357 -0.8550
  100SAPS   H4R10049   4.088   1.193   7.071 -1.4830  2.6402 -0.7820
  100SAPS   H4S10050   3.971   1.071   7.012 -0.7793  0.3896  0.7179
  100SAPS   C2510051   3.901   1.265   6.973  0.2047  1.1660 -0.7230
  100SAPS   H5R10052   3.936   1.367   6.950  4.0649 -0.4910 -2.8186
  100SAPS   C2610053   3.767   1.238   6.980  0.2754  0.0673 -0.3738
  100SAPS   H6R10054   3.701   1.320   6.948 -1.4378 -1.0871  0.1726
  100SAPS   C2710055   3.698   1.105   7.002  0.8221  0.2982 -0.0662
  100SAPS   H7R10056   3.656   1.095   7.105  1.5813  1.0409  0.3183
  100SAPS   H7S10057   3.769   1.021   6.988  0.6227  0.2040 -0.5093
  100SAPS   C2810058   3.594   1.084   6.892 -0.3527 -0.1951  0.4236
  100SAPS   H8R10059   3.643   1.048   6.800 -1.9594  0.4435 -0.6878
  100SAPS   C2910060   3.459   1.074   6.901  0.9162 -0.0915  0.2241
  100SAPS   H9R10061   3.408   1.032   6.813  2.9133 -1.3411 -0.3473
  100SAPS  C21010062   3.369   1.093   7.021  0.3259  0.2927  0.4480
  100SAPS  H10R10063   3.266   1.118   6.989 -0.0163 -1.4071  0.2080
  100SAPS  H10S10064   3.390   1.187   7.077  0.2577 -0.2433  1.3898
  100SAPS  C21110065   3.378   0.977   7.121  0.9472 -0.1412 -0.2279
  100SAPS  H11R10066   3.471   0.919   7.107  0.4561 -0.3786 -2.8684
  100SAPS  C21210067   3.305   0.959   7.234  0.4408  0.0543  0.5703
  100SAPS  H12R10068   3.325   0.870   7.296  1.0364  0.7136  1.3191
  100SAPS  C21310069   3.205   1.058   7.290 -0.4284  0.3480  0.4019
  100SAPS  H13R10070   3.132   1.001   7.352  0.2742  0.2402  1.1407
  100SAPS  H13S10071   3.145   1.118   7.219  0.4472  0.5138 -0.2024
  100SAPS  C21410072   3.281   1.144   7.394  0.0353 -0.4150 -0.3955
  100SAPS  H14R10073   3.378   1.187   7.363  0.8759 -2.4421 -0.6700
  100SAPS  C21510074   3.246   1.166   7.520 -0.4763 -0.2919 -0.3320
  100SAPS  H15R10075   3.324   1.225   7.569  1.4522 -1.6006 -1.7317
  100SAPS  C21610076   3.129   1.110   7.596 -0.7558 -0.3298 -0.0844
  100SAPS  H16R10077   3.148   1.002   7.610  0.0100  0.3565  4.8202
  100SAPS  H16S10078   3.037   1.125   7.535 -1.8745 -0.8253  1.4439
  100SAPS  C21710079   3.127   1.177   7.741  0.0061  0.0709  0.2597
  100SAPS  H17R10080   3.224   1.152   7.789 -0.3948 -0.4112  0.8172
  100SAPS  H17S10081   3.050   1.130   7.805  1.0486 -1.9058  0.0982
  100SAPS  C21810082   3.096   1.327   7.734  0.6949  0.1639  0.4446
  100SAPS  H18R10083   2.988   1.343   7.715  1.3591  0.9757 -3.0347
  100SAPS  H18S10084   3.143   1.376   7.646  0.5733 -0.1837  0.1859
  100SAPS  C21910085   3.142   1.404   7.863 -0.3832  0.0802  0.0603
  100SAPS  H19R10086   3.151   1.507   7.821  0.7237 -0.2936 -0.6305
  100SAPS  H19S10087   3.248   1.374   7.878  0.4277  3.2420  1.0417
  100SAPS  C22010088   3.068   1.402   7.995  0.5596 -0.0112 -0.3375
  100SAPS  H20R10089   2.979   1.469   7.994 -0.1819 -0.9056  1.8172
  100SAPS  H20S10090   3.129   1.432   8.083 -2.3577  0.6684  1.5320
  100SAPS  H20T10091   3.036   1.297   8.014  0.4183  0.1707  0.4166
  100SAPS   C3310092   4.022   1.648   6.833  0.5437  0.1428  0.4444
  100SAPS   H3X10093   4.067   1.702   6.746 -3.3837  1.4120 -0.9184
  100SAPS   H3Y10094   4.046   1.540   6.835  1.0550  0.2519  0.2571
  100SAPS   C3410095   4.067   1.718   6.960 -0.3443 -0.3739  0.9030
  100SAPS   H4X10096   4.034   1.824   6.961  0.4631 -0.1211  0.4618
  100SAPS   H4Y10097   4.177   1.716   6.952 -0.1780  0.9332  2.5529
  100SAPS   C3510098   4.017   1.651   7.088  1.1923  0.0434 -0.2342
  100SAPS   H5X10099   4.036   1.542   7.092 -1.7022 -0.4898  0.3348
  100SAPS   H5Y10100   3.906   1.661   7.089  0.7914 -3.6403  0.0853
  100SAPS   C3610101   4.086   1.706   7.215 -0.3992  0.0900 -0.3363
  100SAPS   H6X10102   4.074   1.815   7.233  2.3140  0.4517 -0.5867
  100SAPS   H6Y10103   4.194   1.680   7.212 -1.0355 -2.7282 -0.1407
  100SAPS   C3710104   4.041   1.634   7.343  0.4408  0.2172  0.2330
  100SAPS   H7X10105   4.076   1.529   7.356  0.8052  0.1910 -0.9294
  100SAPS   H7Y10106   3.930   1.636   7.340  0.4305 -0.2544  0.1290
  100SAPS   C3810107   4.085   1.707   7.472 -0.7531 -1.0635 -0.9361
  100SAPS   H8X10108   4.049   1.812   7.469  3.0497  0.3257 -0.8467
  100SAPS   H8Y10109   4.196   1.718   7.473 -0.7093 -1.1875 -2.5253
  100SAPS   C3910110   4.040   1.643   7.604  0.5502  0.7364 -0.1924
  100SAPS   H9X10111   4.078   1.539   7.599 -0.0270  0.4664  1.0060
  100SAPS   H9Y10112   3.930   1.634   7.614  0.1534  0.7740 -3.6239
  100SAPS  C31010113   4.098   1.704   7.732  0.3356  0.1064 -0.2215
  100SAPS  H10X10114   4.029   1.781   7.773 -0.2822 -0.7487  0.3845
  100SAPS  H10Y10115   4.190   1.755   7.697  0.1532  0.4541 -0.1974
  100SAPS  C31110116   4.142   1.607   7.848  0.6564 -0.2822  0.7512
  100SAPS  H11X10117   4.228   1.542   7.826  0.6331 -0.8531  2.3335
  100SAPS  H11Y10118   4.052   1.544   7.867 -0.6470  0.9342 -1.1144
  100SAPS  C31210119   4.177   1.695   7.973 -0.2143 -0.6332 -0.2293
  100SAPS  H12X10120   4.086   1.748   8.008  0.9865  0.4186  1.3556
  100SAPS  H12Y10121   4.253   1.772   7.948 -1.1408  1.1639  2.2492
  100SAPS  C31310122   4.217   1.615   8.091 -0.1328  0.3118 -0.5052
  100SAPS  H13X10123   4.319   1.571   8.087  1.0543  2.5361  3.1741
  100SAPS  H13Y10124   4.140   1.537   8.111 -2.1258  2.4323  0.2538
  100SAPS  C31410125   4.241   1.697   8.223  0.0569 -0.0983  0.0568
  100SAPS  H14X10126   4.162   1.773   8.240 -0.4541 -0.5143 -0.4669
  100SAPS  H14Y10127   4.338   1.747   8.205  0.5894 -0.7553  0.9844
  100SAPS  C31510128   4.250   1.608   8.353  0.9489 -0.0298  0.3732
  100SAPS  H15X10129   4.143   1.584   8.374  1.0997 -0.3459  0.7901
  100SAPS  H15Y10130   4.276   1.661   8.447  0.0395  0.4603  0.3538
  100SAPS  C31610131   4.331   1.480   8.345 -0.2410 -0.0998 -0.6443
  100SAPS  H16X10132   4.439   1.499   8.330  0.4329 -2.5154  0.8219
  100SAPS  H16Y10133   4.295   1.411   8.265 -2.2202  0.0544  0.0859
  100SAPS  C31710134   4.316   1.406   8.478 -0.7101 -0.0801 -0.6206
  100SAPS  H17X10135   4.207   1.393   8.498 -0.7341  1.7102  0.5045
  100SAPS  H17Y10136   4.357   1.469   8.560 -0.0512  0.8683 -1.6778
  100SAPS  C31810137   4.388   1.268   8.467 -0.2227  0.3616 -0.9120
  100SAPS  H18X10138   4.335   1.212   8.387 -0.0830 -1.4808  0.2507
  100SAPS  H18Y10139   4.383   1.210   8.562  0.3869  2.1758  0.2517
  100SAPS  H18Z10140   4.492   1.269   8.430  0.5969  0.9487  1.3545
  101OSM      N10141   2.457   1.448  11.213 -1.1703 -0.5079  0.4462
  101OSM    C1510142   2.597   1.426  11.265  0.1316  0.7190 -0.6723
  101OSM   H15A10143   2.643   1.330  11.247  0.8114  0.3669  2.6639
  101OSM   H15B10144   2.599   1.429  11.373  0.3252  0.2788 -0.6646
  101OSM   H15C10145   2.669   1.500  11.232  2.3938  0.2209  2.7858
  101OSM    C1410146   2.361   1.397  11.320 -0.1722  0.0481 -0.7064
  101OSM   H14A10147   2.375   1.456  11.409 -0.3877 -0.8252 -0.0874
  101OSM   H14B10148   2.377   1.293  11.345  0.3293  0.6973  1.8698
  101OSM   H14C10149   2.257   1.412  11.298 -0.2478  0.5463 -0.0300
  101OSM    C1310150   2.431   1.596  11.202 -0.4214  0.1947  0.2867
  101OSM   H13A10151   2.428   1.645  11.298  1.0830 -0.0560  0.4656
  101OSM   H13B10152   2.332   1.611  11.160 -0.5836  0.6476  0.8317
  101OSM   H13C10153   2.504   1.641  11.136 -2.8391  0.8362 -2.0679
  101OSM    C1210154   2.432   1.381  11.092 -0.7524  0.5212  0.1393
  101OSM   H12A10155   2.331   1.393  11.054 -0.6033 -2.4040 -1.2972
  101OSM   H12B10156   2.442   1.275  11.108  3.1988  0.7609 -0.2885
  101OSM    C1110157   2.531   1.400  10.973  0.9658  0.4966 -0.2703
  101OSM   H11A10158   2.496   1.333  10.891  3.8403 -0.8766 -0.4232
  101OSM   H11B10159   2.630   1.362  11.005 -0.9896 -3.4556  1.4625
  101OSM      P10160   2.657   1.591  10.843  0.1639 -0.4408 -0.4558
  101OSM    O1310161   2.642   1.734  10.815  0.2130 -0.2236 -0.7020
  101OSM    O1410162   2.787   1.542  10.898 -0.3148 -0.8732  0.1160
  101OSM    O1110163   2.650   1.514  10.708  0.4924 -0.5663 -0.4859
  101OSM    O1210164   2.530   1.535  10.925  0.3455 -1.2367  0.5444
  101OSM    C1S10165   2.539   1.520  10.616 -0.6237  0.1034  0.1498
  101OSM    H1S10166   2.474   1.608  10.636  2.1885  2.0632  0.9827
  101OSM    H1T10167   2.477   1.428  10.615 -0.2432 -0.1538  0.0701
  101OSM     NF10168   2.514   1.571  10.374 -0.2283  0.2094  0.2266
  101OSM    HNF10169   2.495   1.521  10.290 -1.6356 -1.0603  1.2812
  101OSM    C2S10170   2.609   1.527  10.478  0.1813  0.1720  0.0858
  101OSM    H2S10171   2.690   1.603  10.478 -0.5640  0.9807 -1.6760
  101OSM    C3S10172   2.672   1.386  10.446  0.0753 -0.4954  0.4109
  101OSM    H3S10173   2.598   1.304  10.434  0.7744 -1.4193  2.1649
  101OSM     O310174   2.747   1.326  10.547 -0.1742 -0.0894  0.0454
  101OSM    HO310175   2.733   1.380  10.625  1.1805  1.0929 -0.5145
  101OSM    C4S10176   2.749   1.390  10.311  0.1908  0.3703  0.0071
  101OSM    H4S10177   2.681   1.365  10.228  0.8228 -0.6844 -0.1911
  101OSM    C5S10178   2.871   1.429  10.273 -0.2213  0.0244 -0.1361
  101OSM    H5S10179   2.941   1.467  10.349 -1.1374  1.7573 -0.1299
  101OSM    C6S10180   2.920   1.421  10.130 -0.0311 -0.4762 -0.0696
  101OSM    H6S10181   2.996   1.341  10.122  0.1517 -0.6575  2.8496
  101OSM    H6T10182   2.991   1.505  10.111  1.8815 -2.2123 -0.7680
  101OSM    C7S10183   2.818   1.420  10.011  0.4844  0.6181  0.1754
  101OSM    H7S10184   2.750   1.508  10.017 -0.4271  0.1645 -2.8360
  101OSM    H7T10185   2.745   1.336  10.021 -0.1890  1.2124  0.2589
  101OSM    C8S10186   2.881   1.420   9.877 -0.1438 -0.3734 -0.1927
  101OSM    H8S10187   2.958   1.340   9.870  0.2919 -0.0473  0.7307
  101OSM    H8T10188   2.932   1.518   9.870 -0.4543 -0.2783 -1.2160
  101OSM    C9S10189   2.793   1.402   9.757  0.0660 -0.2185 -0.8499
  101OSM    H9S10190   2.726   1.487   9.729  1.0829  0.4394 -1.3416
  101OSM    H9T10191   2.733   1.313   9.785  0.1037 -0.3248 -1.1048
  101OSM   C10S10192   2.873   1.358   9.626  0.4834 -0.0606  0.1110
  101OSM   H10S10193   2.925   1.265   9.658 -0.2765 -0.3861  0.4018
  101OSM   H10T10194   2.947   1.442   9.622  0.9249 -0.4453  0.1199
  101OSM   C11S10195   2.791   1.348   9.497 -0.4145 -1.0254  0.6196
  101OSM   H11S10196   2.752   1.441   9.451  1.4474  0.3873  1.8542
  101OSM   H11T10197   2.709   1.276   9.522 -0.0515 -1.0129  1.8605
  101OSM   C12S10198   2.881   1.276   9.388  0.6358 -0.7538 -0.4617
  101OSM   H12S10199   2.925   1.188   9.440  2.0640  0.4518  0.4134
  101OSM   H12T10200   2.962   1.346   9.358  1.4703 -2.2325 -1.6954
  101OSM   C13S10201   2.796   1.228   9.263  0.9041 -0.5116  0.0468
  101OSM   H13S10202   2.729   1.315   9.246  1.8489  0.4223  0.9735
  101OSM   H13T10203   2.728   1.149   9.300 -1.4933  2.6841  2.8528
  101OSM   C14S10204   2.868   1.196   9.134 -0.0358  0.4806 -1.0572
  101OSM   H14S10205   2.948   1.123   9.156  0.0413  1.2942  1.6621
  101OSM   H14T10206   2.916   1.293   9.107 -0.5494  0.7094 -1.1569
  101OSM   C15S10207   2.775   1.176   9.020  0.6606 -0.2014  0.0593
  101OSM   H15S10208   2.719   1.270   9.001 -1.5415 -1.8489 -1.8962
  101OSM   H15T10209   2.689   1.106   9.026 -1.5382  2.4100 -0.2730
  101OSM   C16S10210   2.841   1.154   8.876 -0.2712 -0.4671  0.9990
  101OSM   H16S10211   2.915   1.072   8.866  1.5087  1.4916 -3.5520
  101OSM   H16T10212   2.897   1.249   8.861 -1.8841  0.2263 -0.8207
  101OSM   C17S10213   2.734   1.137   8.767  0.3821 -0.0063 -0.0949
  101OSM   H17S10214   2.659   1.219   8.762  1.0207  0.5343 -0.9797
  101OSM   H17T10215   2.681   1.040   8.782 -1.0549  0.9402  1.1106
  101OSM   C18S10216   2.795   1.118   8.630 -0.0659  1.0102  0.3650
  101OSM   H18S10217   2.851   1.023   8.624  0.8024  1.5783 -0.7273
  101OSM   H18T10218   2.856   1.211   8.617 -2.1056  2.4870  1.0461
  101OSM   H18U10219   2.709   1.110   8.561  1.1890  0.6354 -1.1622
  101OSM    C1F10220   2.457   1.697  10.377 -0.7892 -0.4644  0.9610
  101OSM     OF10221   2.483   1.772  10.466 -0.4331 -0.8026  0.3037
  101OSM    C2F10222   2.356   1.743  10.275 -0.1824  0.2153  0.1927
  101OSM    H2F10223   2.263   1.682  10.278  0.0965 -0.2045  0.4784
  101OSM    H2G10224   2.401   1.727  10.175  1.2089 -0.5118  0.9139
  101OSM    C3F10225   2.339   1.893  10.283  0.3698  0.5100  0.5591
  101OSM    H3F10226   2.436   1.945  10.265 -0.7210  1.8079 -1.8046
  101OSM    H3G10227   2.307   1.911  10.388 -0.1492  1.0372  0.3142
  101OSM    C4F10228   2.222   1.938  10.190  0.8593  0.2446 -0.3370
  101OSM    H4F10229   2.183   2.030  10.239  0.6910  0.6846 -1.2799
  101OSM    H4G10230   2.145   1.859  10.191  0.9689  0.1435  0.2337
  101OSM    C5F10231   2.276   1.972  10.046  0.5794  0.4262  0.3419
  101OSM    H5F10232   2.327   1.881  10.006  2.2296  0.7768  1.6032
  101OSM    H5G10233   2.361   2.043  10.051  1.2171 -0.2776 -0.3769
  101OSM    C6F10234   2.168   2.036   9.955  0.0627  0.1953  0.4104
  101OSM    H6F10235   2.219   2.090   9.872  0.4006 -2.5769 -1.2846
  101OSM    H6G10236   2.113   2.112  10.014  2.0813  2.4067 -0.4702
  101OSM    C7F10237   2.069   1.932   9.894  0.5558  0.2984  0.2341
  101OSM    H7F10238   2.009   1.980   9.814  1.8734 -1.2277 -1.7234
  101OSM    H7G10239   2.007   1.882   9.972 -2.7210  0.3150 -2.2602
  101OSM    C8F10240   2.144   1.820   9.813  0.1508  0.1754 -0.1356
  101OSM    H8F10241   2.072   1.742   9.780  0.5543 -0.8595  1.3597
  101OSM    H8G10242   2.210   1.763   9.881 -1.2252 -0.0947  1.0037
  101OSM    C9F10243   2.228   1.863   9.695 -0.1605 -0.0355  0.1401
  101OSM    H9F10244   2.328   1.899   9.722 -1.0144  1.8887  0.8207
  101OSM   C10F10245   2.193   1.862   9.564 -0.2138  0.0135  0.1731
  101OSM   H10F10246   2.266   1.899   9.490  1.1855 -0.0853  1.4960
  101OSM   C11F10247   2.061   1.831   9.495  0.3309 -0.1299 -0.0890
  101OSM   H11F10248   1.986   1.895   9.546  0.0331  0.6914 -1.5392
  101OSM   H11G10249   2.035   1.728   9.529  0.7114 -0.0884  0.3208
  101OSM   C12F10250   2.053   1.846   9.341  0.0967 -0.5445  0.4400
  101OSM   H12F10251   2.109   1.935   9.303  0.2160 -0.8965 -0.2098
  101OSM   H12G10252   1.944   1.855   9.324  0.3169  0.0571 -0.7344
  101OSM   C13F10253   2.102   1.724   9.263  0.3113  0.0300 -0.2332
  101OSM   H13F10254   2.084   1.629   9.318 -0.1804  1.5443  2.3173
  101OSM   H13G10255   2.213   1.726   9.257  0.4134  0.5609  1.4156
  101OSM   C14F10256   2.055   1.718   9.120  0.9637  1.0914  0.4921
  101OSM   H14F10257   2.092   1.810   9.069  2.5516  1.5456  2.3898
  101OSM   H14G10258   1.944   1.722   9.116  1.0566  2.0487 -2.2828
  101OSM   C15F10259   2.107   1.596   9.043 -0.7575 -0.1058 -0.3948
  101OSM   H15F10260   2.105   1.517   9.121 -2.2599  1.0538  0.7822
  101OSM   H15G10261   2.211   1.613   9.009  0.0760 -2.9554  0.6028
  101OSM   C16F10262   2.034   1.548   8.910  0.3930 -0.0407 -0.4776
  101OSM   H16F10263   2.031   1.636   8.843 -2.4352 -0.1920 -0.6079
  101OSM   H16G10264   1.925   1.531   8.925  0.4293 -1.1961 -1.4422
  101OSM   C17F10265   2.089   1.422   8.845 -0.0407 -0.0190  1.1133
  101OSM   H17F10266   2.100   1.351   8.930 -1.3335  0.6201  1.8170
  101OSM   H17G10267   2.188   1.447   8.799 -0.5524  0.0296  0.0219
  101OSM   C18F10268   2.000   1.371   8.724  0.7744  0.2653  0.4257
  101OSM   H18F10269   1.898   1.340   8.754  0.6690  0.7489  0.5656
  101OSM   H18G10270   2.052   1.283   8.680 -1.5235 -1.9889  2.0684
  101OSM   H18H10271   1.995   1.442   8.638 -3.3096 -0.2407  0.1539
  102OSM      N10272   2.064   0.806  10.963 -0.9882  0.0053 -1.0780
  102OSM    C1510273   1.998   0.687  11.020  0.9378 -0.6450  0.3929
  102OSM   H15A10274   1.891   0.696  11.012  0.9088 -1.9891 -1.1116
  102OSM   H15B10275   2.023   0.679  11.125  0.0078 -0.1262  0.6489
  102OSM   H15C10276   2.025   0.596  10.967 -0.5067 -0.5114 -0.5738
  102OSM    C1410277   2.031   0.930  11.049 -1.3310  1.3013 -0.3178
  102OSM   H14A10278   2.064   0.910  11.150  0.4764 -1.6451 -1.4448
  102OSM   H14B10279   1.926   0.950  11.035 -1.5129 -0.1850 -1.1854
  102OSM   H14C10280   2.086   1.009  11.000 -0.9334  0.7747 -0.7182
  102OSM    C1310281   2.214   0.772  10.980 -0.2567  0.4637  0.8658
  102OSM   H13A10282   2.250   0.759  11.081 -0.4267 -2.5597  0.6026
  102OSM   H13B10283   2.277   0.835  10.920 -0.6708 -0.2788 -0.3729
  102OSM   H13C10284   2.238   0.678  10.931  3.6681  0.4670  2.5993
  102OSM    C1210285   2.027   0.818  10.821 -0.6983 -0.1123  0.8088
  102OSM   H12A10286   1.921   0.824  10.801 -0.4964 -2.1358 -1.1785
  102OSM   H12B10287   2.062   0.726  10.776  1.3014 -0.3483  2.7278
  102OSM    C1110288   2.093   0.940  10.749  0.2332  0.3920 -0.1590
  102OSM   H11A10289   2.045   1.027  10.796 -2.1330 -0.7949 -0.3148
  102OSM   H11B10290   2.057   0.939  10.644 -0.3623  1.8608  0.0325
  102OSM      P10291   2.315   1.078  10.703  0.1915  0.3024 -0.2336
  102OSM    O1310292   2.252   1.203  10.755  0.1829 -0.1970  0.4055
  102OSM    O1410293   2.452   1.062  10.740  0.1116 -1.1361 -0.1495
  102OSM    O1110294   2.299   1.060  10.549 -0.1744 -0.2785  0.2909
  102OSM    O1210295   2.236   0.946  10.755  0.2863  0.5647 -0.0472
  102OSM    C1S10296   2.214   1.139  10.462  0.2543  0.0328 -0.6580
  102OSM    H1S10297   2.230   1.248  10.471  0.3164 -0.0685  0.5420
  102OSM    H1T10298   2.117   1.124  10.513  0.5416 -0.9138 -0.3724
  102OSM     NF10299   2.090   1.135  10.249 -0.4851  0.7893 -0.6782
  102OSM    HNF10300   2.010   1.078  10.236  1.5395 -2.1465 -0.7321
  102OSM    C2S10301   2.200   1.075  10.323  0.4483 -0.1327 -0.1128
  102OSM    H2S10302   2.295   1.108  10.276 -0.1754  1.7180 -0.1109
  102OSM    C3S10303   2.202   0.916  10.314  0.7483  0.8909  0.1174
  102OSM    H3S10304   2.109   0.875  10.359  0.7330  0.7572 -0.0392
  102OSM     O310305   2.302   0.849  10.391  0.3919 -0.0476 -0.5561
  102OSM    HO310306   2.341   0.922  10.439  0.1247  0.5835 -1.2933
  102OSM    C4S10307   2.211   0.871  10.166  0.3777 -0.1362 -0.3560
  102OSM    H4S10308   2.131   0.797  10.151 -0.5927  0.3142  2.3873
  102OSM    C5S10309   2.306   0.897  10.074 -0.9284 -0.3505 -0.0190
  102OSM    H5S10310   2.378   0.978  10.091 -0.6023 -0.7975  0.7679
  102OSM    C6S10311   2.305   0.839   9.939 -0.4931  0.2039  1.0912
  102OSM    H6S10312   2.410   0.814   9.913  0.0226 -0.2868  3.5069
  102OSM    H6T10313   2.275   0.924   9.874  0.7611  0.9144  1.4252
  102OSM    C7S10314   2.209   0.717   9.905 -0.0584  0.1318 -0.5738
  102OSM    H7S10315   2.102   0.737   9.925  0.2950 -0.9063  2.6937
  102OSM    H7T10316   2.258   0.634   9.960 -0.5467 -0.0439 -0.4020
  102OSM    C8S10317   2.226   0.669   9.757  0.2744 -0.1925 -0.3281
  102OSM    H8S10318   2.226   0.558   9.750  1.6134 -0.3128  1.2969
  102OSM    H8T10319   2.326   0.704   9.722 -0.1735  0.3579 -1.0814
  102OSM    C9S10320   2.119   0.727   9.662 -0.4218  0.2455 -0.2417
  102OSM    H9S10321   2.126   0.838   9.653 -0.5943  0.2386 -0.4580
  102OSM    H9T10322   2.017   0.731   9.706 -0.9142  0.0401 -1.3482
  102OSM   C10S10323   2.110   0.654   9.524 -0.0149  0.4407 -0.3730
  102OSM   H10S10324   2.024   0.690   9.463 -0.0912 -1.2484 -1.3005
  102OSM   H10T10325   2.094   0.546   9.543 -0.5318  0.1809 -2.1376
  102OSM   C11S10326   2.239   0.657   9.449 -0.2389  0.3535 -0.0691
  102OSM   H11S10327   2.313   0.613   9.519  1.4216  1.2804 -1.1933
  102OSM   H11T10328   2.268   0.764   9.440 -2.0758  0.9266  0.5325
  102OSM   C12S10329   2.246   0.594   9.309 -0.1826  0.5175  0.2262
  102OSM   H12S10330   2.177   0.654   9.246  0.7894  0.3796 -0.9831
  102OSM   H12T10331   2.206   0.490   9.303  0.2140  0.4537 -1.7099
  102OSM   C13S10332   2.385   0.587   9.233 -0.0054  0.3507  0.1257
  102OSM   H13S10333   2.453   0.517   9.286 -1.0786 -0.3310  0.6204
  102OSM   H13T10334   2.449   0.678   9.230  1.3200 -0.6186 -2.7882
  102OSM   C14S10335   2.375   0.542   9.086  0.3081  0.3484 -0.1127
  102OSM   H14S10336   2.476   0.517   9.045  0.5919 -2.7118  2.2278
  102OSM   H14T10337   2.331   0.622   9.024 -2.6865 -1.8543 -0.9377
  102OSM   C15S10338   2.290   0.417   9.072  0.7517 -0.3165 -0.4394
  102OSM   H15S10339   2.182   0.433   9.089  0.5251 -1.8908 -0.3719
  102OSM   H15T10340   2.330   0.332   9.131  2.3543  1.1505  0.6438
  102OSM   C16S10341   2.298   0.368   8.926  0.2488 -0.2852 -0.0626
  102OSM   H16S10342   2.310   0.258   8.932  1.1271 -0.1533  0.6776
  102OSM   H16T10343   2.397   0.400   8.887  1.1448 -1.5505  1.0994
  102OSM   C17S10344   2.195   0.416   8.817  0.4629  0.3460 -0.0657
  102OSM   H17S10345   2.175   0.525   8.810 -3.8142 -0.3194  0.4112
  102OSM   H17T10346   2.096   0.377   8.846  0.5239  1.7324  2.1442
  102OSM   C18S10347   2.217   0.355   8.678 -0.7272 -0.6036 -0.4562
  102OSM   H18S10348   2.248   0.249   8.694 -0.9057 -0.7553 -1.1075
  102OSM   H18T10349   2.295   0.412   8.624 -1.4269  2.0160  1.2036
  102OSM   H18U10350   2.116   0.359   8.630 -1.0722  0.5393  0.3540
  102OSM    C1F10351   2.082   1.261  10.219 -0.3667 -1.3995 -0.5074
  102OSM     OF10352   2.178   1.338  10.232 -0.0596 -0.0377 -0.2087
  102OSM    C2F10353   1.955   1.307  10.155  0.3986 -0.4532 -0.2316
  102OSM    H2F10354   1.874   1.285  10.228 -1.6923  0.0761 -2.3355
  102OSM    H2G10355   1.923   1.248  10.066  0.2055 -0.3818 -0.2093
  102OSM    C3F10356   1.960   1.461  10.110  0.7764  0.6659  0.2892
  102OSM    H3F10357   2.041   1.464  10.034  0.2893  0.0500 -0.2583
  102OSM    H3G10358   1.987   1.523  10.198 -2.2592  3.1538 -0.4441
  102OSM    C4F10359   1.827   1.498  10.047  0.3399  0.2765  0.1282
  102OSM    H4F10360   1.749   1.501  10.125 -2.8986 -0.6739 -2.9614
  102OSM    H4G10361   1.811   1.410   9.981 -1.4260  0.4528  0.2997
  102OSM    C5F10362   1.833   1.628   9.970 -0.8337  0.6528  0.6059
  102OSM    H5F10363   1.842   1.609   9.861 -0.4484 -2.3677  1.1444
  102OSM    H5G10364   1.932   1.674   9.991 -1.3944  1.3298  1.8894
  102OSM    C6F10365   1.726   1.735   9.996  0.2438 -0.7773  0.5642
  102OSM    H6F10366   1.757   1.826   9.941 -1.6902 -0.4759 -0.0599
  102OSM    H6G10367   1.716   1.766  10.102  0.8937 -1.3889  0.8125
  102OSM    C7F10368   1.602   1.681   9.923 -0.0555  0.1045 -0.1764
  102OSM    H7F10369   1.571   1.580   9.957 -3.1873  1.1121  0.0896
  102OSM    H7G10370   1.631   1.668   9.816  0.5312 -0.8945  0.0960
  102OSM    C8F10371   1.476   1.776   9.918  0.2704  0.0739  0.6874
  102OSM    H8F10372   1.404   1.738   9.843 -0.9174  1.1000  1.3051
  102OSM    H8G10373   1.507   1.872   9.873 -0.2644 -0.6731 -1.3532
  102OSM    C9F10374   1.427   1.814  10.056  0.7337  0.9892 -0.8316
  102OSM    H9F10375   1.511   1.844  10.121 -0.8205  1.3877  1.0685
  102OSM   C10F10376   1.298   1.797  10.102 -0.2154  0.7245  0.1580
  102OSM   H10F10377   1.282   1.811  10.210  2.6219 -1.9580  0.9950
  102OSM   C11F10378   1.179   1.731  10.026 -0.7639  0.0339 -0.2857
  102OSM   H11F10379   1.126   1.653  10.086 -1.2322  0.7430  0.2336
  102OSM   H11G10380   1.214   1.681   9.933 -0.8349 -0.8725  0.1637
  102OSM   C12F10381   1.055   1.812   9.984 -0.7083  0.1510 -0.7473
  102OSM   H12F10382   1.000   1.833  10.077 -0.4953 -2.8526  0.1138
  102OSM   H12G10383   0.993   1.751   9.914  2.1276 -2.7101 -0.9070
  102OSM   C13F10384   1.087   1.946   9.917  0.2457  0.8083 -0.4721
  102OSM   H13F10385   1.165   2.001   9.972  1.7524 -2.0900  0.3871
  102OSM   H13G10386   0.997   2.010   9.928  0.8826  1.2613  2.7027
  102OSM   C14F10387   1.117   1.940   9.763  0.4378  0.2058 -0.0197
  102OSM   H14F10388   1.047   1.874   9.707  1.3190  0.7568 -1.8087
  102OSM   H14G10389   1.218   1.897   9.751  0.4193  0.1783 -0.0786
  102OSM   C15F10390   1.120   2.082   9.697  0.1012  0.5236 -0.0931
  102OSM   H15F10391   1.185   2.143   9.763  2.0935 -1.5795 -0.0380
  102OSM   H15G10392   1.021   2.132   9.694  0.1514  0.6284  0.0299
  102OSM   C16F10393   1.186   2.064   9.552 -0.3052 -0.4546  0.3881
  102OSM   H16F10394   1.125   2.002   9.483  2.0278 -2.2598 -0.1327
  102OSM   H16G10395   1.284   2.012   9.566 -0.2953  0.2028  3.0513
  102OSM   C17F10396   1.218   2.202   9.493  0.6348 -0.4096  0.0858
  102OSM   H17F10397   1.309   2.228   9.551  0.4323 -1.7215  1.0082
  102OSM   H17G10398   1.124   2.259   9.509 -1.1046 -2.5312 -2.1940
  102OSM   C18F10399   1.248   2.190   9.345 -0.3540  0.1958  0.7636
  102OSM   H18F10400   1.331   2.262   9.328 -1.1055  0.3901 -2.5790
  102OSM   H18G10401   1.165   2.239   9.289  0.8376  1.8951  0.4414
  102OSM   H18H10402   1.249   2.085   9.310  0.6251  0.1571  0.8928
  103OSM      N10403   4.310   3.547  11.281 -0.1063 -0.0607 -0.4385
  103OSM    C1510404   4.393   3.426  11.292  0.1518 -0.3673  0.6018
  103OSM   H15A10405   4.393   3.396  11.396  0.6469 -1.0097  0.4228
  103OSM   H15B10406   4.495   3.447  11.261  0.1071  0.6604  1.1511
  103OSM   H15C10407   4.372   3.347  11.220  0.2690 -0.4199  0.6248
  103OSM    C1410408   4.182   3.511  11.344 -0.0546 -0.0024  0.2739
  103OSM   H14A10409   4.195   3.489  11.449 -2.1815 -0.7890  0.3895
  103OSM   H14B10410   4.146   3.420  11.300  1.2669 -1.5642  2.3281
  103OSM   H14C10411   4.108   3.590  11.333  0.0974  0.2529  1.0786
  103OSM    C1310412   4.379   3.655  11.366  0.4847 -0.4081 -0.6064
  103OSM   H13A10413   4.368   3.627  11.469 -3.0281 -0.8218 -1.0339
  103OSM   H13B10414   4.335   3.751  11.343 -0.4713 -0.4773  0.9192
  103OSM   H13C10415   4.485   3.665  11.348  0.5727 -0.4418 -0.0938
  103OSM    C1210416   4.295   3.598  11.140 -0.2359  0.0221 -0.8002
  103OSM   H12A10417   4.261   3.519  11.075  2.7081 -2.6980  0.7879
  103OSM   H12B10418   4.394   3.620  11.103  1.3743 -1.3266  2.4678
  103OSM    C1110419   4.188   3.708  11.109 -0.4654 -0.2224 -0.4354
  103OSM   H11A10420   4.197   3.754  11.008  2.1030  1.4590  0.5160
  103OSM   H11B10421   4.203   3.792  11.181 -0.1593 -0.1072 -0.6289
  103OSM      P10422   3.996   3.546  11.035  0.0078  0.3752 -0.4030
  103OSM    O1310423   4.079   3.429  11.040 -0.2291 -0.1349  0.4384
  103OSM    O1410424   3.853   3.531  11.071  0.4095  0.6102 -0.1426
  103OSM    O1110425   4.019   3.606  10.891  0.2057  0.4835 -0.3152
  103OSM    O1210426   4.053   3.658  11.123 -0.4401  0.2987 -0.2975
  103OSM    C1S10427   3.926   3.704  10.852  1.0820  0.3691  0.0983
  103OSM    H1S10428   3.963   3.796  10.902 -0.4726  1.1848 -0.2110
  103OSM    H1T10429   3.824   3.673  10.883  0.1158  2.0638 -1.2904
  103OSM     NF10430   3.828   3.831  10.665 -0.1533 -0.8631  0.0198
  103OSM    HNF10431   3.756   3.803  10.603  0.1596 -2.8992  0.5579
  103OSM    C2S10432   3.925   3.736  10.702 -0.1015  0.3868  0.2534
  103OSM    H2S10433   4.025   3.781  10.687  0.0200 -0.0903 -0.3873
  103OSM    C3S10434   3.924   3.605  10.608 -0.1440 -0.8021 -0.3980
  103OSM    H3S10435   3.821   3.566  10.620 -0.6478  0.5053 -0.4149
  103OSM     O310436   4.008   3.494  10.653  0.1458 -0.4123  0.4200
  103OSM    HO310437   4.046   3.520  10.737  1.6100  1.5088 -0.7655
  103OSM    C4S10438   3.949   3.650  10.466 -0.4761  0.3312  0.0449
  103OSM    H4S10439   3.860   3.681  10.409  1.9133  0.4386 -3.8022
  103OSM    C5S10440   4.061   3.645  10.402 -0.6451  0.0753  0.0352
  103OSM    H5S10441   4.144   3.598  10.456  0.8435  1.4726 -1.0248
  103OSM    C6S10442   4.079   3.681  10.256  0.1257 -0.2591  0.6591
  103OSM    H6S10443   4.149   3.604  10.217 -0.2550 -0.5328  0.5127
  103OSM    H6T10444   4.136   3.776  10.258  0.3326 -0.3263 -1.0731
  103OSM    C7S10445   3.954   3.702  10.160  0.1565  0.5658  0.4882
  103OSM    H7S10446   3.901   3.791  10.199  0.6343  1.3519 -0.6403
  103OSM    H7T10447   3.883   3.617  10.155 -0.0534  0.7296  0.6900
  103OSM    C8S10448   3.993   3.743  10.015  0.4539  0.4485  0.7494
  103OSM    H8S10449   4.091   3.795  10.019  0.5742  0.3233 -0.5757
  103OSM    H8T10450   3.917   3.809   9.969 -1.0305 -1.9866 -0.4310
  103OSM    C9S10451   4.002   3.629   9.916 -0.3565 -0.0693 -0.0509
  103OSM    H9S10452   3.918   3.561   9.941 -0.2853  1.0783  3.4445
  103OSM    H9T10453   4.099   3.574   9.918 -1.1014 -1.3595  0.8160
  103OSM   C10S10454   3.977   3.673   9.769 -0.1948  0.1689 -0.4941
  103OSM   H10S10455   4.051   3.754   9.750 -1.1615  1.0830 -0.3995
  103OSM   H10T10456   3.877   3.721   9.765  0.6398  1.8757 -1.1907
  103OSM   C11S10457   3.991   3.559   9.671 -0.7092 -0.7765 -0.4185
  103OSM   H11S10458   3.892   3.531   9.630 -0.3044 -0.2051 -1.8150
  103OSM   H11T10459   4.038   3.467   9.714  0.0924 -0.0924  0.1808
  103OSM   C12S10460   4.081   3.608   9.555  0.4659  0.2268  0.0079
  103OSM   H12S10461   4.185   3.604   9.593  1.2870  0.2681 -2.2089
  103OSM   H12T10462   4.052   3.713   9.533  0.9068 -0.0362 -1.9088
  103OSM   C13S10463   4.065   3.525   9.427  0.5024 -0.2955  0.0784
  103OSM   H13S10464   3.961   3.509   9.392  1.5636  1.9777 -4.4726
  103OSM   H13T10465   4.116   3.426   9.434  1.6349  0.1019 -2.0649
  103OSM   C14S10466   4.136   3.603   9.320  0.3901  0.4289 -0.1700
  103OSM   H14S10467   4.243   3.607   9.351  0.1911 -1.2857  0.7726
  103OSM   H14T10468   4.095   3.706   9.319  0.5743  0.5042 -0.0698
  103OSM   C15S10469   4.116   3.534   9.176  0.1480 -0.1697 -0.2498
  103OSM   H15S10470   4.006   3.526   9.160  0.0400  2.7513 -1.3607
  103OSM   H15T10471   4.173   3.440   9.191 -0.1897  0.0265  2.4387
  103OSM   C16S10472   4.183   3.607   9.050  0.4806  0.9101 -0.1692
  103OSM   H16S10473   4.293   3.611   9.064  0.3494 -0.7529  1.4031
  103OSM   H16T10474   4.134   3.707   9.049 -1.3404  0.0241  0.6129
  103OSM   C17S10475   4.156   3.525   8.918 -0.3791  0.5934 -0.0787
  103OSM   H17S10476   4.184   3.591   8.833 -1.2430 -0.8443 -1.5315
  103OSM   H17T10477   4.048   3.499   8.909  0.3405 -2.9236  0.4544
  103OSM   C18S10478   4.238   3.398   8.903 -0.7753  0.0692 -0.0767
  103OSM   H18S10479   4.345   3.420   8.882 -1.1749  3.0014  0.7924
  103OSM   H18T10480   4.199   3.348   8.812  1.1023 -2.4156  0.4283
  103OSM   H18U10481   4.221   3.330   8.990 -0.8976  0.9864  0.6285
  103OSM    C1F10482   3.811   3.958  10.722 -0.0556  0.3278 -0.1007
  103OSM     OF10483   3.880   3.999  10.812 -0.5016  0.8026  0.2458
  103OSM    C2F10484   3.694   4.037  10.668 -0.5778 -0.2035 -0.1723
  103OSM    H2F10485   3.635   4.052  10.761  0.2442  1.4035  0.1065
  103OSM    H2G10486   3.647   3.968  10.594  0.6423 -1.9372  0.6483
  103OSM    C3F10487   3.739   4.167  10.592  0.5530  0.2913  0.1236
  103OSM    H3F10488   3.797   4.242  10.649 -2.0133  2.0572  0.4771
  103OSM    H3G10489   3.645   4.214  10.554  1.8314  1.4099 -1.7390
  103OSM    C4F10490   3.815   4.128  10.466 -0.6901 -0.3381  0.4732
  103OSM    H4F10491   3.767   4.036  10.425  1.1534 -2.2939  2.5952
  103OSM    H4G10492   3.922   4.106  10.482 -1.0557 -1.0683  1.9593
  103OSM    C5F10493   3.804   4.240  10.359 -0.0977  0.2521  0.0677
  103OSM    H5F10494   3.907   4.277  10.339 -0.1288  1.3745  1.8856
  103OSM    H5G10495   3.735   4.322  10.389 -0.0237  0.1358  0.5731
  103OSM    C6F10496   3.764   4.184  10.228  0.7787  0.1328  0.6736
  103OSM    H6F10497   3.834   4.103  10.199 -0.6479 -1.3811  1.3371
  103OSM    H6G10498   3.772   4.270  10.158  0.1166 -2.0392 -2.1809
  103OSM    C7F10499   3.623   4.119  10.203 -0.4530  0.0129 -0.6511
  103OSM    H7F10500   3.548   4.189  10.245 -1.1518 -1.2362  0.2304
  103OSM    H7G10501   3.628   4.032  10.273 -1.7795  1.1795  0.9312
  103OSM    C8F10502   3.582   4.099  10.058  0.9503  0.0931 -1.1057
  103OSM    H8F10503   3.574   4.199  10.011  0.3158  0.3904 -0.3666
  103OSM    H8G10504   3.477   4.062  10.055  1.4369 -1.2225 -2.4563
  103OSM    C9F10505   3.674   4.015   9.978 -0.0695  0.0717  0.7861
  103OSM    H9F10506   3.771   4.062   9.957 -0.5990  0.2096 -1.4654
  103OSM   C10F10507   3.630   3.903   9.917  0.7045 -0.6026  0.3850
  103OSM   H10F10508   3.714   3.845   9.875  1.6487 -1.6039  3.5152
  103OSM   C11F10509   3.502   3.826   9.925 -0.1532  0.2259 -0.6504
  103OSM   H11F10510   3.452   3.816   9.826 -1.4577  2.8872 -0.3014
  103OSM   H11G10511   3.432   3.885   9.987  0.2242 -0.4923  0.4770
  103OSM   C12F10512   3.517   3.676   9.976  0.4803 -0.1059  0.1434
  103OSM   H12F10513   3.420   3.628   9.998  0.7840 -0.8309 -0.0734
  103OSM   H12G10514   3.571   3.694  10.071  1.1591  2.0086 -0.6031
  103OSM   C13F10515   3.597   3.584   9.879  0.1782 -0.5728  0.6030
  103OSM   H13F10516   3.694   3.628   9.847  0.2718 -0.2709  1.3079
  103OSM   H13G10517   3.634   3.496   9.935 -0.3222  0.0912  1.9960
  103OSM   C14F10518   3.507   3.547   9.761 -0.7428 -0.1326 -0.1713
  103OSM   H14F10519   3.493   3.641   9.705  2.2718  1.1393  1.1352
  103OSM   H14G10520   3.405   3.511   9.791 -1.4564  0.2126 -2.1129
  103OSM   C15F10521   3.577   3.450   9.661  0.3807  0.1378  0.7149
  103OSM   H15F10522   3.583   3.345   9.698 -0.0674 -0.6870 -1.4506
  103OSM   H15G10523   3.682   3.484   9.651  0.4277 -0.0342  0.6271
  103OSM   C16F10524   3.520   3.447   9.519  0.1886 -0.1264  0.3640
  103OSM   H16F10525   3.510   3.550   9.479 -1.0603 -0.0858  0.7390
  103OSM   H16G10526   3.421   3.396   9.512 -0.9084  2.2960 -2.3598
  103OSM   C17F10527   3.619   3.362   9.436  0.5494 -0.3961 -0.1414
  103OSM   H17F10528   3.623   3.256   9.469 -2.0003 -0.9542 -1.4730
  103OSM   H17G10529   3.721   3.402   9.454 -0.0212 -0.5349  3.6722
  103OSM   C18F10530   3.597   3.374   9.291  0.4017 -0.1230  0.6681
  103OSM   H18F10531   3.633   3.468   9.244 -0.3506 -0.5954 -0.8578
  103OSM   H18G10532   3.489   3.363   9.268  0.5504 -0.9373  0.3408
  103OSM   H18H10533   3.658   3.294   9.244 -0.3354 -0.3641  0.1120
  104OSM      N10534   0.572   3.120  11.051  0.1647  0.0344  0.8369
  104OSM    C1510535   0.481   3.038  11.143 -0.0417  0.2435 -0.2478
  104OSM   H15A10536   0.381   3.060  11.108  0.5692  0.8801 -1.6488
  104OSM   H15B10537   0.498   3.065  11.246 -0.0635 -0.8831  0.0546
  104OSM   H15C10538   0.499   2.932  11.139 -1.0439  0.0851 -0.7200
  104OSM    C1410539   0.555   3.269  11.090  0.0230 -0.0165 -0.4168
  104OSM   H14A10540   0.602   3.299  11.182 -0.2925 -1.8220  0.3587
  104OSM   H14B10541   0.450   3.289  11.104 -0.0021 -0.3825 -0.0594
  104OSM   H14C10542   0.602   3.330  11.015  2.3388  1.3831  2.1023
  104OSM    C1310543   0.712   3.081  11.074  0.2526  0.2561  0.5754
  104OSM   H13A10544   0.707   2.973  11.080  0.6230  0.1661 -0.6646
  104OSM   H13B10545   0.739   3.109  11.175 -3.9882  1.5634  1.4470
  104OSM   H13C10546   0.776   3.112  10.993 -1.5590 -0.9596 -1.3861
  104OSM    C1210547   0.518   3.103  10.913  0.0171 -0.2674  0.2910
  104OSM   H12A10548   0.411   3.116  10.907  0.0581 -0.0036  0.1193
  104OSM   H12B10549   0.545   3.004  10.877  0.2833 -0.8293  2.0059
  104OSM    C1110550   0.573   3.186  10.801 -0.0542  0.0522  0.3118
  104OSM   H11A10551   0.553   3.291  10.833 -0.7399  0.4324 -1.3184
  104OSM   H11B10552   0.514   3.187  10.707 -0.0939  2.6565  0.3178
  104OSM      P10553   0.760   3.032  10.701  0.0408  0.2344  0.0352
  104OSM    O1310554   0.897   3.007  10.746 -0.1943 -0.4520  0.0178
  104OSM    O1410555   0.650   2.934  10.715  0.3161 -0.4586  0.2931
  104OSM    O1110556   0.770   3.084  10.551  0.4670 -0.1635  0.0152
  104OSM    O1210557   0.713   3.160  10.785 -0.0626  0.2840  0.3158
  104OSM    C1S10558   0.773   3.221  10.520  0.6160 -0.5706 -0.3371
  104OSM    H1S10559   0.876   3.254  10.546 -0.0094  0.6348  0.6362
  104OSM    H1T10560   0.693   3.282  10.567 -0.1159  0.0169 -2.3244
  104OSM     NF10561   0.785   3.379  10.323  1.0181 -0.0611  0.0200
  104OSM    HNF10562   0.711   3.441  10.297 -0.5235 -1.7610  0.2875
  104OSM    C2S10563   0.750   3.240  10.370 -0.2999  0.2940  0.7653
  104OSM    H2S10564   0.817   3.165  10.323 -1.1149 -1.0433  1.6941
  104OSM    C3S10565   0.611   3.200  10.323  0.0998  0.9522 -0.6805
  104OSM    H3S10566   0.540   3.276  10.363 -0.3506  0.6298 -0.8584
  104OSM     O310567   0.563   3.072  10.371  0.3346  0.1891 -0.5791
  104OSM    HO310568   0.626   3.061  10.442 -1.4246 -0.4574  0.9187
  104OSM    C4S10569   0.600   3.206  10.180 -0.9858  0.1057  0.3544
  104OSM    H4S10570   0.658   3.124  10.136 -2.5906 -1.2370  0.6931
  104OSM    C5S10571   0.532   3.288  10.102 -0.7771 -0.5650 -0.3797
  104OSM    H5S10572   0.486   3.374  10.152 -1.0114  0.3023 -2.0370
  104OSM    C6S10573   0.530   3.302   9.952 -0.4267 -0.6629  0.8205
  104OSM    H6S10574   0.589   3.388   9.912 -3.6845  0.7152 -1.2033
  104OSM    H6T10575   0.421   3.308   9.932 -0.3008 -1.4650 -0.1434
  104OSM    C7S10576   0.593   3.182   9.880 -0.2322  0.3254  0.2204
  104OSM    H7S10577   0.559   3.087   9.926  3.0868 -0.3633  1.3982
  104OSM    H7T10578   0.704   3.173   9.885 -0.0099  0.8935 -2.6484
  104OSM    C8S10579   0.544   3.188   9.735 -0.0635  0.1777  0.4929
  104OSM    H8S10580   0.437   3.218   9.732  0.3325  1.4517 -1.6490
  104OSM    H8T10581   0.546   3.090   9.683  0.2056  0.4682 -0.0478
  104OSM    C9S10582   0.631   3.277   9.650  0.2742  0.1518 -0.5221
  104OSM    H9S10583   0.734   3.246   9.624  0.4239 -0.1075  0.3647
  104OSM    H9T10584   0.660   3.373   9.697 -1.2252  0.0274  0.7221
  104OSM   C10S10585   0.568   3.317   9.513 -0.0748  0.2649 -0.1990
  104OSM   H10S10586   0.617   3.412   9.481 -1.4843  0.8197 -0.7218
  104OSM   H10T10587   0.464   3.344   9.539  0.5600  0.4300  2.2696
  104OSM   C11S10588   0.577   3.217   9.401  0.3573 -0.2991 -0.1927
  104OSM   H11S10589   0.540   3.122   9.444  0.0736 -0.0431  0.1301
  104OSM   H11T10590   0.687   3.209   9.383  0.6266  0.1474  1.1393
  104OSM   C12S10591   0.501   3.240   9.276  1.0221  0.1106 -0.5220
  104OSM   H12S10592   0.519   3.346   9.249  2.2949  1.2043  4.1256
  104OSM   H12T10593   0.391   3.245   9.291  1.2110 -0.7996  1.3118
  104OSM   C13S10594   0.532   3.131   9.172 -0.6930 -0.2914  0.6742
  104OSM   H13S10595   0.518   3.028   9.211  0.2111 -0.5010  0.4563
  104OSM   H13T10596   0.643   3.130   9.161 -0.6197 -1.5011  1.4492
  104OSM   C14S10597   0.470   3.158   9.033  0.0310  0.3723 -0.3478
  104OSM   H14S10598   0.504   3.074   8.968  0.5996 -0.0442  0.4871
  104OSM   H14T10599   0.503   3.255   8.988 -0.1031 -0.1193 -1.5307
  104OSM   C15S10600   0.316   3.160   9.021  0.2121  0.4690  0.5687
  104OSM   H15S10601   0.280   3.259   9.058  0.6506  0.4667  1.0112
  104OSM   H15T10602   0.268   3.080   9.082  2.6494  1.5209  4.0590
  104OSM   C16S10603   0.266   3.150   8.877 -0.0879 -0.1235 -0.0131
  104OSM   H16S10604   0.255   3.042   8.856  0.9300 -0.0622 -0.9199
  104OSM   H16T10605   0.339   3.185   8.801 -1.1486 -0.6218 -1.2691
  104OSM   C17S10606   0.120   3.191   8.855 -0.0887 -0.1354 -0.0911
  104OSM   H17S10607   0.058   3.164   8.943 -1.5302 -0.1871 -1.1059
  104OSM   H17T10608   0.079   3.121   8.779 -1.5544 -1.0838  1.5377
  104OSM   C18S10609   0.119   3.334   8.794  0.4924  0.0309 -0.3977
  104OSM   H18S10610   0.017   3.378   8.789  0.2849 -0.3350  0.6050
  104OSM   H18T10611   0.176   3.331   8.699  0.7481 -0.9478 -0.2127
  104OSM   H18U10612   0.150   3.394   8.882 -0.7743 -1.2157  0.9361
  104OSM    C1F10613   0.911   3.428  10.325 -0.4114 -0.6370 -0.3439
  104OSM     OF10614   1.005   3.362  10.371  0.2489  0.2540  0.7747
  104OSM    C2F10615   0.922   3.569  10.274  0.2806 -0.0651  0.3435
  104OSM    H2F10616   0.917   3.643  10.357  0.8662 -1.7513  1.9190
  104OSM    H2G10617   0.842   3.586  10.199  0.1424 -0.7260  0.3383
  104OSM    C3F10618   1.054   3.605  10.207  0.7653 -0.9683  1.0494
  104OSM    H3F10619   1.135   3.594  10.282 -1.3040 -2.3228  3.1723
  104OSM    H3G10620   1.057   3.712  10.177 -1.1472 -0.8585  1.1646
  104OSM    C4F10621   1.090   3.531  10.070  0.4356  0.1588 -0.2421
  104OSM    H4F10622   1.084   3.422  10.091  0.2927 -0.0399 -1.2830
  104OSM    H4G10623   1.194   3.555  10.041  1.0925 -1.9422  0.2900
  104OSM    C5F10624   0.992   3.558   9.952 -0.5407  0.2385 -0.8150
  104OSM    H5F10625   0.989   3.668   9.940 -1.0765  0.3763  0.4724
  104OSM    H5G10626   0.886   3.530   9.969 -0.2738  0.0995  0.7155
  104OSM    C6F10627   1.039   3.488   9.827 -0.6574  0.6780 -0.0849
  104OSM    H6F10628   1.044   3.378   9.845 -0.0182  0.3749 -2.0929
  104OSM    H6G10629   1.146   3.516   9.818 -0.8653  1.7335  0.6672
  104OSM    C7F10630   0.966   3.521   9.696  0.6026 -0.3036  0.3216
  104OSM    H7F10631   0.993   3.627   9.676  2.3187 -0.6714  0.6018
  104OSM    H7G10632   0.860   3.495   9.720  0.3237  0.4558 -0.0808
  104OSM    C8F10633   1.026   3.429   9.580  0.0919 -0.1100 -1.1234
  104OSM    H8F10634   1.031   3.327   9.622 -0.0761  0.1786 -0.3998
  104OSM    H8G10635   1.133   3.459   9.580  0.1958 -0.4588 -1.8187
  104OSM    C9F10636   0.953   3.441   9.445  0.3103  0.1950 -0.8248
  104OSM    H9F10637   0.853   3.395   9.444  1.0534 -1.4525 -0.7830
  104OSM   C10F10638   1.003   3.478   9.325 -0.3019 -0.1367  0.0434
  104OSM   H10F10639   0.931   3.491   9.244  0.9696 -1.0081 -1.2627
  104OSM   C11F10640   1.142   3.516   9.282  0.6223 -0.6255 -0.1375
  104OSM   H11F10641   1.204   3.531   9.373  1.1848  0.9728 -0.7587
  104OSM   H11G10642   1.153   3.616   9.235  0.3230 -0.8599 -0.7099
  104OSM   C12F10643   1.217   3.423   9.183 -0.3196 -0.0400  0.2637
  104OSM   H12F10644   1.156   3.411   9.091 -0.1102 -0.3898  0.1698
  104OSM   H12G10645   1.230   3.322   9.228  1.6380  0.5491  1.0503
  104OSM   C13F10646   1.357   3.476   9.134  0.2419 -0.0160 -0.5180
  104OSM   H13F10647   1.437   3.456   9.209 -0.9635 -1.9549  0.2888
  104OSM   H13G10648   1.363   3.587   9.137  3.5785 -0.1886  1.6567
  104OSM   C14F10649   1.399   3.417   9.002  0.0443  0.6823 -1.0374
  104OSM   H14F10650   1.314   3.431   8.932 -1.9138  1.9802  1.4714
  104OSM   H14G10651   1.424   3.310   9.015 -2.3575  0.2671  0.5102
  104OSM   C15F10652   1.525   3.475   8.944 -0.2924  1.2939  0.4731
  104OSM   H15F10653   1.547   3.416   8.852 -1.3020  1.8113 -0.1001
  104OSM   H15G10654   1.611   3.465   9.014  0.8350  1.4691 -0.8509
  104OSM   C16F10655   1.520   3.617   8.890  0.2494  0.0627  0.0324
  104OSM   H16F10656   1.490   3.678   8.978 -2.1334 -3.0293  1.4543
  104OSM   H16G10657   1.433   3.629   8.822  0.9410 -2.1247 -1.2657
  104OSM   C17F10658   1.656   3.658   8.831  0.2801  0.4832 -0.5366
  104OSM   H17F10659   1.684   3.590   8.748 -0.9582 -1.6714  0.7513
  104OSM   H17G10660   1.734   3.649   8.910 -0.4388 -1.1497  0.0155
  104OSM   C18F10661   1.663   3.808   8.779  0.1834 -0.1507 -0.0075
  104OSM   H18F10662   1.693   3.875   8.863  3.0923 -1.2714 -0.1011
  104OSM   H18G10663   1.558   3.828   8.751  0.1639 -0.7691 -0.3919
  104OSM   H18H10664   1.737   3.807   8.697  0.8101  2.8414  0.4740
  105OSM      N10665   1.085   2.505  11.056 -0.1298 -0.0548 -1.2108
  105OSM    C1510666   1.127   2.623  11.133  0.4096 -0.3237 -0.2047
  105OSM   H15A10667   1.053   2.700  11.122  2.7524  1.6946 -2.5709
  105OSM   H15B10668   1.231   2.648  11.115 -0.2839  0.2114 -4.0003
  105OSM   H15C10669   1.127   2.611  11.240  0.3324  1.4118 -0.0005
  105OSM    C1410670   1.186   2.399  11.078 -0.0669  0.3330 -0.1754
  105OSM   H14A10671   1.289   2.423  11.053  0.0393 -1.0813 -1.0975
  105OSM   H14B10672   1.152   2.317  11.018  0.2372  0.3141 -0.3261
  105OSM   H14C10673   1.189   2.372  11.182  1.6309  1.0220 -0.0238
  105OSM    C1310674   0.947   2.460  11.096 -0.6104  0.2746 -0.2761
  105OSM   H13A10675   0.922   2.437  11.199 -0.6926  3.4529  0.4452
  105OSM   H13B10676   0.921   2.367  11.046  2.7587 -0.1226 -1.3895
  105OSM   H13C10677   0.872   2.530  11.062 -2.3547 -2.7114 -2.8949
  105OSM    C1210678   1.085   2.537  10.913  0.5558  0.1058 -0.1839
  105OSM   H12A10679   1.177   2.582  10.876  0.5397  1.1579  0.9971
  105OSM   H12B10680   1.017   2.621  10.907 -0.2521 -0.6182 -1.0221
  105OSM    C1110681   1.039   2.434  10.811 -0.6430 -0.6785  0.0479
  105OSM   H11A10682   1.096   2.342  10.835  0.3728  0.0723  0.5237
  105OSM   H11B10683   1.061   2.467  10.707  1.6042 -0.0373  0.7004
  105OSM      P10684   0.787   2.492  10.774  0.0135  0.1787  0.0939
  105OSM    O1310685   0.663   2.416  10.763  0.0136  0.5769 -0.3363
  105OSM    O1410686   0.780   2.613  10.852  1.0920  0.2354 -0.6652
  105OSM    O1110687   0.842   2.529  10.631 -0.3769  0.3352  0.6134
  105OSM    O1210688   0.901   2.397  10.832  0.3852  0.1446  0.5700
  105OSM    C1S10689   0.867   2.661  10.596 -0.5728 -0.0541  0.1442
  105OSM    H1S10690   0.975   2.681  10.612 -0.4463 -1.6234  1.4077
  105OSM    H1T10691   0.811   2.738  10.653  0.7274  0.8771  0.1884
  105OSM     NF10692   0.884   2.825  10.425 -0.0718  0.5797 -0.4338
  105OSM    HNF10693   0.825   2.905  10.413  0.9533  1.3921 -0.1972
  105OSM    C2S10694   0.836   2.690  10.445  0.0177 -0.3629  0.3392
  105OSM    H2S10695   0.895   2.632  10.371  0.0766 -2.5807  2.1076
  105OSM    C3S10696   0.685   2.669  10.424  0.4266  0.4548 -0.0291
  105OSM    H3S10697   0.637   2.748  10.486  0.9479  1.1778 -0.5346
  105OSM     O310698   0.630   2.544  10.468 -0.0684 -0.0415  0.3008
  105OSM    HO310699   0.698   2.520  10.532  0.5095  1.5422  0.3125
  105OSM    C4S10700   0.650   2.701  10.279 -0.6782 -0.1278 -0.1117
  105OSM    H4S10701   0.705   2.638  10.207  0.4608  0.2813  0.3999
  105OSM    C5S10702   0.547   2.778  10.233  0.2011 -0.8159  0.3589
  105OSM    H5S10703   0.475   2.824  10.302 -0.4340  0.8750 -1.3610
  105OSM    C6S10704   0.509   2.811  10.090  0.4105 -0.3784  0.6143
  105OSM    H6S10705   0.500   2.921  10.077  0.0265 -0.6599 -1.6416
  105OSM    H6T10706   0.407   2.769  10.079  0.7249 -0.8647 -0.4033
  105OSM    C7S10707   0.598   2.753   9.972  0.0188  0.2269  0.0878
  105OSM    H7S10708   0.596   2.643   9.982  0.8018  0.2813  0.8568
  105OSM    H7T10709   0.698   2.801   9.962 -0.5890  1.2158 -1.5591
  105OSM    C8S10710   0.521   2.766   9.837  0.3888 -0.5073 -0.6592
  105OSM    H8S10711   0.516   2.875   9.818 -0.2532 -0.4245 -0.0283
  105OSM    H8T10712   0.414   2.736   9.842  0.7219 -1.3751  1.7894
  105OSM    C9S10713   0.590   2.706   9.719 -0.1532  0.5483  0.3421
  105OSM    H9S10714   0.597   2.597   9.734  1.0312  0.9852  3.3648
  105OSM    H9T10715   0.688   2.755   9.702  0.2745 -0.3155  0.3299
  105OSM   C10S10716   0.512   2.734   9.584 -0.3888 -0.1760  0.4321
  105OSM   H10S10717   0.510   2.842   9.560 -0.9368 -0.6945 -1.9300
  105OSM   H10T10718   0.409   2.699   9.603 -0.5258  0.3443  0.6555
  105OSM   C11S10719   0.590   2.676   9.457  0.1675 -0.1199 -0.0747
  105OSM   H11S10720   0.588   2.565   9.455  1.4357 -0.1172 -2.5420
  105OSM   H11T10721   0.696   2.705   9.477 -0.3594  0.5886  1.8779
  105OSM   C12S10722   0.530   2.731   9.321 -0.2173 -0.2975  0.1478
  105OSM   H12S10723   0.535   2.842   9.320 -1.1899 -0.2425  0.9833
  105OSM   H12T10724   0.425   2.696   9.308 -0.4208  0.6091 -0.7559
  105OSM   C13S10725   0.607   2.677   9.199  0.3389 -0.1311  0.1933
  105OSM   H13S10726   0.613   2.566   9.200 -1.8870 -0.2773 -0.4237
  105OSM   H13T10727   0.709   2.721   9.191 -0.2935  1.2860 -0.3311
  105OSM   C14S10728   0.533   2.713   9.073  0.5062  0.6729  0.4193
  105OSM   H14S10729   0.486   2.813   9.066  0.1737  0.5299  0.5736
  105OSM   H14T10730   0.448   2.642   9.058 -1.0483  2.6407 -0.3598
  105OSM   C15S10731   0.622   2.686   8.941 -0.3284 -0.7178 -0.0844
  105OSM   H15S10732   0.607   2.580   8.911  0.8072 -0.4683 -1.5634
  105OSM   H15T10733   0.730   2.703   8.964 -0.5232  1.1633 -0.5194
  105OSM   C16S10734   0.582   2.784   8.834 -0.1609 -0.1756 -0.0403
  105OSM   H16S10735   0.644   2.784   8.741 -1.7161 -0.6586 -1.0977
  105OSM   H16T10736   0.589   2.890   8.864  1.7190 -1.0854  3.0012
  105OSM   C17S10737   0.442   2.764   8.773 -0.4457 -0.1656 -0.5951
  105OSM   H17S10738   0.426   2.843   8.696  0.4870  0.5789 -0.0265
  105OSM   H17T10739   0.369   2.775   8.856  1.8099  0.5395  1.3142
  105OSM   C18S10740   0.404   2.626   8.706 -0.3850 -0.2124 -0.2540
  105OSM   H18S10741   0.305   2.621   8.655 -1.0334 -1.0614  1.0625
  105OSM   H18T10742   0.424   2.540   8.774  0.7758  0.8932  0.8278
  105OSM   H18U10743   0.479   2.616   8.625 -0.1232 -0.1788 -0.0143
  105OSM    C1F10744   1.014   2.854  10.416  0.1729 -0.0693 -0.4047
  105OSM     OF10745   1.099   2.763  10.427  0.3665  0.0508 -0.1014
  105OSM    C2F10746   1.058   2.998  10.411  0.4116 -0.6815  0.0604
  105OSM    H2F10747   1.075   3.041  10.511 -0.5979  2.6661 -1.1583
  105OSM    H2G10748   0.981   3.062  10.363  0.5429  0.8672  1.8594
  105OSM    C3F10749   1.188   3.008  10.329 -0.1034  0.7804  0.2269
  105OSM    H3F10750   1.259   2.935  10.373 -1.2650  0.9668  2.4548
  105OSM    H3G10751   1.226   3.111  10.345  1.8259  0.3746 -1.4652
  105OSM    C4F10752   1.176   2.982  10.180  1.0267 -0.0377  0.1853
  105OSM    H4F10753   1.119   2.888  10.165 -2.0771  1.3094  2.9800
  105OSM    H4G10754   1.278   2.981  10.135  0.7183 -2.2858 -0.5391
  105OSM    C5F10755   1.086   3.089  10.107 -0.9012  0.6649  0.1663
  105OSM    H5F10756   1.142   3.185  10.100 -0.1263  0.1141 -1.5579
  105OSM    H5G10757   0.989   3.107  10.159 -0.8349  0.6119  0.3058
  105OSM    C6F10758   1.061   3.062   9.956  0.2284 -0.9860 -0.3137
  105OSM    H6F10759   1.158   3.055   9.902  0.9229  1.8451  0.4952
  105OSM    H6G10760   1.008   3.149   9.912  2.5509  1.0229  0.7831
  105OSM    C7F10761   0.974   2.939   9.927 -0.4125 -0.0119 -0.9660
  105OSM    H7F10762   0.874   2.950   9.972  0.3908  0.3363  0.7756
  105OSM    H7G10763   1.020   2.857   9.987  1.6061  0.4523 -1.8361
  105OSM    C8F10764   0.960   2.894   9.776 -0.3326  0.7035 -0.1303
  105OSM    H8F10765   0.893   2.806   9.775  1.8147 -0.9598 -1.0344
  105OSM    H8G10766   1.056   2.849   9.742 -0.1766 -0.6252  1.9567
  105OSM    C9F10767   0.907   3.007   9.697  0.4256 -0.3631  0.6213
  105OSM    H9F10768   0.812   3.043   9.740  0.3096  1.8944 -1.3932
  105OSM   C10F10769   0.971   3.072   9.600  0.2105  0.0891 -0.4574
  105OSM   H10F10770   0.916   3.156   9.554 -0.5314  0.2814  0.7667
  105OSM   C11F10771   1.103   3.038   9.548  0.1906 -0.2377  0.5637
  105OSM   H11F10772   1.173   2.997   9.624  2.1543  0.9510 -0.5712
  105OSM   H11G10773   1.154   3.132   9.517 -0.1358 -0.2232  0.0728
  105OSM   C12F10774   1.087   2.949   9.419 -0.8950 -0.2614  0.0265
  105OSM   H12F10775   1.049   2.850   9.451 -1.1669  0.1030  0.8699
  105OSM   H12G10776   1.192   2.937   9.385 -0.4239  2.8187  0.2646
  105OSM   C13F10777   1.007   3.008   9.298 -0.5193  0.2047 -0.8043
  105OSM   H13F10778   1.021   3.118   9.292 -1.9916  0.4037 -0.7188
  105OSM   H13G10779   0.899   2.985   9.310 -0.3102 -0.1245  0.5445
  105OSM   C14F10780   1.044   2.948   9.171 -0.3269 -0.5925 -0.0468
  105OSM   H14F10781   1.048   2.837   9.172  1.4925 -0.5345  1.2501
  105OSM   H14G10782   1.144   2.986   9.140  0.0228 -2.8425 -1.7728
  105OSM   C15F10783   0.954   2.994   9.056 -0.2279 -0.1850  0.0651
  105OSM   H15F10784   0.853   2.957   9.083 -0.0829 -0.8879 -0.3292
  105OSM   H15G10785   0.996   2.925   8.980  0.2188  0.9254 -0.7022
  105OSM   C16F10786   0.971   3.128   9.003 -0.5535  0.5321 -0.1298
  105OSM   H16F10787   1.075   3.160   8.980 -0.2438 -0.6611 -0.3807
  105OSM   H16G10788   0.919   3.195   9.075  1.9068  1.6379  0.6603
  105OSM   C17F10789   0.885   3.155   8.875 -0.0453  0.7006 -0.4718
  105OSM   H17F10790   0.780   3.124   8.895  0.9043 -1.8218  0.8993
  105OSM   H17G10791   0.920   3.080   8.800 -3.4723 -1.1419 -0.3739
  105OSM   C18F10792   0.889   3.298   8.815 -0.3759  0.0838  0.4458
  105OSM   H18F10793   0.991   3.337   8.834 -0.4231  0.2446  0.3742
  105OSM   H18G10794   0.823   3.368   8.870  1.5311  1.9054  0.4875
  105OSM   H18H10795   0.861   3.310   8.708 -1.6127  0.9712  0.8497
  106OSM      N10796   1.820   1.555  10.675 -0.1409  0.3287  0.3626
  106OSM    C1510797   1.677   1.531  10.717  0.5482  0.0483  1.0926
  106OSM   H15A10798   1.609   1.602  10.673  1.7948  1.1552  0.9409
  106OSM   H15B10799   1.662   1.528  10.823  0.8829  1.9059  1.1966
  106OSM   H15C10800   1.644   1.433  10.685 -3.4894  1.4245  0.7575
  106OSM    C1410801   1.814   1.630  10.544  0.8679 -0.1878  0.1421
  106OSM   H14A10802   1.910   1.674  10.523  0.8667 -1.2874 -2.2552
  106OSM   H14B10803   1.742   1.711  10.543 -1.7088 -2.4082 -2.6037
  106OSM   H14C10804   1.785   1.570  10.460 -0.8222  1.6748 -0.6753
  106OSM    C1310805   1.877   1.635  10.780  0.0379 -0.4246  0.2786
  106OSM   H13A10806   1.806   1.716  10.796  0.6220  0.3165 -0.8027
  106OSM   H13B10807   1.970   1.686  10.758  0.0142 -0.2463  0.5840
  106OSM   H13C10808   1.869   1.586  10.876  0.2086 -1.5611 -0.2796
  106OSM    C1210809   1.906   1.429  10.660 -0.0997  0.7933  0.2332
  106OSM   H12A10810   1.892   1.374  10.751  0.6162  1.9536  1.0509
  106OSM   H12B10811   2.005   1.468  10.643  1.3703 -2.2873  1.3792
  106OSM    C1110812   1.867   1.337  10.545  0.3212 -0.4267  0.4767
  106OSM   H11A10813   1.946   1.260  10.534 -1.4181 -2.3484  1.1363
  106OSM   H11B10814   1.867   1.402  10.455 -2.1232 -0.6007  0.3064
  106OSM      P10815   1.708   1.160  10.645  0.5015  0.5292  0.0532
  106OSM    O1310816   1.796   1.161  10.760  0.0489 -0.2846 -0.0014
  106OSM    O1410817   1.563   1.158  10.660 -0.3895  0.4030 -0.0130
  106OSM    O1110818   1.754   1.037  10.562  0.1579  0.4694  1.1666
  106OSM    O1210819   1.733   1.285  10.562  0.3650 -0.1176 -0.0149
  106OSM    C1S10820   1.714   1.012  10.426 -0.3198 -0.7143  0.6518
  106OSM    H1S10821   1.765   1.089  10.365 -1.5151 -0.9823 -0.7167
  106OSM    H1T10822   1.605   1.020  10.402 -0.2463 -2.1130 -0.1670
  106OSM     NF10823   1.716   0.859  10.229  0.8638  0.2800 -0.6050
  106OSM    HNF10824   1.649   0.791  10.200 -1.2728  1.6643  0.8905
  106OSM    C2S10825   1.759   0.874  10.368  0.4273  0.4161  0.0247
  106OSM    H2S10826   1.870   0.875  10.370  0.6003 -4.1219 -1.1734
  106OSM    C3S10827   1.714   0.756  10.453 -0.7955 -0.1098 -0.5745
  106OSM    H3S10828   1.604   0.756  10.445 -0.7931  0.2690 -0.6063
  106OSM     O310829   1.759   0.759  10.591  0.1705  0.3126  0.0189
  106OSM    HO310830   1.792   0.849  10.603  1.9692  0.0756 -2.6627
  106OSM    C4S10831   1.763   0.626  10.399 -0.2129 -0.1630 -0.6014
  106OSM    H4S10832   1.869   0.606  10.419 -0.1502  2.0261  1.4102
  106OSM    C5S10833   1.687   0.530  10.341 -0.2942 -0.5583 -0.1348
  106OSM    H5S10834   1.577   0.534  10.341 -0.2961 -0.4295  0.7871
  106OSM    C6S10835   1.772   0.414  10.292  0.1885  0.3622 -0.4972
  106OSM    H6S10836   1.775   0.327  10.361 -2.0557 -0.1641 -0.9977
  106OSM    H6T10837   1.878   0.439  10.272 -0.0403  2.8531  1.2031
  106OSM    C7S10838   1.702   0.372  10.162 -0.3405 -0.4432  0.3563
  106OSM    H7S10839   1.600   0.332  10.185  0.1965 -3.0901 -1.6334
  106OSM    H7T10840   1.754   0.281  10.125  1.3328  1.0512 -1.0470
  106OSM    C8S10841   1.731   0.458  10.036 -0.4754  0.8068  0.0747
  106OSM    H8S10842   1.837   0.491  10.035 -0.1630 -0.1762 -1.5714
  106OSM    H8T10843   1.668   0.550  10.043 -3.3504 -0.8479 -2.6824
  106OSM    C9S10844   1.700   0.394   9.906 -0.1286 -0.0895  0.6181
  106OSM    H9S10845   1.597   0.355   9.922 -0.9800  1.7526 -0.2420
  106OSM    H9T10846   1.770   0.309   9.894  0.4563  0.6054 -1.0194
  106OSM   C10S10847   1.703   0.480   9.780  0.6345  0.9310  0.3418
  106OSM   H10S10848   1.799   0.537   9.776  1.8854 -1.1270  0.1502
  106OSM   H10T10849   1.624   0.559   9.784 -1.4488 -0.8493 -3.0548
  106OSM   C11S10850   1.689   0.398   9.654  0.8513  0.7460 -0.7601
  106OSM   H11S10851   1.583   0.364   9.646  1.0964 -0.2482 -0.0354
  106OSM   H11T10852   1.752   0.307   9.669 -0.3041  0.3147  1.7630
  106OSM   C12S10853   1.736   0.484   9.531  0.1905  0.4418 -0.2131
  106OSM   H12S10854   1.834   0.521   9.569 -0.0460 -0.7334  1.6095
  106OSM   H12T10855   1.653   0.553   9.506  0.2565  1.0976  1.3157
  106OSM   C13S10856   1.753   0.396   9.409 -0.6180  0.8255 -0.8914
  106OSM   H13S10857   1.657   0.345   9.382 -1.4790  1.3227  1.1838
  106OSM   H13T10858   1.828   0.320   9.439  0.4817  1.7865 -1.1873
  106OSM   C14S10859   1.820   0.471   9.293 -0.0054  0.6014  0.9761
  106OSM   H14S10860   1.921   0.502   9.327  0.3054 -0.6591  1.2264
  106OSM   H14T10861   1.763   0.564   9.269  0.8931  0.3689 -2.2226
  106OSM   C15S10862   1.846   0.395   9.157  0.0088 -0.7485  0.3012
  106OSM   H15S10863   1.876   0.294   9.193 -3.4040 -2.6759 -1.9964
  106OSM   H15T10864   1.923   0.436   9.087  0.8595  1.1858  2.3079
  106OSM   C16S10865   1.711   0.353   9.085 -0.8311  0.1853  0.0347
  106OSM   H16S10866   1.666   0.453   9.067  1.1415  1.4109  1.7038
  106OSM   H16T10867   1.643   0.312   9.163  1.1325 -3.0021  0.1801
  106OSM   C17S10868   1.732   0.276   8.956  0.8205  0.0465  0.1654
  106OSM   H17S10869   1.767   0.177   8.992  1.1154 -0.0452 -0.3702
  106OSM   H17T10870   1.823   0.307   8.901  1.1361 -3.3442 -1.3696
  106OSM   C18S10871   1.618   0.261   8.863 -0.1117  0.2550  0.1319
  106OSM   H18S10872   1.643   0.192   8.780 -1.3591 -1.1659  0.9322
  106OSM   H18T10873   1.598   0.354   8.805 -1.3690  0.1293  0.3600
  106OSM   H18U10874   1.526   0.243   8.922  0.7234 -0.1451  1.3476
  106OSM    C1F10875   1.764   0.944  10.133 -0.2822 -0.1888 -0.1093
  106OSM     OF10876   1.866   1.016  10.148  0.1799 -0.1426  0.3922
  106OSM    C2F10877   1.685   0.939  10.004  1.0560  0.3092  0.2065
  106OSM    H2F10878   1.596   1.004  10.009 -0.9253 -1.8600 -3.9872
  106OSM    H2G10879   1.648   0.837   9.979  3.1878 -0.8139  1.4744
  106OSM    C3F10880   1.758   0.980   9.875 -0.5695  0.1638  0.9989
  106OSM    H3F10881   1.858   0.934   9.867 -0.8176 -0.7700  3.0849
  106OSM    H3G10882   1.790   1.085   9.892 -2.4830  0.6913  1.4914
  106OSM    C4F10883   1.674   0.949   9.744  0.1001 -0.4507 -0.8211
  106OSM    H4F10884   1.593   1.025   9.738  0.6726  0.2392  0.2448
  106OSM    H4G10885   1.621   0.851   9.749  1.2430 -1.0252  0.2127
  106OSM    C5F10886   1.758   0.958   9.614 -0.4049 -0.2767  0.4332
  106OSM    H5F10887   1.696   0.924   9.528  1.5962 -1.8113 -0.4548
  106OSM    H5G10888   1.831   0.877   9.633  1.6916  1.6352  0.7322
  106OSM    C6F10889   1.831   1.096   9.588 -0.8061  0.6474 -0.3718
  106OSM    H6F10890   1.901   1.093   9.502 -2.6310 -1.9459 -1.8275
  106OSM    H6G10891   1.898   1.120   9.674 -0.0329  2.7589 -1.5340
  106OSM    C7F10892   1.738   1.220   9.563 -0.9751  0.0019  0.2400
  106OSM    H7F10893   1.659   1.223   9.641 -1.3852  0.6364 -0.1945
  106OSM    H7G10894   1.704   1.194   9.460  0.9222  0.6022 -0.5672
  106OSM    C8F10895   1.821   1.354   9.556  0.7100  0.1455  0.6218
  106OSM    H8F10896   1.886   1.343   9.467 -1.8479 -0.4527 -1.2301
  106OSM    H8G10897   1.896   1.350   9.637  1.4579  1.5841  0.0171
  106OSM    C9F10898   1.722   1.472   9.552  0.2727 -0.5289  0.1321
  106OSM    H9F10899   1.641   1.453   9.624  1.0484 -0.7087  0.9604
  106OSM   C10F10900   1.706   1.568   9.458  0.3638  0.0113  0.6308
  106OSM   H10F10901   1.632   1.649   9.464 -2.6267 -2.5901 -0.4109
  106OSM   C11F10902   1.794   1.576   9.336  0.1063 -0.3326 -0.0975
  106OSM   H11F10903   1.900   1.561   9.364 -0.1354 -1.2631  0.3278
  106OSM   H11G10904   1.781   1.679   9.296  0.8668  0.1448  0.8932
  106OSM   C12F10905   1.755   1.470   9.224  0.8157 -0.2440 -0.5336
  106OSM   H12F10906   1.791   1.371   9.259 -1.6716 -0.7199  0.7817
  106OSM   H12G10907   1.822   1.518   9.149 -0.0812  0.3459 -0.9710
  106OSM   C13F10908   1.606   1.458   9.201  0.1832 -0.4460  0.4163
  106OSM   H13F10909   1.550   1.548   9.168 -1.6527 -1.7400 -0.0251
  106OSM   H13G10910   1.553   1.417   9.289 -0.2733 -1.9879 -0.5578
  106OSM   C14F10911   1.568   1.345   9.095  0.3609  0.1924 -0.8211
  106OSM   H14F10912   1.466   1.309   9.121  1.6355 -1.2285  2.5623
  106OSM   H14G10913   1.636   1.258   9.109 -0.1923  0.1901  2.3059
  106OSM   C15F10914   1.567   1.403   8.950  0.1181 -0.1547  0.0595
  106OSM   H15F10915   1.671   1.440   8.934  0.5570 -1.2825  0.2641
  106OSM   H15G10916   1.493   1.485   8.956 -0.7221 -0.9062  0.0397
  106OSM   C16F10917   1.544   1.300   8.841 -0.1446 -0.0487 -0.1259
  106OSM   H16F10918   1.611   1.212   8.839  2.2554  1.7497 -1.1314
  106OSM   H16G10919   1.562   1.361   8.750  1.5397  1.2409  1.0439
  106OSM   C17F10920   1.404   1.222   8.851 -0.1668 -0.4678  0.0122
  106OSM   H17F10921   1.323   1.297   8.866 -0.8331 -1.0878 -0.4403
  106OSM   H17G10922   1.406   1.163   8.945 -2.1655 -0.6469 -0.0398
  106OSM   C18F10923   1.391   1.142   8.725 -0.1174  0.1294  0.9330
  106OSM   H18F10924   1.303   1.075   8.729 -0.0587 -0.0032  0.0689
  106OSM   H18G10925   1.480   1.081   8.697 -1.9081 -1.2637 -2.0362
  106OSM   H18H10926   1.365   1.211   8.641  0.7110 -0.1947  0.4081
  107OSM      N10927   2.762   4.806  11.360  0.2732 -0.0019 -0.1761
  107OSM    C1510928   2.782   4.791  11.509 -0.2972 -0.1535  0.0926
  107OSM   H15A10929   2.686   4.792  11.559 -0.5220 -1.0400 -0.3174
  107OSM   H15B10930   2.842   4.869  11.554 -0.2066 -0.7096  0.9508
  107OSM   H15C10931   2.832   4.702  11.544 -2.0932  0.1065  3.5228
  107OSM    C1410932   2.719   4.677  11.309  1.0568 -0.0087 -0.3100
  107OSM   H14A10933   2.670   4.683  11.213 -2.0509 -0.6649  1.1905
  107OSM   H14B10934   2.648   4.643  11.383 -0.7187  2.7776 -0.6431
  107OSM   H14C10935   2.796   4.602  11.298  2.0135  0.6479  1.7476
  107OSM    C1310936   2.642   4.886  11.331  0.4289 -0.1754  0.1945
  107OSM   H13A10937   2.555   4.829  11.360  0.9497 -0.4313  1.2417
  107OSM   H13B10938   2.636   4.916  11.227  0.0423  1.5320  0.6852
  107OSM   H13C10939   2.647   4.979  11.385  1.1936  0.3365 -0.7279
  107OSM    C1210940   2.878   4.855  11.289 -0.0158  0.1679 -0.3443
  107OSM   H12A10941   2.964   4.794  11.314  0.9437  2.2997  1.7940
  107OSM   H12B10942   2.904   4.953  11.327 -4.7524  1.4365 -0.0360
  107OSM    C1110943   2.873   4.856  11.135 -0.0832  0.2260 -0.6628
  107OSM   H11A10944   2.856   4.752  11.100  1.2615  0.1713 -1.1515
  107OSM   H11B10945   2.974   4.874  11.094  0.8558 -0.2240  1.4039
  107OSM      P10946   2.790   5.105  11.090 -0.2712  0.7879  0.0124
  107OSM    O1310947   2.649   5.168  11.087 -0.4801 -0.5889  0.3302
  107OSM    O1410948   2.872   5.124  11.211  0.1366 -0.4581  0.3776
  107OSM    O1110949   2.881   5.143  10.959 -0.2397  0.7507  0.1655
  107OSM    O1210950   2.771   4.949  11.079 -0.3514  0.1771  0.1387
  107OSM    C1S10951   2.899   5.056  10.848 -0.5106 -0.2206  0.3940
  107OSM    H1S10952   2.808   4.994  10.836  0.5967 -1.4101 -2.4044
  107OSM    H1T10953   2.987   4.990  10.864  1.4691  1.9493 -1.2395
  107OSM     NF10954   2.919   5.030  10.606 -0.2018  0.5136 -0.3476
  107OSM    HNF10955   3.003   4.999  10.561 -0.6263 -0.1777 -0.6789
  107OSM    C2S10956   2.919   5.130  10.705  0.4469  0.2942 -0.1297
  107OSM    H2S10957   2.835   5.202  10.700  0.3843  0.2669  0.4151
  107OSM    C3S10958   3.052   5.220  10.703  0.7868 -0.4466  0.1334
  107OSM    H3S10959   3.142   5.170  10.743  0.7137  0.1175  0.9991
  107OSM     O310960   3.035   5.345  10.773  0.5823 -0.0660  0.0267
  107OSM    HO310961   2.959   5.326  10.829  0.1836 -2.1586 -1.1584
  107OSM    C4S10962   3.096   5.262  10.558 -0.3323 -0.0761  0.0185
  107OSM    H4S10963   3.133   5.170  10.509 -1.1179  0.3165 -1.3349
  107OSM    C5S10964   3.110   5.382  10.497  0.8691  0.0325  0.1586
  107OSM    H5S10965   3.083   5.476  10.546  0.7986 -0.2183  0.6020
  107OSM    C6S10966   3.161   5.411  10.361 -0.2259 -0.4951  0.4159
  107OSM    H6S10967   3.270   5.391  10.360  0.1222  1.2261  1.2908
  107OSM    H6T10968   3.160   5.520  10.337 -0.2698 -0.5321  0.2513
  107OSM    C7S10969   3.093   5.335  10.246  0.2500 -0.4381 -0.7478
  107OSM    H7S10970   2.983   5.321  10.254  0.3242  0.0235  1.6292
  107OSM    H7T10971   3.127   5.229  10.244  0.8471 -0.2825  0.3161
  107OSM    C8S10972   3.110   5.396  10.104  0.5567 -0.5787 -0.7151
  107OSM    H8S10973   3.217   5.390  10.075 -0.1578 -1.9045 -3.1885
  107OSM    H8T10974   3.068   5.499  10.100  0.5888 -0.5397 -0.1996
  107OSM    C9S10975   3.048   5.323   9.985  0.3680 -0.0034  0.4893
  107OSM    H9S10976   2.940   5.345   9.978  0.3979  0.3195  0.9871
  107OSM    H9T10977   3.060   5.214   9.999  0.9644 -0.2081 -1.4176
  107OSM   C10S10978   3.120   5.366   9.858 -0.0187  0.2433 -0.1794
  107OSM   H10S10979   3.219   5.317   9.854 -0.3925 -0.5362  0.0290
  107OSM   H10T10980   3.115   5.477   9.855 -1.0090  0.2248  0.4006
  107OSM   C11S10981   3.033   5.309   9.738 -0.3219  1.0627 -0.9932
  107OSM   H11S10982   2.948   5.376   9.716 -0.3308  0.9059 -1.4539
  107OSM   H11T10983   2.995   5.207   9.758  0.3505  0.9118 -0.4554
  107OSM   C12S10984   3.104   5.297   9.596  0.2707 -0.1775  0.2515
  107OSM   H12S10985   3.199   5.240   9.612  0.4279 -0.3590 -1.2750
  107OSM   H12T10986   3.124   5.400   9.562 -2.3053  1.0128  2.2289
  107OSM   C13S10987   3.014   5.230   9.493  0.0363  0.9339 -0.2603
  107OSM   H13S10988   2.923   5.293   9.485 -1.1612 -0.5799  0.9529
  107OSM   H13T10989   2.984   5.129   9.530  0.9612  0.1459 -1.6460
  107OSM   C14S10990   3.079   5.211   9.361  0.5917 -0.2744  0.0521
  107OSM   H14S10991   3.170   5.147   9.369  2.5585  2.3569 -0.3610
  107OSM   H14T10992   3.124   5.303   9.318  1.1066 -0.7631 -0.4598
  107OSM   C15S10993   2.989   5.136   9.257 -0.1674  0.9055 -0.1044
  107OSM   H15S10994   2.937   5.063   9.322 -0.2631 -0.2081 -1.3837
  107OSM   H15T10995   3.043   5.076   9.179 -2.4688 -1.8860  0.3649
  107OSM   C16S10996   2.887   5.233   9.186 -0.3618 -0.7777 -0.2766
  107OSM   H16S10997   2.944   5.297   9.116  0.3332 -1.3206 -0.2144
  107OSM   H16T10998   2.842   5.305   9.258 -1.7840 -1.1819 -0.7482
  107OSM   C17S10999   2.771   5.168   9.119  0.4302  0.2748  0.6618
  107OSM   H17S11000   2.804   5.067   9.088  0.9759  0.3622  0.9528
  107OSM   H17T11001   2.733   5.236   9.040 -1.3422 -1.3308  0.0787
  107OSM   C18S11002   2.649   5.133   9.204  0.0785 -0.6803 -0.1156
  107OSM   H18S11003   2.602   5.226   9.244 -2.3129 -2.0505  0.3519
  107OSM   H18T11004   2.673   5.081   9.299  1.8445 -0.7211 -0.5716
  107OSM   H18U11005   2.564   5.086   9.150 -0.0450  0.7605 -1.2041
  107OSM    C1F11006   2.813   4.956  10.576 -0.0562 -0.4535 -0.0934
  107OSM     OF11007   2.701   4.975  10.628 -0.2249 -0.5634  0.3216
  107OSM    C2F11008   2.829   4.850  10.483 -0.1776  0.1094  0.3272
  107OSM    H2F11009   2.762   4.764  10.508  0.4884  0.1754  2.4809
  107OSM    H2G11010   2.935   4.827  10.509  0.5140  2.2835 -0.4456
  107OSM    C3F11011   2.815   4.900  10.337 -0.2641 -0.0935  0.1129
  107OSM    H3F11012   2.736   4.975  10.314  1.7608  1.6329 -1.4445
  107OSM    H3G11013   2.810   4.809  10.273  1.3279 -0.1371  0.0178
  107OSM    C4F11014   2.950   4.955  10.278  0.5544  0.0016  0.0558
  107OSM    H4F11015   3.026   4.877  10.300 -0.0721 -0.7012 -0.2524
  107OSM    H4G11016   2.984   5.046  10.330  2.4395 -0.0433 -1.0636
  107OSM    C5F11017   2.936   4.993  10.130  0.0831 -0.2363  0.2697
  107OSM    H5F11018   3.033   5.041  10.105 -0.3350  0.1005 -0.7451
  107OSM    H5G11019   2.858   5.071  10.117 -0.6889 -0.9732  0.4541
  107OSM    C6F11020   2.918   4.888  10.027  0.7900  0.0022  0.6012
  107OSM    H6F11021   2.838   4.818  10.057  1.4309 -2.0465 -2.3178
  107OSM    H6G11022   3.009   4.825  10.023 -0.1302 -1.3774  0.9881
  107OSM    C7F11023   2.874   4.957   9.896 -0.0253 -0.1211 -0.1374
  107OSM    H7F11024   2.957   5.025   9.867 -0.7381  0.7067 -0.2348
  107OSM    H7G11025   2.786   5.023   9.915  0.0702 -0.5226  1.8517
  107OSM    C8F11026   2.842   4.853   9.784  0.8869 -0.0468  0.3983
  107OSM    H8F11027   2.737   4.824   9.805  0.1213  1.4618 -1.2657
  107OSM    H8G11028   2.911   4.765   9.785  0.7967 -0.1325 -0.6656
  107OSM    C9F11029   2.844   4.920   9.654 -0.1325  0.4631  0.3688
  107OSM    H9F11030   2.867   5.027   9.659  0.4564  0.2702  2.0199
  107OSM   C10F11031   2.823   4.858   9.542  0.1613  0.8454  0.6562
  107OSM   H10F11032   2.811   4.925   9.456  1.6629  0.4088  0.0964
  107OSM   C11F11033   2.788   4.709   9.523 -0.3841 -0.2626 -0.1653
  107OSM   H11F11034   2.677   4.713   9.521 -0.3755 -0.4953 -1.4900
  107OSM   H11G11035   2.812   4.644   9.610 -2.7236  0.4754  1.0535
  107OSM   C12F11036   2.838   4.651   9.393 -0.1584  0.1128 -0.0887
  107OSM   H12F11037   2.794   4.714   9.313 -1.5147  0.0509  0.5955
  107OSM   H12G11038   2.803   4.550   9.363  0.2071 -1.2801  3.8516
  107OSM   C13F11039   2.987   4.640   9.395 -0.2807 -0.3098 -0.0703
  107OSM   H13F11040   3.021   4.565   9.471  0.4320  0.9758  0.9077
  107OSM   H13G11041   3.047   4.728   9.425  0.7884 -1.1665  0.3480
  107OSM   C14F11042   3.039   4.582   9.258  0.1578  0.4766 -0.7103
  107OSM   H14F11043   2.985   4.489   9.231  0.5475 -0.4985  1.6883
  107OSM   H14G11044   3.146   4.552   9.258  0.0038 -0.0869 -0.0196
  107OSM   C15F11045   3.031   4.676   9.135  0.0704  0.3566 -0.2925
  107OSM   H15F11046   2.930   4.714   9.111  0.2999 -0.0152 -1.8977
  107OSM   H15G11047   3.052   4.609   9.049  0.9231 -0.1187  0.2765
  107OSM   C16F11048   3.141   4.788   9.139  0.4904 -0.5988 -0.3799
  107OSM   H16F11049   3.243   4.759   9.171  1.5920  3.3098 -0.1102
  107OSM   H16G11050   3.106   4.857   9.219  0.5738  1.5447 -2.1644
  107OSM   C17F11051   3.136   4.867   9.013  0.1115 -0.0951 -0.0220
  107OSM   H17F11052   3.200   4.957   9.019 -2.4712  1.6900  1.9906
  107OSM   H17G11053   3.031   4.901   8.999  0.3389  0.4293 -0.4701
  107OSM   C18F11054   3.172   4.799   8.884  0.0631  0.5467  0.0999
  107OSM   H18F11055   3.146   4.856   8.792 -3.4526 -1.8955 -0.5472
  107OSM   H18G11056   3.124   4.699   8.872  2.3608 -0.6416  0.3740
  107OSM   H18H11057   3.282   4.785   8.877  0.1090 -1.1247  3.2359
  108OSM      N11058   6.247   1.722  11.215  0.3391 -0.3603 -0.2889
  108OSM    C1511059   6.120   1.663  11.265 -0.0212 -0.7877  0.2954
  108OSM   H15A11060   6.042   1.725  11.223  0.8946 -0.5066 -1.0517
  108OSM   H15B11061   6.110   1.665  11.372 -1.0691  0.3692  0.1890
  108OSM   H15C11062   6.111   1.561  11.230  0.6652 -0.6934 -0.1793
  108OSM    C1411063   6.271   1.864  11.261  0.5959  0.5139  0.2968
  108OSM   H14A11064   6.190   1.926  11.225  0.0935 -0.5227 -0.3724
  108OSM   H14B11065   6.367   1.899  11.224  0.5652  0.2689 -0.0250
  108OSM   H14C11066   6.259   1.871  11.368 -0.7549  0.8797  0.1321
  108OSM    C1311067   6.354   1.644  11.280  0.0947  0.2320 -0.1419
  108OSM   H13A11068   6.446   1.695  11.255 -1.6323  2.9851 -1.0474
  108OSM   H13B11069   6.363   1.539  11.256  0.0232 -0.2699  1.9190
  108OSM   H13C11070   6.344   1.641  11.388  3.6419  1.1463  0.2844
  108OSM    C1211071   6.251   1.714  11.069  0.2574 -0.5129  1.2035
  108OSM   H12A11072   6.237   1.610  11.042  1.7360  0.0521 -2.0608
  108OSM   H12B11073   6.351   1.734  11.034  0.0002 -0.6387  0.3712
  108OSM    C1111074   6.157   1.807  10.982 -0.4438  1.2878 -0.0175
  108OSM   H11A11075   6.055   1.773  11.014 -1.2719  1.9648 -1.8843
  108OSM   H11B11076   6.152   1.776  10.876  2.1638  0.2066  0.1505
  108OSM      P11077   6.288   2.028  10.930  0.1724  0.2520 -0.4728
  108OSM    O1311078   6.271   2.174  10.956 -0.1241 -0.3356  0.0146
  108OSM    O1411079   6.424   1.977  10.956 -0.2538  0.0176 -0.1476
  108OSM    O1111080   6.245   1.995  10.782  0.5724 -0.4797  0.2263
  108OSM    O1211081   6.172   1.951  11.015  0.4837  0.9515  0.6022
  108OSM    C1S11082   6.198   2.086  10.681  0.1036  0.1590  0.5723
  108OSM    H1S11083   6.278   2.159  10.657 -1.0885  1.1322 -0.4402
  108OSM    H1T11084   6.107   2.140  10.714 -0.9364 -0.7756 -0.6923
  108OSM     NF11085   6.158   2.086  10.434  0.2473  0.1634 -0.1876
  108OSM    HNF11086   6.076   2.136  10.408  0.2916 -0.0303 -0.7018
  108OSM    C2S11087   6.156   2.005  10.556 -0.2046 -0.1196 -0.0363
  108OSM    H2S11088   6.236   1.928  10.549 -2.9989 -3.2244  0.7369
  108OSM    C3S11089   6.021   1.939  10.586  0.4914 -0.2731 -0.9769
  108OSM    H3S11090   5.945   2.020  10.586 -0.4110 -1.1036 -0.1252
  108OSM     O311091   6.010   1.866  10.710  0.1370  0.2037 -0.4908
  108OSM    HO311092   6.099   1.878  10.744  0.0270 -1.0462  0.2430
  108OSM    C4S11093   6.001   1.842  10.474  0.1695 -0.7829 -0.5501
  108OSM    H4S11094   6.065   1.752  10.482  1.9790  0.5426  0.2170
  108OSM    C5S11095   5.913   1.855  10.379  0.1507  0.2612 -0.8194
  108OSM    H5S11096   5.845   1.942  10.372 -0.3659 -0.0109  0.6636
  108OSM    C6S11097   5.890   1.758  10.266 -0.5371 -0.4217 -0.5774
  108OSM    H6S11098   5.849   1.816  10.180 -0.2677  1.6966  0.6804
  108OSM    H6T11099   5.819   1.677  10.293 -3.3211  2.0695 -0.0970
  108OSM    C7S11100   6.023   1.694  10.213  0.3718  0.3419 -0.0028
  108OSM    H7S11101   6.063   1.629  10.294  0.7205  0.4321 -0.1003
  108OSM    H7T11102   6.100   1.772  10.191  0.0566  0.9447  1.0238
  108OSM    C8S11103   5.996   1.616  10.084  0.4151 -0.0190  0.2954
  108OSM    H8S11104   5.889   1.585  10.081  0.6050 -0.6109 -0.3160
  108OSM    H8T11105   6.063   1.529  10.068  2.2141  1.7210 -1.9280
  108OSM    C9S11106   6.019   1.709   9.968 -0.4890  0.3335  0.2925
  108OSM    H9S11107   6.106   1.778   9.978 -2.9491  3.5746 -0.1999
  108OSM    H9T11108   5.939   1.784   9.949 -1.3971 -0.8597 -0.6560
  108OSM   C10S11109   6.020   1.626   9.837  0.0023 -0.1985 -0.1745
  108OSM   H10S11110   5.923   1.579   9.809 -1.9377  2.9987  0.9109
  108OSM   H10T11111   6.092   1.542   9.844 -0.1321 -0.3261 -0.3351
  108OSM   C11S11112   6.060   1.710   9.708 -0.1641  1.2890  0.0409
  108OSM   H11S11113   6.159   1.757   9.726  0.0138  0.4453  1.3671
  108OSM   H11T11114   5.980   1.786   9.695 -1.7851 -0.0668  1.7721
  108OSM   C12S11115   6.086   1.629   9.588 -0.3357  0.1297  1.0005
  108OSM   H12S11116   6.004   1.560   9.558  2.4262 -2.7965 -0.0082
  108OSM   H12T11117   6.176   1.566   9.604  0.8727  1.5367 -0.1055
  108OSM   C13S11118   6.106   1.718   9.460  1.0560 -0.4396 -0.0774
  108OSM   H13S11119   6.202   1.773   9.471  0.7780  0.6879 -2.8825
  108OSM   H13T11120   6.015   1.781   9.447  2.8677  1.5914 -3.5150
  108OSM   C14S11121   6.117   1.638   9.329  0.3594 -0.3552  0.8046
  108OSM   H14S11122   6.047   1.553   9.319  0.8908 -0.6474 -0.5586
  108OSM   H14T11123   6.206   1.571   9.330  1.2165  0.7774  1.6319
  108OSM   C15S11124   6.115   1.716   9.197 -0.7058 -0.4908  0.0829
  108OSM   H15S11125   6.188   1.798   9.188 -1.0118 -0.2432 -0.1541
  108OSM   H15T11126   6.017   1.768   9.200  0.3226  1.5678 -1.3882
  108OSM   C16S11127   6.124   1.633   9.072 -0.3572  0.0946 -0.3435
  108OSM   H16S11128   6.049   1.551   9.067  3.0007 -3.0232 -1.9135
  108OSM   H16T11129   6.221   1.580   9.066 -0.4222  0.3313 -4.7473
  108OSM   C17S11130   6.097   1.720   8.943  0.1300  0.3429 -0.0397
  108OSM   H17S11131   5.999   1.768   8.962 -0.8964 -1.9122  0.4724
  108OSM   H17T11132   6.081   1.661   8.850  1.2748  1.0475 -0.7032
  108OSM   C18S11133   6.216   1.819   8.917  0.3712 -0.6827 -0.3307
  108OSM   H18S11134   6.298   1.764   8.866  0.0090 -0.9904 -0.5871
  108OSM   H18T11135   6.250   1.871   9.009 -1.4954 -1.6767  0.9572
  108OSM   H18U11136   6.178   1.894   8.845  2.1534 -0.0744 -0.6533
  108OSM    C1F11137   6.275   2.113  10.374 -0.1038  0.1083 -0.4085
  108OSM     OF11138   6.378   2.065  10.420 -0.0537  0.1457  0.6781
  108OSM    C2F11139   6.261   2.190  10.246  0.3309 -0.1385 -0.3998
  108OSM    H2F11140   6.361   2.207  10.201  0.4240 -0.6722 -0.4031
  108OSM    H2G11141   6.212   2.287  10.265 -0.8318 -0.9514  0.8519
  108OSM    C3F11142   6.170   2.123  10.135  0.7023 -0.4373 -0.1082
  108OSM    H3F11143   6.064   2.115  10.168 -0.1831  4.0055 -1.4470
  108OSM    H3G11144   6.223   2.026  10.124  2.1406  0.3465 -0.2256
  108OSM    C4F11145   6.173   2.208  10.008  0.0844  0.1157 -0.2088
  108OSM    H4F11146   6.281   2.205   9.981 -0.1742 -0.7761 -1.2065
  108OSM    H4G11147   6.132   2.311  10.020 -0.1297  0.1204 -0.9481
  108OSM    C5F11148   6.098   2.151   9.888 -0.0157  0.1333 -0.1581
  108OSM    H5F11149   5.989   2.173   9.895  0.0507  1.1531 -2.1358
  108OSM    H5G11150   6.106   2.040   9.893 -2.5465  0.0063  3.5965
  108OSM    C6F11151   6.151   2.216   9.756 -0.4117  0.3036 -0.3263
  108OSM    H6F11152   6.262   2.225   9.759 -0.1761 -2.4103  0.5980
  108OSM    H6G11153   6.112   2.320   9.747  0.1965  0.7069  1.4724
  108OSM    C7F11154   6.134   2.126   9.630  0.5045  0.0143  0.0702
  108OSM    H7F11155   6.025   2.109   9.613  0.4479  0.5468 -0.0888
  108OSM    H7G11156   6.171   2.022   9.645  1.7692  0.7490  2.2319
  108OSM    C8F11157   6.195   2.196   9.514  0.1791  0.0845  0.1195
  108OSM    H8F11158   6.304   2.217   9.528 -0.4318  1.2191  3.6046
  108OSM    H8G11159   6.141   2.293   9.504 -1.1032 -0.5540  0.8443
  108OSM    C9F11160   6.192   2.110   9.389 -0.2706  0.0403  0.0821
  108OSM    H9F11161   6.241   2.013   9.401  2.5522  1.2397 -1.2447
  108OSM   C10F11162   6.131   2.141   9.272  0.0217  0.5599 -0.3802
  108OSM   H10F11163   6.154   2.072   9.188  1.9802  1.6294 -0.7561
  108OSM   C11F11164   6.050   2.268   9.233 -0.3857  0.4606  0.8463
  108OSM   H11F11165   6.107   2.356   9.268  0.8318  0.5018 -1.1573
  108OSM   H11G11166   5.945   2.262   9.268 -0.3834 -0.0551  0.7716
  108OSM   C12F11167   6.057   2.297   9.081  0.0800  0.2643  0.1314
  108OSM   H12F11168   6.163   2.284   9.049 -0.0552  0.1703 -0.2911
  108OSM   H12G11169   6.028   2.401   9.053 -0.4198 -0.1274 -0.8585
  108OSM   C13F11170   5.961   2.203   9.004 -0.0581  0.3083  0.6680
  108OSM   H13F11171   5.858   2.230   9.033  0.7078  0.4308  3.3787
  108OSM   H13G11172   5.982   2.101   9.042  0.9189  0.1512 -0.2736
  108OSM   C14F11173   5.982   2.192   8.847 -0.1403 -0.2607 -0.2549
  108OSM   H14F11174   6.077   2.137   8.834  0.2574  1.1644 -3.6709
  108OSM   H14G11175   5.988   2.294   8.805  1.8155  0.2822  1.2900
  108OSM   C15F11176   5.864   2.107   8.786  0.0874 -0.4955  0.2456
  108OSM   H15F11177   5.826   2.031   8.857 -1.4802 -0.7630 -0.8387
  108OSM   H15G11178   5.902   2.053   8.696 -0.0751 -0.5968  0.2365
  108OSM   C16F11179   5.745   2.188   8.737 -0.3075  0.5342 -0.0034
  108OSM   H16F11180   5.774   2.273   8.671 -1.1499 -0.0026 -1.0817
  108OSM   H16G11181   5.697   2.235   8.825  0.8090  0.7729  0.4753
  108OSM   C17F11182   5.643   2.097   8.671 -0.4409 -0.2420  0.1266
  108OSM   H17F11183   5.608   2.014   8.736 -0.4520  0.6404  1.2641
  108OSM   H17G11184   5.690   2.055   8.579  1.4297 -1.9599  1.8059
  108OSM   C18F11185   5.528   2.171   8.611 -0.1346 -1.3657  0.3244
  108OSM   H18F11186   5.542   2.219   8.511  0.7573  1.0055  1.5491
  108OSM   H18G11187   5.473   2.243   8.675  0.0527 -0.1956 -0.7899
  108OSM   H18H11188   5.457   2.087   8.598 -1.5350  0.0550 -1.5570
  109OSM      N11189   0.004   3.208  10.596  0.6211 -0.4696  0.4581
  109OSM    C1511190  -0.033   3.282  10.720  0.0093  0.0439  0.4343
  109OSM   H15A11191  -0.069   3.381  10.695  1.1944  0.5492  0.6980
  109OSM   H15B11192   0.054   3.283  10.785  0.5536  3.1176 -0.2185
  109OSM   H15C11193  -0.112   3.222  10.763  1.2708 -2.2413 -0.3626
  109OSM    C1411194   0.003   3.061  10.618  0.2734  0.4789 -0.0567
  109OSM   H14A11195   0.057   3.034  10.708 -0.9510  0.9429  0.8250
  109OSM   H14B11196   0.036   2.999  10.536  2.0939  0.1157  0.9047
  109OSM   H14C11197  -0.100   3.047  10.646 -0.2236  0.9068 -1.6485
  109OSM    C1311198  -0.102   3.237  10.501  0.2205  0.2618 -0.2335
  109OSM   H13A11199  -0.084   3.181  10.410  0.7788  0.8451 -0.4939
  109OSM   H13B11200  -0.097   3.339  10.466  1.4963  0.6364  0.9764
  109OSM   H13C11201  -0.201   3.218  10.538 -1.1073  5.5085 -0.7136
  109OSM    C1211202   0.137   3.246  10.537  0.2341  0.9946 -0.1005
  109OSM   H12A11203   0.129   3.341  10.487 -0.8519  0.8762 -0.1687
  109OSM   H12B11204   0.163   3.171  10.465  3.0531  1.2057  0.6267
  109OSM    C1111205   0.260   3.256  10.638  0.9847  0.4314 -0.7582
  109OSM   H11A11206   0.358   3.255  10.586  1.1937 -1.3844 -0.3615
  109OSM   H11B11207   0.263   3.159  10.693  0.4296  1.2242  0.7050
  109OSM      P11208   0.266   3.518  10.692 -0.1056 -0.1546 -0.5356
  109OSM    O1311209   0.152   3.598  10.759  0.2251 -0.4070  0.6883
  109OSM    O1411210   0.406   3.569  10.701 -0.1978  0.1619 -0.7628
  109OSM    O1111211   0.230   3.513  10.543 -0.6174 -0.3183  0.0958
  109OSM    O1211212   0.252   3.367  10.727  0.5927  0.0363 -0.1864
  109OSM    C1S11213   0.302   3.601  10.452 -0.5298 -0.5538  1.0734
  109OSM    H1S11214   0.412   3.609  10.467 -0.0002 -1.0072 -2.1573
  109OSM    H1T11215   0.265   3.705  10.436 -0.5023 -1.0192 -2.6403
  109OSM     NF11216   0.362   3.635  10.208 -0.0429  0.1578 -0.0657
  109OSM    HNF11217   0.305   3.700  10.157  0.2733 -0.5300 -1.2969
  109OSM    C2S11218   0.286   3.552  10.295 -0.5971  0.2327 -0.1933
  109OSM    H2S11219   0.335   3.452  10.293 -1.1502 -0.0478 -0.0480
  109OSM    C3S11220   0.140   3.544  10.257  0.8033 -0.4757  0.1127
  109OSM    H3S11221   0.107   3.650  10.247  0.5948 -0.3853  1.7547
  109OSM     O311222   0.047   3.481  10.348 -0.5905 -0.3005  0.3648
  109OSM    HO311223   0.092   3.496  10.431  2.5320 -0.4636 -1.2242
  109OSM    C4S11224   0.126   3.457  10.124  0.7713  0.5659 -0.3675
  109OSM    H4S11225   0.157   3.353  10.138 -1.1929 -0.1971 -1.4512
  109OSM    C5S11226   0.098   3.513  10.007  0.0409 -0.2172 -0.1214
  109OSM    H5S11227   0.090   3.623  10.003  0.6794 -0.1529  0.2271
  109OSM    C6S11228   0.094   3.453   9.868  0.2911  0.3863  0.1154
  109OSM    H6S11229  -0.009   3.423   9.840  0.1206  1.4117 -0.4121
  109OSM    H6T11230   0.168   3.373   9.845 -0.5122  0.1770 -1.8725
  109OSM    C7S11231   0.145   3.566   9.771  0.3738  0.1050  0.5106
  109OSM    H7S11232   0.243   3.608   9.801  0.6500  0.3168 -0.6372
  109OSM    H7T11233   0.072   3.649   9.782  3.1684  2.4055  2.3757
  109OSM    C8S11234   0.146   3.520   9.630 -0.0045  0.1309 -0.2886
  109OSM    H8S11235   0.051   3.464   9.613  2.4291 -3.7513 -1.7085
  109OSM    H8T11236   0.224   3.442   9.628 -3.6309 -3.7459  2.1069
  109OSM    C9S11237   0.169   3.620   9.508  0.0919 -0.2404 -0.1491
  109OSM    H9S11238   0.254   3.685   9.540  1.2843 -1.1032 -1.4879
  109OSM    H9T11239   0.088   3.694   9.494  1.5017  1.6396  1.4047
  109OSM   C10S11240   0.185   3.550   9.378  0.4952  0.1957 -0.8488
  109OSM   H10S11241   0.100   3.479   9.367  1.5987 -0.8961 -2.6921
  109OSM   H10T11242   0.274   3.484   9.381 -0.4736 -1.0768  0.0947
  109OSM   C11S11243   0.194   3.638   9.253 -0.6426 -0.4532  0.2888
  109OSM   H11S11244   0.252   3.730   9.276 -0.1000 -1.4193  2.9251
  109OSM   H11T11245   0.095   3.680   9.222  0.0877  0.2303 -1.1850
  109OSM   C12S11246   0.253   3.574   9.122 -0.0671  0.4876 -0.0163
  109OSM   H12S11247   0.179   3.499   9.086  0.0451  0.9528 -1.2317
  109OSM   H12T11248   0.348   3.530   9.159  0.3136  1.7624  0.5476
  109OSM   C13S11249   0.283   3.660   9.003 -0.6621  0.5560 -0.4219
  109OSM   H13S11250   0.341   3.595   8.934  1.1454  0.9348  0.6878
  109OSM   H13T11251   0.344   3.747   9.038 -0.8804 -0.1597  1.8026
  109OSM   C14S11252   0.156   3.719   8.934  0.0564  0.2445  0.4734
  109OSM   H14S11253   0.080   3.750   9.008 -0.6000 -0.1726 -0.0141
  109OSM   H14T11254   0.118   3.650   8.854 -1.2462  0.9499  0.4743
  109OSM   C15S11255   0.207   3.849   8.861  0.8404  0.7338 -0.1700
  109OSM   H15S11256   0.302   3.830   8.805 -0.1939 -1.1355 -1.3507
  109OSM   H15T11257   0.221   3.930   8.935  1.6710 -0.2990  0.8130
  109OSM   C16S11258   0.095   3.899   8.760 -0.0982 -0.2464  0.3599
  109OSM   H16S11259   0.006   3.929   8.819 -1.1670 -0.5397 -1.0704
  109OSM   H16T11260   0.075   3.815   8.690  2.8939 -0.0167 -0.8713
  109OSM   C17S11261   0.129   4.031   8.684 -0.0217 -0.1540 -0.2995
  109OSM   H17S11262   0.226   4.005   8.636 -0.7937 -1.1668 -1.3532
  109OSM   H17T11263   0.150   4.109   8.759  5.1602  0.9262 -2.6183
  109OSM   C18S11264   0.019   4.070   8.586  0.4232  0.8269 -0.1810
  109OSM   H18S11265  -0.072   4.107   8.638 -0.6566  0.5783 -1.8513
  109OSM   H18T11266  -0.020   3.976   8.540 -0.9443  0.4829  1.6613
  109OSM   H18U11267   0.028   4.157   8.517 -2.2184  1.4401  0.1995
  109OSM    C1F11268   0.494   3.652  10.222  0.6774 -0.0793 -0.4498
  109OSM     OF11269   0.562   3.582  10.295  0.4899 -0.1322 -0.2720
  109OSM    C2F11270   0.552   3.759  10.146  0.0587  0.5487  0.1260
  109OSM    H2F11271   0.654   3.784  10.183  0.2689  1.2670 -0.9314
  109OSM    H2G11272   0.487   3.848  10.150  1.3282  1.4332  1.6099
  109OSM    C3F11273   0.569   3.711  10.002  0.2103  0.1498  0.1395
  109OSM    H3F11274   0.470   3.717   9.952 -1.5606 -2.2198  3.1971
  109OSM    H3G11275   0.612   3.610   9.990  0.1506  0.1917 -0.4611
  109OSM    C4F11276   0.654   3.808   9.920  0.4572  0.2994 -0.2961
  109OSM    H4F11277   0.746   3.827   9.979 -0.4080  0.9334  0.8623
  109OSM    H4G11278   0.619   3.912   9.902 -0.7112 -0.2780 -1.4356
  109OSM    C5F11279   0.698   3.751   9.785  0.1017 -0.0781 -0.4934
  109OSM    H5F11280   0.684   3.641   9.790 -2.9485  0.2937  0.4980
  109OSM    H5G11281   0.806   3.774   9.773  0.1330  0.4397  0.6733
  109OSM    C6F11282   0.621   3.807   9.663 -0.1400  0.5918 -0.2506
  109OSM    H6F11283   0.629   3.916   9.645  0.2598  0.3116 -1.8142
  109OSM    H6G11284   0.525   3.753   9.651  0.6820 -0.9847  0.1834
  109OSM    C7F11285   0.687   3.737   9.537 -0.0414  0.6298 -0.0589
  109OSM    H7F11286   0.713   3.632   9.561 -0.6592  0.4237 -0.2970
  109OSM    H7G11287   0.787   3.774   9.503  0.4363 -0.3347  0.3014
  109OSM    C8F11288   0.593   3.736   9.408  0.1484 -0.6790 -0.0888
  109OSM    H8F11289   0.491   3.700   9.432 -0.5745 -0.4903 -2.7164
  109OSM    H8G11290   0.622   3.654   9.338  0.5635  0.3870 -1.1804
  109OSM    C9F11291   0.578   3.873   9.340 -0.8217  0.8437  0.3983
  109OSM    H9F11292   0.521   3.958   9.379 -1.8123  0.2081  0.3580
  109OSM   C10F11293   0.600   3.900   9.204 -0.0546  0.2730 -1.6519
  109OSM   H10F11294   0.603   4.008   9.181 -0.5725  0.9668  1.3873
  109OSM   C11F11295   0.656   3.806   9.096  0.1246 -0.4080  0.6535
  109OSM   H11F11296   0.594   3.811   9.004 -0.7765 -0.4097  1.2509
  109OSM   H11G11297   0.651   3.700   9.131 -1.0782 -0.8142 -0.6914
  109OSM   C12F11298   0.805   3.852   9.071 -0.1509 -0.4169 -0.6257
  109OSM   H12F11299   0.849   3.866   9.172 -0.5943 -1.9007 -0.2131
  109OSM   H12G11300   0.799   3.945   9.010  0.4117  0.3622  0.4704
  109OSM   C13F11301   0.903   3.753   8.997  0.3502  0.3472 -0.0843
  109OSM   H13F11302   0.843   3.725   8.908  0.4091  1.7894 -0.5855
  109OSM   H13G11303   0.922   3.664   9.060 -2.7148 -0.8053 -0.7131
  109OSM   C14F11304   1.031   3.814   8.942 -0.4184 -1.0270  0.1444
  109OSM   H14F11305   1.114   3.808   9.016 -1.0453  0.9016  1.0327
  109OSM   H14G11306   1.016   3.923   8.929  0.8561 -0.8723 -0.1175
  109OSM   C15F11307   1.053   3.756   8.800 -0.1096 -0.7074  0.2727
  109OSM   H15F11308   1.118   3.824   8.741  0.3522 -0.1605  1.3986
  109OSM   H15G11309   0.962   3.746   8.737  1.4112  0.6032 -2.2116
  109OSM   C16F11310   1.113   3.612   8.794  0.3923 -0.0938 -0.5461
  109OSM   H16F11311   1.061   3.540   8.861  2.3460  0.8571  2.1000
  109OSM   H16G11312   1.218   3.615   8.830  0.8966  2.4384 -2.1045
  109OSM   C17F11313   1.123   3.566   8.642  0.5420  0.9020  0.0094
  109OSM   H17F11314   1.168   3.643   8.577 -0.0197  0.1830 -1.2430
  109OSM   H17G11315   1.020   3.561   8.603  0.6124  1.7322 -0.2840
  109OSM   C18F11316   1.194   3.430   8.613  0.7467 -0.0380 -0.0946
  109OSM   H18F11317   1.110   3.361   8.590  1.1131 -1.1917  1.9494
  109OSM   H18G11318   1.262   3.401   8.696 -0.2359  0.2204  0.7937
  109OSM   H18H11319   1.242   3.438   8.513  0.5434 -2.0162 -0.3775
  110OSM      N11320   2.076   3.355  11.194 -0.5662 -0.5097  0.4287
  110OSM    C1511321   2.184   3.258  11.145  0.1139 -0.2877 -0.5836
  110OSM   H15A11322   2.258   3.225  11.216  1.0809 -0.2056 -1.5364
  110OSM   H15B11323   2.242   3.304  11.066  0.5787  0.0321 -0.0642
  110OSM   H15C11324   2.136   3.172  11.100  1.0166 -1.0582 -0.0851
  110OSM    C1411325   1.975   3.273  11.264  0.1346  0.2100  0.0144
  110OSM   H14A11326   1.896   3.337  11.302 -0.0235  0.3769 -0.5836
  110OSM   H14B11327   2.020   3.219  11.346 -0.9381 -1.6503 -0.5924
  110OSM   H14C11328   1.913   3.205  11.207 -0.5587 -0.6276  1.7308
  110OSM    C1311329   2.134   3.451  11.293 -0.1747 -0.2186 -0.6656
  110OSM   H13A11330   2.214   3.505  11.246 -0.7992 -1.0719 -2.8025
  110OSM   H13B11331   2.172   3.399  11.379 -1.4364 -1.6527 -0.9435
  110OSM   H13C11332   2.059   3.516  11.336  1.9180  0.6933  1.6768
  110OSM    C1211333   2.007   3.429  11.080  0.3868 -0.1372  0.1611
  110OSM   H12A11334   2.069   3.513  11.052  2.1736 -0.8770  1.7814
  110OSM   H12B11335   1.928   3.487  11.126  1.2132 -0.1928  1.6841
  110OSM    C1111336   1.965   3.349  10.960 -0.4200 -0.1915  0.0129
  110OSM   H11A11337   2.054   3.310  10.906 -2.3254 -1.9920 -1.9197
  110OSM   H11B11338   1.921   3.413  10.880  0.1534 -0.7533 -0.7672
  110OSM      P11339   1.886   3.102  10.927 -0.0765  0.7865  0.5667
  110OSM    O1311340   1.996   3.031  10.995  0.0262  0.1089  0.0677
  110OSM    O1411341   1.756   3.038  10.946  0.5566 -0.8645 -0.7117
  110OSM    O1111342   1.908   3.127  10.768 -0.4165  0.0040 -0.3273
  110OSM    O1211343   1.871   3.245  10.991  0.1271 -0.5641  0.1124
  110OSM    C1S11344   1.802   3.211  10.698 -0.2380 -0.6316  0.1306
  110OSM    H1S11345   1.838   3.315  10.686 -0.8284 -0.5078 -0.5530
  110OSM    H1T11346   1.706   3.222  10.752 -0.5404 -1.2089 -0.2914
  110OSM     NF11347   1.664   3.218  10.509 -1.4030  0.1439  0.5123
  110OSM    HNF11348   1.580   3.164  10.514 -1.6871  0.5513  0.1489
  110OSM    C2S11349   1.778   3.149  10.555  0.1233  0.4367 -0.7302
  110OSM    H2S11350   1.859   3.170  10.483  1.2856  1.3392  0.7917
  110OSM    C3S11351   1.752   2.995  10.566  0.6455 -0.3742  0.0054
  110OSM    H3S11352   1.677   2.985  10.647  0.3302 -0.1580 -0.2549
  110OSM     O311353   1.859   2.916  10.607  0.7160 -0.2136 -0.6275
  110OSM    HO311354   1.909   2.981  10.655  1.4668  0.2691 -2.0412
  110OSM    C4S11355   1.692   2.943  10.438 -0.9024  0.4120  0.5722
  110OSM    H4S11356   1.582   2.954  10.438 -0.7723  1.8321  1.4335
  110OSM    C5S11357   1.760   2.899  10.333  0.0464 -0.5016  0.6017
  110OSM    H5S11358   1.869   2.890  10.345 -0.1415 -0.2528  2.6813
  110OSM    C6S11359   1.696   2.849  10.207  0.2775 -0.4890 -0.0024
  110OSM    H6S11360   1.593   2.889  10.199  0.8790  0.6993 -2.2589
  110OSM    H6T11361   1.678   2.740  10.199 -0.3349 -0.2991 -1.4030
  110OSM    C7S11362   1.771   2.897  10.076  0.6396 -0.6689 -0.3999
  110OSM    H7S11363   1.874   2.856  10.081  0.4459 -1.2608 -1.1947
  110OSM    H7T11364   1.781   3.007  10.082 -0.1753 -0.5541 -1.1018
  110OSM    C8S11365   1.700   2.839   9.949 -0.5359  0.5977 -0.3177
  110OSM    H8S11366   1.606   2.893   9.926 -0.9886 -1.1178 -2.7165
  110OSM    H8T11367   1.671   2.734   9.971  1.4163 -0.0428 -0.7719
  110OSM    C9S11368   1.795   2.825   9.834 -0.2154  0.2676  0.3829
  110OSM    H9S11369   1.873   2.745   9.835  0.5380  0.9677 -0.9920
  110OSM    H9T11370   1.851   2.919   9.818  1.3110 -0.7849 -0.5399
  110OSM   C10S11371   1.716   2.789   9.700  0.4591  0.4197 -0.5768
  110OSM   H10S11372   1.610   2.822   9.704  0.0323 -0.6820 -2.0910
  110OSM   H10T11373   1.697   2.679   9.694  0.9658  0.3899 -1.7477
  110OSM   C11S11374   1.784   2.837   9.569  0.0660  0.1623  0.1633
  110OSM   H11S11375   1.808   2.944   9.585 -0.4729  0.3726 -0.4194
  110OSM   H11T11376   1.717   2.825   9.481 -0.4636  4.0165 -0.0324
  110OSM   C12S11377   1.922   2.778   9.543  0.7071 -0.1814  0.1379
  110OSM   H12S11378   1.913   2.667   9.541  4.3401 -0.5194 -1.4392
  110OSM   H12T11379   1.993   2.813   9.622 -1.0095  2.0232  0.7527
  110OSM   C13S11380   1.971   2.819   9.399 -0.7770  0.0394  0.4686
  110OSM   H13S11381   2.075   2.778   9.397 -0.0424  1.8551  0.3126
  110OSM   H13T11382   1.969   2.928   9.382 -0.4241  0.3178  2.1396
  110OSM   C14S11383   1.883   2.761   9.289  0.5915  0.2781 -0.0962
  110OSM   H14S11384   1.782   2.807   9.283  1.5670  2.4513 -0.1650
  110OSM   H14T11385   1.859   2.656   9.315 -0.4119  0.2844 -0.9755
  110OSM   C15S11386   1.940   2.775   9.149  0.0792 -0.0695  0.0792
  110OSM   H15S11387   2.040   2.729   9.133  0.2095 -0.4525  1.8252
  110OSM   H15T11388   1.949   2.882   9.120  1.2019 -0.2542 -0.2931
  110OSM   C16S11389   1.849   2.720   9.038  0.1450  0.0021  0.3544
  110OSM   H16S11390   1.757   2.782   9.033 -0.3996 -0.7457  1.0649
  110OSM   H16T11391   1.826   2.615   9.067  0.4892 -1.1878 -3.3795
  110OSM   C17S11392   1.905   2.713   8.894 -0.5463 -0.0547  0.1538
  110OSM   H17S11393   1.931   2.607   8.873 -1.7063 -0.2952 -0.1203
  110OSM   H17T11394   1.999   2.772   8.892 -0.5210 -0.0073  1.6411
  110OSM   C18S11395   1.812   2.761   8.784 -0.9272 -0.0449  0.9361
  110OSM   H18S11396   1.853   2.757   8.680 -2.0327 -2.1239  0.5543
  110OSM   H18T11397   1.782   2.863   8.817  0.5418 -0.1813  2.7622
  110OSM   H18U11398   1.727   2.689   8.790 -0.5384 -0.3339  3.7321
  110OSM    C1F11399   1.675   3.351  10.471  0.2361 -0.4731  0.5898
  110OSM     OF11400   1.783   3.416  10.468  0.1562  0.6672 -0.0035
  110OSM    C2F11401   1.540   3.415  10.434 -0.2112  0.2537 -0.2546
  110OSM    H2F11402   1.539   3.512  10.488 -3.4000  0.6021 -0.8424
  110OSM    H2G11403   1.456   3.349  10.463 -1.3163  1.5979 -0.3008
  110OSM    C3F11404   1.527   3.428  10.279 -0.2601 -0.2545 -1.1366
  110OSM    H3F11405   1.623   3.462  10.237 -0.6942  1.9912 -0.3443
  110OSM    H3G11406   1.457   3.514  10.272 -1.4124 -1.0599  0.2518
  110OSM    C4F11407   1.489   3.309  10.193 -0.9274 -0.2751 -0.7543
  110OSM    H4F11408   1.389   3.279  10.233 -0.6689  0.2397  0.2863
  110OSM    H4G11409   1.566   3.229  10.197  1.7898  2.3159 -0.3735
  110OSM    C5F11410   1.465   3.351  10.047 -0.3466 -0.4427 -0.8371
  110OSM    H5F11411   1.560   3.387  10.004  0.8848 -1.3455  1.0812
  110OSM    H5G11412   1.394   3.434  10.027  0.6047  0.6039  0.0645
  110OSM    C6F11413   1.442   3.234   9.952  0.7092  0.2245 -0.0972
  110OSM    H6F11414   1.355   3.181   9.996 -0.2480  1.1360 -0.8975
  110OSM    H6G11415   1.536   3.175   9.952  0.5583 -0.0385  1.2626
  110OSM    C7F11416   1.385   3.279   9.816 -0.7405  0.4690  0.3035
  110OSM    H7F11417   1.349   3.384   9.826 -0.7184  0.2988  2.3388
  110OSM    H7G11418   1.301   3.213   9.784  1.3495 -2.0778 -0.1197
  110OSM    C8F11419   1.498   3.277   9.716 -0.6241 -0.0297 -0.5724
  110OSM    H8F11420   1.535   3.172   9.713  0.4703  0.3769 -2.1368
  110OSM    H8G11421   1.578   3.339   9.762 -0.1277 -1.9916  1.2599
  110OSM    C9F11422   1.462   3.318   9.586  0.4873  0.4958  0.5513
  110OSM    H9F11423   1.382   3.394   9.582 -0.1939 -0.2168  0.5981
  110OSM   C10F11424   1.481   3.247   9.469  0.3569 -0.1518  0.4948
  110OSM   H10F11425   1.441   3.297   9.379  2.3737  1.6602  0.5812
  110OSM   C11F11426   1.560   3.117   9.441  0.1934 -0.3900  0.1662
  110OSM   H11F11427   1.553   3.049   9.529  3.2700  0.7642  1.3966
  110OSM   H11G11428   1.670   3.133   9.439  0.6073 -3.1176 -1.1693
  110OSM   C12F11429   1.520   3.032   9.316 -0.4799 -0.0191 -0.2079
  110OSM   H12F11430   1.412   3.005   9.320 -0.2470 -0.7247  1.4737
  110OSM   H12G11431   1.583   2.941   9.316  0.7250  0.7426 -3.1853
  110OSM   C13F11432   1.541   3.101   9.188  0.0353  0.1717  0.2303
  110OSM   H13F11433   1.496   3.202   9.190 -0.7250 -0.1028 -1.9977
  110OSM   H13G11434   1.485   3.057   9.103  1.7039 -0.3905 -0.6045
  110OSM   C14F11435   1.689   3.125   9.149  0.2807 -0.3368  0.2197
  110OSM   H14F11436   1.748   3.036   9.179 -0.8611 -0.9133  0.7617
  110OSM   H14G11437   1.733   3.216   9.197 -0.6436 -0.4533  1.2904
  110OSM   C15F11438   1.705   3.146   8.998 -0.1367  0.1742 -0.1124
  110OSM   H15F11439   1.639   3.231   8.972  0.0366  0.4089  0.2133
  110OSM   H15G11440   1.680   3.049   8.949 -1.6774  0.5302 -0.0343
  110OSM   C16F11441   1.850   3.187   8.965 -0.4997  0.2679  0.6435
  110OSM   H16F11442   1.916   3.133   9.037  2.1352  1.3333 -0.9029
  110OSM   H16G11443   1.867   3.296   8.977 -0.7066  0.3983 -0.2509
  110OSM   C17F11444   1.889   3.139   8.829  0.1114 -0.9193  1.1402
  110OSM   H17F11445   1.820   3.172   8.748 -0.8325 -1.7427  1.5935
  110OSM   H17G11446   1.890   3.028   8.832  3.7737 -0.9169  1.3747
  110OSM   C18F11447   2.034   3.172   8.791  0.3628 -0.0878  0.3037
  110OSM   H18F11448   2.045   3.281   8.772 -1.6141  0.1066  0.1702
  110OSM   H18G11449   2.066   3.109   8.705 -0.7150 -0.5699  0.2484
  110OSM   H18H11450   2.101   3.150   8.877 -0.2222 -0.0929  0.7604
  111OSM      N11451   2.601   6.371  11.043 -0.1079 -0.1757  0.2331
  111OSM    C1511452   2.707   6.282  11.082 -0.8175 -0.2185  0.2962
  111OSM   H15A11453   2.804   6.328  11.071 -0.4740 -0.8589  0.6438
  111OSM   H15B11454   2.714   6.189  11.028 -2.2879 -1.1360  1.6467
  111OSM   H15C11455   2.701   6.271  11.189  0.8364  1.1081  0.5491
  111OSM    C1411456   2.638   6.505  11.108 -0.3752 -0.5312 -0.2762
  111OSM   H14A11457   2.669   6.490  11.210  0.8558 -1.4095 -0.7731
  111OSM   H14B11458   2.565   6.584  11.097 -0.1438 -0.3682 -0.6273
  111OSM   H14C11459   2.720   6.549  11.054  0.6165  0.6069  2.0588
  111OSM    C1311460   2.607   6.391  10.899  0.2670 -0.9536  0.6673
  111OSM   H13A11461   2.711   6.400  10.870 -0.5049  2.3013 -1.3691
  111OSM   H13B11462   2.552   6.481  10.876 -0.9279 -1.3706  1.8408
  111OSM   H13C11463   2.570   6.310  10.838  0.3801 -1.3664  1.1377
  111OSM    C1211464   2.469   6.318  11.095 -0.4894 -0.3686 -0.0232
  111OSM   H12A11465   2.404   6.402  11.077 -1.0456 -1.1330 -1.7302
  111OSM   H12B11466   2.484   6.310  11.201 -1.0298  0.3731  0.1166
  111OSM    C1111467   2.415   6.182  11.045 -0.0824 -0.8574 -0.3344
  111OSM   H11A11468   2.326   6.151  11.105  0.0350  0.3226  0.4465
  111OSM   H11B11469   2.499   6.113  11.068  2.0334  0.7171 -3.0745
  111OSM      P11470   2.258   6.259  10.846 -0.3062  0.1729  0.2058
  111OSM    O1311471   2.140   6.177  10.805 -0.5276  0.0350 -0.1914
  111OSM    O1411472   2.226   6.377  10.932  0.5001 -0.0720  0.1610
  111OSM    O1111473   2.319   6.309  10.713 -0.4964 -0.1764 -0.3920
  111OSM    O1211474   2.382   6.184  10.903 -0.0097 -0.0382 -0.2057
  111OSM    C1S11475   2.358   6.217  10.611  0.2639  0.5722 -0.1260
  111OSM    H1S11476   2.345   6.109  10.635  0.2987  0.3922 -0.8917
  111OSM    H1T11477   2.466   6.232  10.591  0.4874 -1.2226 -0.3548
  111OSM     NF11478   2.319   6.144  10.382 -1.0097 -0.4393 -0.4699
  111OSM    HNF11479   2.393   6.161  10.317  0.1148  2.0677  1.3950
  111OSM    C2S11480   2.289   6.252  10.475 -0.2724 -0.0495 -0.1356
  111OSM    H2S11481   2.178   6.247  10.480 -0.3172 -0.6253 -1.5848
  111OSM    C3S11482   2.318   6.394  10.429 -0.4210 -0.2567  0.0807
  111OSM    H3S11483   2.427   6.404  10.411 -0.5342  0.2999 -0.2875
  111OSM     O311484   2.268   6.490  10.518 -0.1701  0.8909  0.1057
  111OSM    HO311485   2.272   6.437  10.598 -0.0066 -1.3054 -1.3354
  111OSM    C4S11486   2.235   6.418  10.297  0.5418 -0.3630 -0.0429
  111OSM    H4S11487   2.130   6.395  10.319  0.2535  1.9146  1.1684
  111OSM    C5S11488   2.284   6.467  10.183 -0.0322  0.0844  0.2241
  111OSM    H5S11489   2.393   6.486  10.178  0.2448 -0.9956  1.8926
  111OSM    C6S11490   2.217   6.497  10.056 -0.9585 -0.3306  0.5326
  111OSM    H6S11491   2.256   6.425   9.980 -0.4703  0.5871 -0.1016
  111OSM    H6T11492   2.244   6.597  10.016  1.3087 -1.0105  0.2886
  111OSM    C7S11493   2.064   6.494  10.051 -0.9395  0.3685  0.1673
  111OSM    H7S11494   2.023   6.587  10.096  0.1225  0.6766  0.5039
  111OSM    H7T11495   2.030   6.407  10.112  0.2195 -0.1316  0.1185
  111OSM    C8S11496   2.001   6.486   9.912 -0.1589 -0.1195 -0.1450
  111OSM    H8S11497   1.913   6.553   9.924  0.4643  1.2584 -2.7794
  111OSM    H8T11498   1.958   6.384   9.903  0.2986 -0.5001  1.7759
  111OSM    C9S11499   2.084   6.538   9.796  0.0994  0.1288  0.5291
  111OSM    H9S11500   2.193   6.514   9.794 -0.0902 -0.7405 -0.1014
  111OSM    H9T11501   2.080   6.648   9.789  3.2628  0.2291 -0.3668
  111OSM   C10S11502   2.027   6.492   9.659  0.6627 -0.2895 -0.2935
  111OSM   H10S11503   1.923   6.531   9.660  1.2864  1.4315 -1.1544
  111OSM   H10T11504   2.007   6.383   9.663 -1.1832  0.0046 -0.7861
  111OSM   C11S11505   2.101   6.546   9.541  0.1144  0.3267 -0.1907
  111OSM   H11S11506   2.209   6.543   9.570  0.3702  2.1488 -0.9165
  111OSM   H11T11507   2.069   6.651   9.527  1.7939  0.9730  0.6387
  111OSM   C12S11508   2.086   6.463   9.414  0.3685  0.1279 -0.1893
  111OSM   H12S11509   2.111   6.358   9.440  0.0271 -0.0483 -0.5682
  111OSM   H12T11510   2.151   6.498   9.332  0.8574  1.3963  0.7201
  111OSM   C13S11511   1.954   6.467   9.345  0.3926 -0.4026  0.1062
  111OSM   H13S11512   1.911   6.568   9.328  0.1899 -0.4754  0.1851
  111OSM   H13T11513   1.879   6.416   9.409  0.6508  1.0153  1.5852
  111OSM   C14S11514   1.957   6.384   9.214  0.3882  0.2175 -0.0842
  111OSM   H14S11515   1.985   6.277   9.227 -0.2825 -0.0859 -1.0689
  111OSM   H14T11516   2.032   6.433   9.149 -1.4494 -0.2880 -2.6767
  111OSM   C15S11517   1.814   6.381   9.157 -0.0447 -0.2355 -0.1977
  111OSM   H15S11518   1.796   6.486   9.127 -0.3562  0.2180  1.5446
  111OSM   H15T11519   1.737   6.366   9.236 -1.0872  3.3793 -0.4235
  111OSM   C16S11520   1.796   6.292   9.037 -0.9524  0.5675  0.1597
  111OSM   H16S11521   1.695   6.317   8.997 -0.6247 -0.1824 -1.1737
  111OSM   H16T11522   1.784   6.186   9.067 -1.1360  0.4320 -0.3748
  111OSM   C17S11523   1.905   6.322   8.927  0.0459  0.1606  0.3854
  111OSM   H17S11524   1.954   6.421   8.937  0.6489 -0.1197  0.2405
  111OSM   H17T11525   1.845   6.321   8.834  1.5923  0.3748 -0.6342
  111OSM   C18S11526   2.016   6.213   8.918 -0.4078  0.3529 -0.6681
  111OSM   H18S11527   2.107   6.255   8.871  1.1332 -0.9587  1.0692
  111OSM   H18T11528   1.975   6.132   8.853  0.7487 -0.1181 -0.8239
  111OSM   H18U11529   2.048   6.178   9.018 -0.6949  0.5576 -0.5035
  111OSM    C1F11530   2.267   6.023  10.374  0.2568 -0.6124  0.3232
  111OSM     OF11531   2.178   5.998  10.447 -0.9537 -0.1177  0.0552
  111OSM    C2F11532   2.324   5.920  10.278 -0.4950 -0.0395  0.5043
  111OSM    H2F11533   2.291   5.817  10.307 -2.6205  1.5934  4.3322
  111OSM    H2G11534   2.435   5.921  10.277 -0.4273 -2.5980  1.0169
  111OSM    C3F11535   2.281   5.945  10.129  0.0904  0.5016 -0.4141
  111OSM    H3F11536   2.319   6.041  10.089  1.0781 -0.6255 -2.2336
  111OSM    H3G11537   2.170   5.953  10.141 -0.0725 -3.2581  1.4907
  111OSM    C4F11538   2.329   5.839  10.033  0.2926  0.4007  0.2220
  111OSM    H4F11539   2.295   5.739  10.068 -0.9730  0.2735 -1.3383
  111OSM    H4G11540   2.440   5.846  10.036  0.4916 -1.1184 -2.8934
  111OSM    C5F11541   2.278   5.872   9.898  0.8832  0.3862 -0.6396
  111OSM    H5F11542   2.313   5.971   9.861  0.9761  0.6129  0.0518
  111OSM    H5G11543   2.167   5.877   9.894  0.9156  2.4587  0.6165
  111OSM    C6F11544   2.314   5.777   9.785 -0.3518 -0.4710  0.0813
  111OSM    H6F11545   2.290   5.670   9.803  1.1566 -1.3301 -2.7122
  111OSM    H6G11546   2.424   5.779   9.770 -0.2321  0.5381  0.9658
  111OSM    C7F11547   2.246   5.811   9.648  0.0992 -0.2249  0.1252
  111OSM    H7F11548   2.264   5.919   9.627 -0.5342  0.0441  0.9164
  111OSM    H7G11549   2.137   5.788   9.655  0.1158 -0.0655  0.9919
  111OSM    C8F11550   2.317   5.735   9.531 -0.2992  0.3399  0.1650
  111OSM    H8F11551   2.423   5.751   9.563  0.3117 -0.2979 -1.4874
  111OSM    H8G11552   2.290   5.792   9.440  1.7244 -1.3741 -1.5516
  111OSM    C9F11553   2.281   5.595   9.528 -0.6437  0.0547 -0.4463
  111OSM    H9F11554   2.260   5.545   9.624 -1.8462 -0.8757 -1.1782
  111OSM   C10F11555   2.258   5.524   9.412 -0.0260  0.8437  1.1649
  111OSM   H10F11556   2.228   5.419   9.417  1.2463  0.4837  1.3492
  111OSM   C11F11557   2.272   5.573   9.273  0.8013 -0.1590 -0.2491
  111OSM   H11F11558   2.284   5.683   9.268 -0.2260 -0.1320 -2.7387
  111OSM   H11G11559   2.179   5.556   9.215 -0.3990  1.7132  1.0686
  111OSM   C12F11560   2.388   5.517   9.189 -0.6002  0.0908 -0.8297
  111OSM   H12F11561   2.377   5.407   9.177  2.7443 -0.4502  0.4973
  111OSM   H12G11562   2.479   5.546   9.247  0.0628  0.0207 -1.8239
  111OSM   C13F11563   2.401   5.580   9.048 -0.2001 -0.8840  0.6185
  111OSM   H13F11564   2.447   5.679   9.068 -0.3347 -0.2855 -1.8258
  111OSM   H13G11565   2.297   5.585   9.010  0.4926  1.7422 -1.0648
  111OSM   C14F11566   2.494   5.504   8.956  0.2251 -0.8518  0.8056
  111OSM   H14F11567   2.455   5.401   8.950 -1.2348 -0.2830  0.2495
  111OSM   H14G11568   2.592   5.516   9.007 -0.2151  0.8737  1.2926
  111OSM   C15F11569   2.501   5.555   8.802 -0.5914  0.1567 -0.3600
  111OSM   H15F11570   2.570   5.481   8.758 -0.1642  0.6138 -0.4585
  111OSM   H15G11571   2.543   5.657   8.812 -1.3454  0.7543 -2.8953
  111OSM   C16F11572   2.366   5.552   8.737  0.1707 -0.0239 -0.1633
  111OSM   H16F11573   2.294   5.627   8.776  0.0739  0.3292 -1.0030
  111OSM   H16G11574   2.332   5.450   8.766  0.3320 -0.1330 -0.3575
  111OSM   C17F11575   2.359   5.560   8.582 -0.0720  0.0208  0.2697
  111OSM   H17F11576   2.427   5.485   8.538 -1.0842 -0.2890 -0.8059
  111OSM   H17G11577   2.399   5.658   8.549  0.2260 -0.1425  0.1542
  111OSM   C18F11578   2.207   5.541   8.536 -0.4107  0.2762 -0.3173
  111OSM   H18F11579   2.160   5.452   8.584  0.6868  1.2405  2.6388
  111OSM   H18G11580   2.202   5.529   8.425 -0.0268 -0.2091 -0.2838
  111OSM   H18H11581   2.144   5.628   8.565 -0.6342  0.4133 -1.1954
  112OSM      N11582   3.774   3.947  11.211  0.1594  0.3568 -0.3818
  112OSM    C1511583   3.740   4.044  11.319 -0.1330 -0.1162  0.3934
  112OSM   H15A11584   3.786   4.138  11.294 -1.3672  0.6699  1.0384
  112OSM   H15B11585   3.764   4.006  11.418 -2.0588 -2.4097  0.0487
  112OSM   H15C11586   3.633   4.052  11.329 -0.1137 -0.1444  0.6255
  112OSM    C1411587   3.928   3.913  11.207  0.1507  0.2070 -1.0659
  112OSM   H14A11588   3.941   3.847  11.123  2.9117  0.1405 -0.6262
  112OSM   H14B11589   3.962   3.855  11.292  0.1373 -0.6496 -1.6387
  112OSM   H14C11590   3.983   4.005  11.193  3.2075 -1.1905  0.9967
  112OSM    C1311591   3.700   3.816  11.242 -0.4645  1.0167  0.0966
  112OSM   H13A11592   3.594   3.836  11.247 -0.5096  0.7330  0.2879
  112OSM   H13B11593   3.733   3.762  11.330  1.8543 -1.3007 -2.0733
  112OSM   H13C11594   3.711   3.749  11.158  0.2375  1.1664  0.0654
  112OSM    C1211595   3.727   3.990  11.069  0.0197 -0.6486  0.3373
  112OSM   H12A11596   3.797   3.966  10.990 -0.6140 -0.5485 -0.2552
  112OSM   H12B11597   3.745   4.097  11.064 -0.1633 -0.5930  0.8409
  112OSM    C1111598   3.578   3.955  11.021  0.5578 -0.4925  0.1282
  112OSM   H11A11599   3.530   4.032  10.957 -1.5787 -0.7450  1.4103
  112OSM   H11B11600   3.513   3.960  11.110  0.6028  0.7191  0.0966
  112OSM      P11601   3.445   3.743  10.933 -0.3845  0.0216  0.0945
  112OSM    O1311602   3.486   3.641  10.833 -0.7161 -0.4541 -0.4796
  112OSM    O1411603   3.371   3.701  11.058 -0.4010  0.2519 -0.7202
  112OSM    O1111604   3.351   3.852  10.874  0.0908 -1.0109 -0.4144
  112OSM    O1211605   3.578   3.818  10.970 -0.3732  0.0565  0.3860
  112OSM    C1S11606   3.332   3.898  10.743  0.5804 -0.2223  0.2574
  112OSM    H1S11607   3.418   3.870  10.678 -0.2826 -0.8761 -0.6264
  112OSM    H1T11608   3.327   4.009  10.738 -2.2233 -0.4089 -3.7507
  112OSM     NF11609   3.182   3.879  10.546  0.1040  0.0116 -0.2296
  112OSM    HNF11610   3.132   3.965  10.544  0.2732  0.1349  0.5856
  112OSM    C2S11611   3.202   3.834  10.682 -0.8691 -0.2413  0.0908
  112OSM    H2S11612   3.220   3.724  10.689  0.3176 -0.0455  0.2468
  112OSM    C3S11613   3.077   3.860  10.780 -0.2582  0.5185 -0.2309
  112OSM    H3S11614   3.055   3.968  10.767  3.0060  1.4785  1.7286
  112OSM     O311615   3.092   3.840  10.920 -0.0009  0.0398  0.0356
  112OSM    HO311616   3.185   3.818  10.932  0.4220  1.8296  0.2478
  112OSM    C4S11617   2.958   3.793  10.733  0.0679 -0.1644  0.0165
  112OSM    H4S11618   2.985   3.693  10.694 -0.3125 -0.1232 -0.3587
  112OSM    C5S11619   2.833   3.835  10.711 -0.4160 -0.6148 -0.6188
  112OSM    H5S11620   2.798   3.939  10.726  1.0400 -0.0690 -0.9106
  112OSM    C6S11621   2.722   3.755  10.647 -0.0406  0.4122 -0.2016
  112OSM    H6S11622   2.656   3.806  10.574  0.3385 -0.5641 -1.2462
  112OSM    H6T11623   2.654   3.730  10.732  0.5939 -1.5978 -0.2378
  112OSM    C7S11624   2.768   3.622  10.575 -0.1632  0.1567  1.0115
  112OSM    H7S11625   2.672   3.576  10.543  0.4513  0.8291 -1.9458
  112OSM    H7T11626   2.820   3.545  10.637  1.5599 -1.7866 -2.6836
  112OSM    C8S11627   2.849   3.647  10.451  0.4025 -0.0731  0.3680
  112OSM    H8S11628   2.950   3.691  10.467  0.5757 -1.2201  2.6564
  112OSM    H8T11629   2.789   3.724  10.398  0.9988 -1.3016 -2.1376
  112OSM    C9S11630   2.855   3.522  10.362  0.0285 -0.0561 -0.0302
  112OSM    H9S11631   2.752   3.499  10.327  0.9745 -0.1789 -2.8222
  112OSM    H9T11632   2.889   3.442  10.431  2.5975  2.4510  1.7323
  112OSM   C10S11633   2.940   3.528  10.233 -0.5921 -0.0316  0.4867
  112OSM   H10S11634   2.923   3.430  10.184 -2.1197  0.2974  0.3385
  112OSM   H10T11635   3.049   3.540  10.255 -0.4170 -1.9001  0.7196
  112OSM   C11S11636   2.893   3.642  10.146 -0.0474  0.4994 -0.7993
  112OSM   H11S11637   2.932   3.739  10.184  0.5926 -1.0358  2.6834
  112OSM   H11T11638   2.782   3.637  10.151  0.0280 -1.5519 -0.5074
  112OSM   C12S11639   2.925   3.634   9.994 -0.0256  0.6756  0.2580
  112OSM   H12S11640   2.888   3.730   9.951  0.3807  1.1737  1.0059
  112OSM   H12T11641   2.874   3.552   9.940 -1.3648  1.9594 -0.4682
  112OSM   C13S11642   3.072   3.633   9.968  0.0014 -0.0861  0.1481
  112OSM   H13S11643   3.116   3.537  10.005  0.5675 -0.3649 -1.2134
  112OSM   H13T11644   3.124   3.707  10.033 -1.0425  0.7804 -0.0062
  112OSM   C14S11645   3.110   3.660   9.823 -0.9425  0.2744 -0.1950
  112OSM   H14S11646   3.217   3.656   9.795 -1.2707 -0.7563 -1.3856
  112OSM   H14T11647   3.091   3.764   9.788 -1.6793  0.7341  1.5506
  112OSM   C15S11648   3.035   3.558   9.722  0.3393  0.5434 -1.4428
  112OSM   H15S11649   2.927   3.581   9.738  0.7125  1.2408  0.2184
  112OSM   H15T11650   3.052   3.457   9.764 -0.0808  2.1578  2.8684
  112OSM   C16S11651   3.084   3.575   9.575  0.1844  0.1696  0.1398
  112OSM   H16S11652   3.195   3.570   9.576  0.2750  2.0918  0.4279
  112OSM   H16T11653   3.058   3.681   9.557  1.9288  0.6520  0.4605
  112OSM   C17S11654   3.027   3.470   9.475 -0.5372 -0.4144  0.2312
  112OSM   H17S11655   2.922   3.504   9.468 -0.5256 -0.9333 -3.5112
  112OSM   H17T11656   3.023   3.365   9.510 -0.4768 -0.4923  0.0085
  112OSM   C18S11657   3.088   3.471   9.342  0.2212  0.6703  0.7837
  112OSM   H18S11658   3.037   3.404   9.269 -0.1907 -0.2210  1.8631
  112OSM   H18T11659   3.194   3.438   9.344 -0.1147 -0.6817 -1.9503
  112OSM   H18U11660   3.100   3.574   9.302  0.2440  0.8494  1.2508
  112OSM    C1F11661   3.259   3.827  10.450 -0.6795 -0.2704 -0.0815
  112OSM     OF11662   3.349   3.743  10.482 -0.0664 -0.1782 -0.1649
  112OSM    C2F11663   3.225   3.875  10.315 -0.1955 -0.4667  0.1798
  112OSM    H2F11664   3.168   3.793  10.266  0.4902 -0.6387 -0.3406
  112OSM    H2G11665   3.324   3.880  10.265 -0.0801  0.3341  0.4757
  112OSM    C3F11666   3.134   3.999  10.312  0.0285 -0.2958  0.6576
  112OSM    H3F11667   3.189   4.087  10.352  0.6234 -1.3736  2.2922
  112OSM    H3G11668   3.042   3.985  10.373 -0.7932 -0.6654 -0.6598
  112OSM    C4F11669   3.086   4.024  10.169 -0.1890  0.3627  0.5231
  112OSM    H4F11670   3.021   3.939  10.140 -0.7701  1.0737 -0.2761
  112OSM    H4G11671   3.179   4.023  10.109 -0.6570 -2.0347 -0.1959
  112OSM    C5F11672   3.007   4.160  10.150 -0.7815  0.2579  0.4088
  112OSM    H5F11673   3.010   4.194  10.044 -2.8752  3.7678  1.3918
  112OSM    H5G11674   3.056   4.240  10.209 -0.6651  0.8401 -0.4654
  112OSM    C6F11675   2.861   4.161  10.194  0.2213  0.0544 -0.3359
  112OSM    H6F11676   2.833   4.268  10.199  0.9699  0.1966  0.8321
  112OSM    H6G11677   2.869   4.136  10.301 -1.7785 -0.9936 -0.4007
  112OSM    C7F11678   2.753   4.070  10.131 -0.4276  0.2014  0.1804
  112OSM    H7F11679   2.821   3.984  10.111 -0.2802  0.2297  0.5533
  112OSM    H7G11680   2.728   4.117  10.033 -3.1023 -1.5554 -0.0102
  112OSM    C8F11681   2.635   4.030  10.224 -0.0275  0.0137 -0.5846
  112OSM    H8F11682   2.550   4.100  10.237 -1.2844 -1.3063 -1.5478
  112OSM    H8G11683   2.684   4.019  10.323  0.8970  2.4221 -0.7421
  112OSM    C9F11684   2.577   3.896  10.171  0.1364 -0.6260 -0.1598
  112OSM    H9F11685   2.623   3.802  10.203  0.9881  0.5170  2.0794
  112OSM   C10F11686   2.479   3.890  10.078  0.0226  0.4279  0.0734
  112OSM   H10F11687   2.464   3.790  10.035 -1.3461 -0.0367  1.5850
  112OSM   C11F11688   2.413   4.009  10.010 -0.0969  0.4082 -0.0815
  112OSM   H11F11689   2.477   4.099  10.016 -0.4314  0.7842 -1.7315
  112OSM   H11G11690   2.324   4.041  10.068 -0.0414  1.4770 -0.5818
  112OSM   C12F11691   2.373   3.977   9.865 -0.2267  0.3510 -0.9401
  112OSM   H12F11692   2.335   4.078   9.838 -3.0738 -0.3088  0.4277
  112OSM   H12G11693   2.290   3.904   9.864  1.0161 -1.1708  1.9950
  112OSM   C13F11694   2.487   3.953   9.766 -0.1076  0.1547  0.0312
  112OSM   H13F11695   2.521   3.848   9.778 -1.1177  0.1061  3.0157
  112OSM   H13G11696   2.580   4.009   9.794 -0.9100  1.0061  1.0669
  112OSM   C14F11697   2.439   3.989   9.631 -0.5421  0.5095  0.6432
  112OSM   H14F11698   2.433   4.100   9.625  0.8384  0.5525 -0.1369
  112OSM   H14G11699   2.345   3.935   9.608  0.9252 -0.8609 -2.4634
  112OSM   C15F11700   2.526   3.925   9.516 -0.4089 -0.1623  0.4865
  112OSM   H15F11701   2.539   3.816   9.533 -0.1858 -0.4705 -1.6457
  112OSM   H15G11702   2.633   3.956   9.519 -0.5008  0.2389 -0.4701
  112OSM   C16F11703   2.481   3.950   9.375 -0.0200  0.4002 -0.1476
  112OSM   H16F11704   2.457   4.056   9.352  0.6594  0.9223  1.4608
  112OSM   H16G11705   2.391   3.884   9.378  1.6892 -1.9392  0.6372
  112OSM   C17F11706   2.575   3.897   9.269 -0.0815  0.1663  0.0868
  112OSM   H17F11707   2.630   3.813   9.317  0.2441  0.8349  0.8980
  112OSM   H17G11708   2.652   3.976   9.253  0.9162 -0.6670  0.7818
  112OSM   C18F11709   2.498   3.842   9.150  0.4182  0.1828 -0.7034
  112OSM   H18F11710   2.440   3.920   9.096  0.8281  2.0064  1.4152
  112OSM   H18G11711   2.426   3.767   9.189 -0.4852  0.6924 -1.3638
  112OSM   H18H11712   2.564   3.800   9.072 -0.3477  0.6289 -1.6082
  113OSM      N11713   6.631   0.282  11.058  0.4178  1.0394 -0.1624
  113OSM    C1511714   6.765   0.296  11.118  0.1779 -0.2694  0.4428
  113OSM   H15A11715   6.772   0.251  11.215 -1.4970 -1.4540  0.0364
  113OSM   H15B11716   6.788   0.401  11.132 -1.3693  0.0693  0.4911
  113OSM   H15C11717   6.841   0.261  11.049 -1.3294 -2.7741  0.0312
  113OSM    C1411718   6.622   0.142  11.001 -0.3375  0.0892 -0.3922
  113OSM   H14A11719   6.686   0.139  10.914 -0.3679 -1.5177 -0.3602
  113OSM   H14B11720   6.519   0.127  10.973 -0.2914 -0.8115 -0.0792
  113OSM   H14C11721   6.648   0.067  11.075 -0.8519 -1.2857 -1.5914
  113OSM    C1311722   6.527   0.309  11.162 -0.0337 -0.0570  0.4087
  113OSM   H13A11723   6.548   0.393  11.225  0.1502 -0.7106  1.2261
  113OSM   H13B11724   6.519   0.225  11.230 -0.6228  0.9943  1.6426
  113OSM   H13C11725   6.428   0.332  11.127 -1.0788 -2.7045  1.5083
  113OSM    C1211726   6.619   0.371  10.934  0.8419  0.4794 -0.1466
  113OSM   H12A11727   6.512   0.383  10.918  0.6449 -0.9273  0.0791
  113OSM   H12B11728   6.667   0.329  10.847  3.2711  2.3385  0.2425
  113OSM    C1111729   6.679   0.514  10.940  0.7121 -0.5560 -0.1591
  113OSM   H11A11730   6.664   0.571  10.846  0.4107 -0.7051 -0.2016
  113OSM   H11B11731   6.789   0.517  10.955  0.7639 -0.6167 -0.5194
  113OSM      P11732   6.476   0.654  11.039 -0.3195 -0.2275  0.2558
  113OSM    O1311733   6.398   0.597  11.148  0.6706  0.1637 -0.6851
  113OSM    O1411734   6.498   0.803  11.027 -0.2386 -0.3746  0.1263
  113OSM    O1111735   6.419   0.596  10.905  0.3959  0.3439 -0.0382
  113OSM    O1211736   6.620   0.596  11.044 -0.2836 -0.0320  0.4370
  113OSM    C1S11737   6.427   0.663  10.778  0.5340 -0.5145 -0.4062
  113OSM    H1S11738   6.484   0.594  10.711 -1.2438 -1.0247 -1.4199
  113OSM    H1T11739   6.487   0.756  10.772 -0.7578  0.3322 -0.4209
  113OSM     NF11740   6.304   0.767  10.584 -0.1313 -0.0017 -0.2323
  113OSM    HNF11741   6.282   0.864  10.577 -2.2337 -0.4692 -0.2611
  113OSM    C2S11742   6.287   0.686  10.706 -0.2141 -0.8684  0.5290
  113OSM    H2S11743   6.251   0.589  10.667 -0.3746  0.1521 -1.9533
  113OSM    C3S11744   6.190   0.747  10.803  0.6336 -0.8503 -0.0065
  113OSM    H3S11745   6.229   0.845  10.839 -0.6020 -0.4549  0.2949
  113OSM     O311746   6.158   0.666  10.921  0.1355 -0.0051 -0.0839
  113OSM    HO311747   6.234   0.608  10.931  0.0661 -0.0414  0.2581
  113OSM    C4S11748   6.061   0.768  10.720 -0.6551  0.2340  0.0098
  113OSM    H4S11749   6.044   0.871  10.684  0.3925  0.4156  0.0243
  113OSM    C5S11750   5.981   0.667  10.678 -0.3475  0.7603  0.5064
  113OSM    H5S11751   6.003   0.566  10.718  4.8347  0.8921 -1.6526
  113OSM    C6S11752   5.853   0.679  10.601  0.4167 -0.3723  0.1848
  113OSM    H6S11753   5.767   0.670  10.671  0.5663  0.7710  0.5138
  113OSM    H6T11754   5.845   0.592  10.531 -0.3056 -0.1261 -0.0493
  113OSM    C7S11755   5.832   0.814  10.537 -0.0098  0.0757  0.8163
  113OSM    H7S11756   5.854   0.896  10.610  0.7054 -0.1740  0.8847
  113OSM    H7T11757   5.726   0.820  10.507  0.3740 -0.1197 -0.6284
  113OSM    C8S11758   5.932   0.826  10.421 -0.4648  0.5104  0.3173
  113OSM    H8S11759   6.038   0.800  10.444 -0.6278 -2.5330 -2.0570
  113OSM    H8T11760   5.937   0.932  10.388  0.8540  0.7465  1.2002
  113OSM    C9S11761   5.893   0.732  10.302  0.1833 -0.3743  0.5413
  113OSM    H9S11762   5.784   0.737  10.282  0.8205  0.7671 -3.2532
  113OSM    H9T11763   5.916   0.625  10.318  1.4262 -0.3753 -1.1139
  113OSM   C10S11764   5.980   0.776  10.179  1.1191 -0.6052 -0.0417
  113OSM   H10S11765   6.087   0.746  10.187  1.4346  0.4923 -0.1751
  113OSM   H10T11766   5.978   0.886  10.170  0.5525 -0.6906 -0.9657
  113OSM   C11S11767   5.924   0.719  10.049  0.1801 -0.1956  0.2096
  113OSM   H11S11768   5.814   0.735  10.054  0.2378  0.3905 -0.4093
  113OSM   H11T11769   5.955   0.613  10.033  3.2429  1.0366 -2.6029
  113OSM   C12S11770   5.979   0.787   9.921 -0.4857 -0.7544 -0.1693
  113OSM   H12S11771   6.089   0.775   9.921 -0.3704  0.2235 -1.2794
  113OSM   H12T11772   5.956   0.895   9.923  0.3627 -0.5867  3.2565
  113OSM   C13S11773   5.919   0.732   9.797  0.7581  0.5389  0.8624
  113OSM   H13S11774   5.815   0.771   9.786  0.9035  1.3717  2.3084
  113OSM   H13T11775   5.919   0.621   9.806 -2.4205  0.2989 -1.1548
  113OSM   C14S11776   6.001   0.774   9.672 -0.2838  0.3678 -0.1237
  113OSM   H14S11777   6.112   0.767   9.677 -0.3440 -0.2566  0.3541
  113OSM   H14T11778   5.967   0.873   9.636  1.8060  0.3034 -2.3886
  113OSM   C15S11779   5.959   0.674   9.558 -0.4880  0.8311 -0.2878
  113OSM   H15S11780   5.850   0.687   9.540 -0.8902 -0.9266  0.8319
  113OSM   H15T11781   5.975   0.571   9.595 -1.4270  0.2708 -1.4081
  113OSM   C16S11782   6.041   0.702   9.431  0.4197  0.2373  0.5391
  113OSM   H16S11783   6.149   0.690   9.453  0.8936  2.4399 -0.4192
  113OSM   H16T11784   6.031   0.812   9.415  2.5589  0.3439 -0.2043
  113OSM   C17S11785   5.992   0.623   9.315 -0.3128  0.4659  0.4508
  113OSM   H17S11786   5.891   0.663   9.290 -0.5910 -2.0720 -2.8828
  113OSM   H17T11787   5.995   0.512   9.328  0.1549  0.3318 -0.7282
  113OSM   C18S11788   6.065   0.659   9.190 -0.5102  0.3429  0.4042
  113OSM   H18S11789   6.041   0.762   9.158  0.0539  0.5703  0.7111
  113OSM   H18T11790   6.061   0.594   9.100  1.9519 -0.8902  1.1417
  113OSM   H18U11791   6.171   0.653   9.222 -0.6468 -0.0033  0.8042
  113OSM    C1F11792   6.345   0.724  10.465  0.2643 -0.8776  0.7090
  113OSM     OF11793   6.379   0.609  10.451 -0.1364  0.1591  0.1241
  113OSM    C2F11794   6.340   0.813  10.352 -0.1098 -0.4621  0.2189
  113OSM    H2F11795   6.396   0.909  10.362 -3.1767  1.2684  1.4228
  113OSM    H2G11796   6.240   0.854  10.326  1.2657  2.0478 -1.3366
  113OSM    C3F11797   6.398   0.747  10.219 -0.1486  0.0675  0.0269
  113OSM    H3F11798   6.339   0.655  10.199  2.9569 -1.6981 -1.3465
  113OSM    H3G11799   6.505   0.720  10.231 -0.4761 -1.7573 -0.9502
  113OSM    C4F11800   6.380   0.845  10.103  0.2291  0.3025  0.2104
  113OSM    H4F11801   6.433   0.941  10.123  0.9095  0.0609 -0.3974
  113OSM    H4G11802   6.274   0.877  10.091 -0.4247 -1.6563  0.7428
  113OSM    C5F11803   6.427   0.780   9.968  0.1084 -0.4755 -0.3915
  113OSM    H5F11804   6.372   0.684   9.961  0.8554 -0.8866 -0.6265
  113OSM    H5G11805   6.533   0.749   9.966  0.3270  0.2999 -1.0056
  113OSM    C6F11806   6.413   0.873   9.846 -0.5002 -0.0219  0.1722
  113OSM    H6F11807   6.479   0.961   9.856  0.4705 -0.7181  0.0142
  113OSM    H6G11808   6.312   0.918   9.856 -0.7714 -0.1863 -1.6293
  113OSM    C7F11809   6.430   0.818   9.706 -0.5573 -0.7861 -1.2398
  113OSM    H7F11810   6.339   0.763   9.672 -2.3826 -0.5215  2.8246
  113OSM    H7G11811   6.514   0.746   9.713 -1.7924 -2.2627 -1.1127
  113OSM    C8F11812   6.466   0.924   9.603 -0.1457 -0.0520  0.7946
  113OSM    H8F11813   6.544   0.992   9.644  1.1857 -0.5879 -0.7851
  113OSM    H8G11814   6.370   0.980   9.606  1.4597  2.7730  3.1128
  113OSM    C9F11815   6.512   0.847   9.476 -0.2456  0.5570 -0.3945
  113OSM    H9F11816   6.593   0.775   9.492 -0.9008 -0.4715 -1.5483
  113OSM   C10F11817   6.452   0.852   9.356 -0.5857 -0.0530 -0.3618
  113OSM   H10F11818   6.485   0.788   9.273 -0.8589  1.9082 -2.0265
  113OSM   C11F11819   6.337   0.944   9.322 -0.2363  0.2523 -0.7780
  113OSM   H11F11820   6.321   1.017   9.405  0.1380 -3.1751  2.4170
  113OSM   H11G11821   6.245   0.882   9.319 -2.1856  2.8937  1.0797
  113OSM   C12F11822   6.357   1.027   9.185 -0.1071  0.5293  0.7052
  113OSM   H12F11823   6.460   1.067   9.195 -0.4083  1.2393  0.9783
  113OSM   H12G11824   6.277   1.104   9.198 -2.5283 -2.0177  1.4852
  113OSM   C13F11825   6.336   0.945   9.059  0.7450 -0.3212  0.1800
  113OSM   H13F11826   6.235   0.903   9.078  0.2263  1.5074  1.6897
  113OSM   H13G11827   6.399   0.854   9.057  0.7015 -0.3653  0.7235
  113OSM   C14F11828   6.347   1.016   8.923 -0.0422  0.8932  0.0710
  113OSM   H14F11829   6.449   1.047   8.892  0.5510  0.2319  1.3431
  113OSM   H14G11830   6.285   1.108   8.919  1.9873  2.2587 -1.4897
  113OSM   C15F11831   6.294   0.921   8.810 -0.0253  0.7044  0.1282
  113OSM   H15F11832   6.187   0.898   8.828  0.3716  0.5204  2.4141
  113OSM   H15G11833   6.342   0.821   8.814  0.1026  0.7882  0.6583
  113OSM   C16F11834   6.307   0.981   8.671  0.6726  0.1895  0.3134
  113OSM   H16F11835   6.414   1.001   8.651  1.2568 -2.1000  1.0581
  113OSM   H16G11836   6.265   1.083   8.684 -1.9243 -0.6728 -1.0113
  113OSM   C17F11837   6.242   0.922   8.544 -0.4879  0.0994 -0.0517
  113OSM   H17F11838   6.249   1.011   8.478 -0.1729 -0.0571 -0.2322
  113OSM   H17G11839   6.134   0.910   8.567 -0.6427  0.5823 -0.5259
  113OSM   C18F11840   6.332   0.811   8.492 -0.1890 -0.5780 -0.1664
  113OSM   H18F11841   6.354   0.736   8.571 -1.0595 -0.2731  0.3748
  113OSM   H18G11842   6.426   0.862   8.464 -0.2945  0.2176  0.8873
  113OSM   H18H11843   6.282   0.769   8.402 -1.9714  1.2718 -0.1047
  114OSM      N11844   1.357   3.736  11.044 -0.4708  0.5562  0.1357
  114OSM    C1511845   1.235   3.799  10.981  0.2991 -0.4197  0.3595
  114OSM   H15A11846   1.186   3.732  10.912  4.8539 -1.8411 -1.6887
  114OSM   H15B11847   1.266   3.887  10.927 -0.4382 -0.2340  0.2356
  114OSM   H15C11848   1.161   3.836  11.050  0.8217  1.5366 -0.1039
  114OSM    C1411849   1.306   3.633  11.147  0.1687  0.4070 -0.0176
  114OSM   H14A11850   1.251   3.549  11.105 -2.3359  1.8068  0.3686
  114OSM   H14B11851   1.237   3.673  11.220 -1.7923 -1.1875 -0.9354
  114OSM   H14C11852   1.391   3.594  11.201  0.0153  0.9820  0.6437
  114OSM    C1311853   1.425   3.661  10.934 -0.4497  0.6437  0.2555
  114OSM   H13A11854   1.515   3.610  10.964 -1.6620 -1.2509  0.7687
  114OSM   H13B11855   1.456   3.728  10.855  3.8075  0.1219  1.4112
  114OSM   H13C11856   1.359   3.591  10.884  1.4976  0.2646 -1.8571
  114OSM    C1211857   1.448   3.836  11.121 -0.3576 -0.6897  0.0608
  114OSM   H12A11858   1.391   3.884  11.199  1.3316  2.3941 -0.5301
  114OSM   H12B11859   1.466   3.914  11.048 -0.1998  0.3143  1.1769
  114OSM    C1111860   1.577   3.778  11.178 -0.9301 -0.1935 -0.4139
  114OSM   H11A11861   1.534   3.707  11.252  1.9179  0.8585  2.3647
  114OSM   H11B11862   1.634   3.849  11.241 -1.9980 -0.0427  0.3943
  114OSM      P11863   1.790   3.789  11.043 -0.0601  0.1794 -0.0728
  114OSM    O1311864   1.754   3.917  10.968  0.0867 -0.1816  0.8191
  114OSM    O1411865   1.879   3.808  11.162 -0.1985  0.3655 -0.1925
  114OSM    O1111866   1.863   3.703  10.932  0.3170 -0.4142  0.2743
  114OSM    O1211867   1.660   3.711  11.082  0.6763  0.1671  0.0302
  114OSM    C1S11868   1.801   3.670  10.807 -0.3951  0.6416  0.5144
  114OSM    H1S11869   1.703   3.719  10.786  0.0842  0.2872 -2.7612
  114OSM    H1T11870   1.790   3.559  10.802  1.4091  0.3717  1.9555
  114OSM     NF11871   1.808   3.712  10.557  0.2144  0.1846 -1.6325
  114OSM    HNF11872   1.788   3.627  10.508 -2.1626  0.2029 -0.7711
  114OSM    C2S11873   1.887   3.719  10.680 -0.1494  0.6215  0.5176
  114OSM    H2S11874   1.914   3.823  10.710  0.7153  0.6170 -0.2228
  114OSM    C3S11875   2.017   3.638  10.676 -0.4805 -0.2115 -0.6067
  114OSM    H3S11876   1.988   3.531  10.687  1.2783 -0.5397  1.2854
  114OSM     O311877   2.104   3.653  10.790  0.2560 -0.1498 -0.0469
  114OSM    HO311878   2.041   3.687  10.853 -0.0456  0.5081 -0.7000
  114OSM    C4S11879   2.081   3.666  10.538  0.2135 -0.3135  0.0909
  114OSM    H4S11880   2.047   3.608  10.451  2.5793 -0.1696 -0.9645
  114OSM    C5S11881   2.183   3.754  10.520 -0.2772  0.2681 -0.3234
  114OSM    H5S11882   2.214   3.821  10.601 -0.6005 -0.5982  0.5239
  114OSM    C6S11883   2.244   3.780  10.387  0.1277  0.5054 -0.9484
  114OSM    H6S11884   2.216   3.693  10.324  0.8982 -1.3036  1.1461
  114OSM    H6T11885   2.355   3.784  10.383  0.1783  0.7381  0.2584
  114OSM    C7S11886   2.183   3.908  10.327  0.2986  0.3901  0.4270
  114OSM    H7S11887   2.220   3.895  10.223 -0.2971 -0.3848  0.3057
  114OSM    H7T11888   2.222   4.006  10.363 -1.8805  0.4354  2.7837
  114OSM    C8S11889   2.034   3.909  10.309 -0.3641 -0.1729 -0.4055
  114OSM    H8S11890   1.985   3.925  10.407  0.6029 -0.2826  0.1028
  114OSM    H8T11891   2.012   3.806  10.273 -3.6612 -0.2860  1.7619
  114OSM    C9S11892   1.979   4.008  10.209 -0.0424 -0.0427 -0.4456
  114OSM    H9S11893   2.025   4.105  10.235  0.1789 -0.0328 -0.8656
  114OSM    H9T11894   1.868   4.005  10.218  0.1171  0.9305  2.1175
  114OSM   C10S11895   2.021   3.996  10.057  0.0445  0.1029  0.2666
  114OSM   H10S11896   2.055   3.896  10.023 -0.9799 -0.4967  0.9712
  114OSM   H10T11897   2.105   4.067  10.043 -0.7781  1.3343  1.3498
  114OSM   C11S11898   1.914   4.049   9.960  0.2147 -0.0505 -0.1286
  114OSM   H11S11899   1.897   4.157   9.978 -2.2893 -0.6167  1.0055
  114OSM   H11T11900   1.819   3.993   9.969 -0.4854  1.4061  1.7584
  114OSM   C12S11901   1.948   4.033   9.814 -0.3242 -0.0791  0.0906
  114OSM   H12S11902   1.945   3.924   9.794  1.7209  0.3273 -2.7863
  114OSM   H12T11903   2.047   4.081   9.799  0.1866 -0.5993  1.7038
  114OSM   C13S11904   1.852   4.107   9.725 -0.2328  0.1404 -0.2699
  114OSM   H13S11905   1.854   4.216   9.744 -3.0971  0.6085 -2.2264
  114OSM   H13T11906   1.752   4.066   9.753 -0.5199 -0.3372 -1.9514
  114OSM   C14S11907   1.875   4.087   9.574 -0.1246  0.1142 -0.8279
  114OSM   H14S11908   1.874   3.978   9.554 -0.5051 -0.1398  0.4647
  114OSM   H14T11909   1.973   4.126   9.542 -0.6266  2.9055  0.8636
  114OSM   C15S11910   1.774   4.153   9.483  0.8355  0.0155  0.2141
  114OSM   H15S11911   1.749   4.245   9.540  1.0329  0.6303 -0.6800
  114OSM   H15T11912   1.679   4.096   9.488  0.8321  0.1124  1.3979
  114OSM   C16S11913   1.823   4.184   9.335  0.5256  0.2739  0.4280
  114OSM   H16S11914   1.899   4.265   9.337 -0.6696  1.4680 -0.9413
  114OSM   H16T11915   1.733   4.224   9.284  0.2396 -0.8223  0.0610
  114OSM   C17S11916   1.877   4.060   9.265  0.6719 -0.2410 -0.2453
  114OSM   H17S11917   1.790   3.992   9.250 -0.3282  0.8549  0.5092
  114OSM   H17T11918   1.957   4.005   9.319  0.2976 -0.1626  0.4027
  114OSM   C18S11919   1.933   4.096   9.129 -0.3993  0.3179 -0.6595
  114OSM   H18S11920   1.993   4.019   9.075 -1.4177  0.3167 -1.8206
  114OSM   H18T11921   1.993   4.185   9.156 -1.2180 -0.4353  4.0984
  114OSM   H18U11922   1.853   4.120   9.055  0.9961  1.6877 -1.7618
  114OSM    C1F11923   1.749   3.827  10.517  0.5406 -0.5161  0.1787
  114OSM     OF11924   1.738   3.920  10.598  0.6662  0.3827 -0.0095
  114OSM    C2F11925   1.696   3.842  10.380 -0.0379  0.2589  0.7026
  114OSM    H2F11926   1.754   3.780  10.309 -0.0289  0.9261  0.1276
  114OSM    H2G11927   1.712   3.946  10.344 -1.4035  0.3376  0.3145
  114OSM    C3F11928   1.541   3.811  10.357 -0.3807 -0.3462 -0.2376
  114OSM    H3F11929   1.474   3.856  10.433 -0.8090 -1.8745  0.3031
  114OSM    H3G11930   1.539   3.700  10.370 -0.6680 -0.5695 -2.0199
  114OSM    C4F11931   1.505   3.855  10.215 -0.3795 -0.5542  0.1648
  114OSM    H4F11932   1.534   3.961  10.196  1.2427 -0.4841  2.8170
  114OSM    H4G11933   1.394   3.847  10.218 -0.3219 -1.4927 -0.1622
  114OSM    C5F11934   1.565   3.757  10.108 -0.0125  0.1986 -1.2008
  114OSM    H5F11935   1.535   3.652  10.133  0.8434  0.2573  0.0880
  114OSM    H5G11936   1.674   3.773  10.104 -0.0583  0.4509 -1.4274
  114OSM    C6F11937   1.491   3.784   9.967  0.1047  0.1102  0.0892
  114OSM    H6F11938   1.543   3.876   9.932 -0.8571  0.0475 -1.5408
  114OSM    H6G11939   1.382   3.794   9.983  0.1506  0.0862  0.4113
  114OSM    C7F11940   1.511   3.676   9.857  0.1455  0.1331 -0.4647
  114OSM    H7F11941   1.482   3.571   9.878 -1.0243  0.2460 -1.4241
  114OSM    H7G11942   1.617   3.666   9.826 -0.1767 -2.3276 -0.8398
  114OSM    C8F11943   1.437   3.705   9.720  0.1308  0.2408 -0.3210
  114OSM    H8F11944   1.331   3.680   9.742  0.0482  1.5486  0.8315
  114OSM    H8G11945   1.479   3.637   9.642  1.1205  1.7849 -1.1739
  114OSM    C9F11946   1.467   3.838   9.661  0.3602 -0.6446  0.2464
  114OSM    H9F11947   1.477   3.921   9.732  0.6099 -0.4055 -0.0650
  114OSM   C10F11948   1.479   3.870   9.532  0.1973  0.3159 -0.4102
  114OSM   H10F11949   1.487   3.974   9.495 -0.9088  0.1793 -1.0780
  114OSM   C11F11950   1.466   3.772   9.413  0.6642  0.0073 -0.4905
  114OSM   H11F11951   1.369   3.722   9.398  0.2773  0.0446  1.7820
  114OSM   H11G11952   1.534   3.684   9.423  0.4648 -0.0790  0.0964
  114OSM   C12F11953   1.511   3.845   9.285 -0.1792  0.1863  0.3640
  114OSM   H12F11954   1.512   3.775   9.198  1.9595  0.6362 -0.0087
  114OSM   H12G11955   1.612   3.890   9.299  0.2739 -0.3108 -1.1641
  114OSM   C13F11956   1.422   3.961   9.244 -0.4533  1.7060  0.8910
  114OSM   H13F11957   1.456   4.060   9.282  0.5575  1.7361 -0.0536
  114OSM   H13G11958   1.330   3.933   9.300 -0.2852 -1.1421 -0.1583
  114OSM   C14F11959   1.411   3.983   9.093 -0.0621  0.2034  0.0662
  114OSM   H14F11960   1.322   4.040   9.058 -0.4388 -0.4840 -0.0973
  114OSM   H14G11961   1.402   3.890   9.033 -2.1404 -0.3271  1.1636
  114OSM   C15F11962   1.525   4.056   9.029  0.0861  0.2826  0.0293
  114OSM   H15F11963   1.613   3.989   9.029  0.5459  0.8735  1.6145
  114OSM   H15G11964   1.549   4.142   9.094 -2.2019  1.5733 -0.7771
  114OSM   C16F11965   1.493   4.103   8.885 -0.0286 -0.4119 -0.8963
  114OSM   H16F11966   1.406   4.172   8.878 -0.0744  0.1973  4.1039
  114OSM   H16G11967   1.464   4.018   8.819 -3.4526  2.1759 -2.9103
  114OSM   C17F11968   1.620   4.177   8.833 -0.2746  0.4017  0.4922
  114OSM   H17F11969   1.705   4.108   8.817 -2.3062 -2.6062  2.1473
  114OSM   H17G11970   1.637   4.256   8.910  1.8084  1.4358 -0.9716
  114OSM   C18F11971   1.595   4.253   8.698  0.0690 -0.1697 -0.7656
  114OSM   H18F11972   1.606   4.181   8.615 -1.8187 -0.2162 -1.0056
  114OSM   H18G11973   1.659   4.344   8.693 -3.0000  2.1430  0.3413
  114OSM   H18H11974   1.491   4.292   8.699  0.0512 -0.1306  2.4819
  115OSM      N11975   5.555   3.020  11.085  0.5437  0.4025  1.0600
  115OSM    C1511976   5.568   3.151  11.018  0.0766  0.4630  0.8348
  115OSM   H15A11977   5.530   3.153  10.916 -0.8377  0.1038  1.1595
  115OSM   H15B11978   5.672   3.178  11.016  0.6489 -1.7705 -0.7783
  115OSM   H15C11979   5.528   3.235  11.074  0.2807  1.1483 -0.0364
  115OSM    C1411980   5.620   2.920  10.998  0.6609 -0.1266  0.4677
  115OSM   H14A11981   5.586   2.823  11.031  1.9109 -0.4585  0.7799
  115OSM   H14B11982   5.727   2.918  11.008  0.5921 -0.6388  1.1860
  115OSM   H14C11983   5.599   2.932  10.893  0.5538  2.1736  0.7288
  115OSM    C1311984   5.615   3.038  11.222 -0.1440 -0.1527  0.1842
  115OSM   H13A11985   5.538   3.080  11.284  0.7429 -1.0050  1.8908
  115OSM   H13B11986   5.689   3.116  11.216  0.8911 -0.8737  2.9374
  115OSM   H13C11987   5.656   2.951  11.271 -0.5055 -0.4672 -0.0722
  115OSM    C1211988   5.407   2.986  11.093 -0.6620  0.0771 -0.3853
  115OSM   H12A11989   5.357   2.967  10.999 -1.4194 -3.0806  0.5750
  115OSM   H12B11990   5.368   3.072  11.145  0.3890 -0.2994  1.0579
  115OSM    C1111991   5.359   2.860  11.168 -0.2822  0.1328 -0.5686
  115OSM   H11A11992   5.250   2.867  11.152 -0.1779 -0.8845 -1.8398
  115OSM   H11B11993   5.373   2.861  11.278  0.0941 -3.2109 -0.5446
  115OSM      P11994   5.311   2.615  11.057  0.1536 -0.2104  0.1019
  115OSM    O1311995   5.365   2.547  10.932 -0.3263  0.1114 -0.2183
  115OSM    O1411996   5.281   2.535  11.178  0.2454  0.3764  0.2842
  115OSM    O1111997   5.183   2.685  11.007  0.0124  0.8576 -0.5279
  115OSM    O1211998   5.407   2.738  11.098  0.0809 -0.0108 -0.1582
  115OSM    C1S11999   5.177   2.744  10.878 -0.2500 -0.7614  0.7085
  115OSM    H1S12000   5.270   2.805  10.868  0.4268 -1.7197  1.0457
  115OSM    H1T12001   5.091   2.814  10.875  1.4151  1.2931 -0.8500
  115OSM     NF12002   5.127   2.747  10.630  0.7944 -0.0297 -0.1576
  115OSM    HNF12003   5.037   2.777  10.597  0.8362  0.0974 -0.1563
  115OSM    C2S12004   5.148   2.662  10.746 -0.0797 -0.3008 -0.5824
  115OSM    H2S12005   5.242   2.608  10.718  0.6502  1.5452 -1.7824
  115OSM    C3S12006   5.029   2.565  10.762 -0.0357 -0.4397 -0.0031
  115OSM    H3S12007   4.944   2.636  10.770  1.4195  1.1798  1.5314
  115OSM     O312008   5.041   2.488  10.885 -0.3961 -0.2147  0.4441
  115OSM    HO312009   5.089   2.555  10.934 -0.2184 -0.2116  0.2637
  115OSM    C4S12010   5.011   2.470  10.647  0.2459  0.3690 -0.8684
  115OSM    H4S12011   5.102   2.418  10.614 -0.4249 -0.2010 -1.8400
  115OSM    C5S12012   4.894   2.441  10.588 -0.9093 -1.0360 -0.3919
  115OSM    H5S12013   4.803   2.498  10.611 -0.0884  0.2778 -0.2920
  115OSM    C6S12014   4.875   2.347  10.467  0.5369 -0.1689 -0.0366
  115OSM    H6S12015   4.781   2.287  10.470  0.1273  0.5311  1.4570
  115OSM    H6T12016   4.961   2.276  10.462  0.9306  0.4408 -2.3311
  115OSM    C7S12017   4.882   2.429  10.341 -0.0135 -0.3529  0.0002
  115OSM    H7S12018   4.985   2.469  10.327 -0.4624  0.4036 -1.2023
  115OSM    H7T12019   4.810   2.514  10.344  1.0600  0.5861 -0.3546
  115OSM    C8S12020   4.848   2.343  10.223 -0.0689  0.0728  0.4661
  115OSM    H8S12021   4.757   2.282  10.238 -0.3863  0.4381  0.0580
  115OSM    H8T12022   4.923   2.262  10.218  0.5180  0.5560  1.3467
  115OSM    C9S12023   4.821   2.416  10.092  0.6177 -0.3830  0.5186
  115OSM    H9S12024   4.912   2.477  10.077  1.8047 -1.9825  1.1296
  115OSM    H9T12025   4.728   2.473  10.117  0.9214  0.8695 -1.1353
  115OSM   C10S12026   4.789   2.330   9.974 -0.2864 -0.2371  0.3705
  115OSM   H10S12027   4.691   2.278   9.987  0.0842 -1.3105 -0.9642
  115OSM   H10T12028   4.880   2.267   9.970  1.0072  1.3640  3.1091
  115OSM   C11S12029   4.774   2.393   9.838  0.1588 -0.1431 -0.2913
  115OSM   H11S12030   4.864   2.443   9.797  0.3288 -0.6041 -0.4831
  115OSM   H11T12031   4.701   2.476   9.851  1.3230  0.7758  0.4225
  115OSM   C12S12032   4.717   2.295   9.728 -0.4951 -0.1716  0.1166
  115OSM   H12S12033   4.618   2.253   9.757 -1.7413  1.8223 -1.1175
  115OSM   H12T12034   4.791   2.213   9.720 -1.8684 -1.5857  1.5487
  115OSM   C13S12035   4.689   2.367   9.589  0.5641 -0.2134 -0.5910
  115OSM   H13S12036   4.759   2.452   9.574 -0.1696 -0.1322 -3.7300
  115OSM   H13T12037   4.589   2.415   9.590  0.5520 -0.2065  2.0187
  115OSM   C14S12038   4.693   2.269   9.477 -0.6478 -0.3782 -0.1345
  115OSM   H14S12039   4.647   2.310   9.384  0.5263 -0.2626 -0.6651
  115OSM   H14T12040   4.631   2.180   9.502 -2.1700  0.2433 -1.5634
  115OSM   C15S12041   4.837   2.213   9.448  0.1836  0.6244 -0.2651
  115OSM   H15S12042   4.876   2.140   9.522 -0.0538  0.9936  0.2163
  115OSM   H15T12043   4.910   2.295   9.457  0.8722  0.2460 -2.1446
  115OSM   C16S12044   4.841   2.149   9.304  0.3060 -0.1853 -0.4483
  115OSM   H16S12045   4.741   2.103   9.295 -0.1170  0.5469  0.4615
  115OSM   H16T12046   4.927   2.080   9.287  0.1621 -0.3675 -0.4242
  115OSM   C17S12047   4.856   2.262   9.202  0.1527 -0.2396 -0.1671
  115OSM   H17S12048   4.921   2.347   9.231 -0.0978  0.1453 -0.7215
  115OSM   H17T12049   4.759   2.313   9.184  0.4068  0.2651 -0.1002
  115OSM   C18S12050   4.906   2.205   9.067  0.0666 -0.3399  0.1136
  115OSM   H18S12051   5.014   2.180   9.076  0.4246  2.2065  3.4270
  115OSM   H18T12052   4.883   2.278   8.987  1.7811  1.7030  1.4424
  115OSM   H18U12053   4.856   2.107   9.048 -1.3305  0.2692  0.5697
  115OSM    C1F12054   5.225   2.810  10.568  0.0667 -0.2133 -0.0460
  115OSM     OF12055   5.340   2.798  10.601  0.2931  0.1665  0.5326
  115OSM    C2F12056   5.179   2.928  10.485  0.2861 -0.2052  0.5807
  115OSM    H2F12057   5.268   2.986  10.453  0.6399 -1.0169  0.0829
  115OSM    H2G12058   5.118   2.996  10.548 -0.1696 -0.3738  0.3236
  115OSM    C3F12059   5.106   2.859  10.366 -0.1541  0.3431 -0.1615
  115OSM    H3F12060   5.049   2.947  10.328  0.9323  1.0333 -0.2038
  115OSM    H3G12061   5.038   2.776  10.395  1.1542 -0.4344  0.7241
  115OSM    C4F12062   5.202   2.815  10.255  1.0787  0.3091  0.2830
  115OSM    H4F12063   5.261   2.727  10.288  0.1478 -0.9985 -1.4332
  115OSM    H4G12064   5.281   2.890  10.234 -0.3619  1.5928 -0.6970
  115OSM    C5F12065   5.129   2.795  10.123 -0.4571 -0.0046  0.1188
  115OSM    H5F12066   5.100   2.893  10.081 -0.6691  0.3927  1.1772
  115OSM    H5G12067   5.030   2.746  10.140  1.7763 -4.5258  0.9163
  115OSM    C6F12068   5.220   2.712  10.031  0.5168  0.6663 -0.2081
  115OSM    H6F12069   5.253   2.621  10.086  0.1538  1.3790  1.2301
  115OSM    H6G12070   5.314   2.764  10.001  0.2710  2.1671  1.5509
  115OSM    C7F12071   5.140   2.668   9.914  0.1717 -0.1470  0.5935
  115OSM    H7F12072   5.101   2.759   9.862 -1.4485 -1.8636 -1.2536
  115OSM    H7G12073   5.051   2.610   9.944 -0.9762  1.6913  0.8580
  115OSM    C8F12074   5.229   2.591   9.812  0.1592 -0.8192  0.3093
  115OSM    H8F12075   5.301   2.525   9.865 -1.2646 -2.3489  0.3700
  115OSM    H8G12076   5.288   2.663   9.751 -0.9641  0.4254  0.6546
  115OSM    C9F12077   5.143   2.507   9.719  0.4499 -0.6836  0.5196
  115OSM    H9F12078   5.089   2.419   9.757  0.1102 -1.3570 -1.4211
  115OSM   C10F12079   5.122   2.529   9.590 -0.1862 -0.2536 -0.4667
  115OSM   H10F12080   5.049   2.461   9.544 -1.3411 -0.2917  1.3749
  115OSM   C11F12081   5.184   2.627   9.497 -0.4278 -0.1423 -0.0053
  115OSM   H11F12082   5.272   2.677   9.542 -0.1555  1.9277 -2.7440
  115OSM   H11G12083   5.120   2.716   9.482  0.0883  0.6096  2.0740
  115OSM   C12F12084   5.212   2.574   9.359 -0.5186 -0.8512  0.1846
  115OSM   H12F12085   5.117   2.536   9.317  0.4335 -1.8947 -1.0747
  115OSM   H12G12086   5.280   2.486   9.362  1.1953  0.2870 -2.7467
  115OSM   C13F12087   5.259   2.688   9.269  0.1749  0.1035 -1.0398
  115OSM   H13F12088   5.355   2.721   9.315 -0.8213 -1.0557  2.0376
  115OSM   H13G12089   5.191   2.776   9.281  0.7169  0.8140 -3.0617
  115OSM   C14F12090   5.286   2.655   9.119  0.2510 -0.1413  0.2273
  115OSM   H14F12091   5.372   2.586   9.134  1.2184  0.8615 -0.6616
  115OSM   H14G12092   5.337   2.741   9.072  0.7318 -0.6617 -0.2138
  115OSM   C15F12093   5.171   2.583   9.054 -0.2235 -0.0365  1.1721
  115OSM   H15F12094   5.073   2.627   9.082 -0.7409 -0.1156 -0.4638
  115OSM   H15G12095   5.168   2.477   9.087 -0.4795  0.0818  1.5303
  115OSM   C16F12096   5.164   2.585   8.898  0.0031 -0.1957  0.1981
  115OSM   H16F12097   5.226   2.498   8.868 -1.2028 -1.1079  0.3118
  115OSM   H16G12098   5.216   2.674   8.857  1.5316 -1.0920  0.1872
  115OSM   C17F12099   5.020   2.557   8.845 -0.2006 -0.5722 -0.9140
  115OSM   H17F12100   4.957   2.643   8.877  1.9907  0.6723  0.2314
  115OSM   H17G12101   4.971   2.464   8.881 -0.6342 -0.2448 -0.6520
  115OSM   C18F12102   5.005   2.549   8.692 -0.1229 -0.0302  0.8492
  115OSM   H18F12103   5.092   2.491   8.653 -0.7276 -0.1235 -0.3690
  115OSM   H18G12104   5.006   2.649   8.643 -0.2974 -0.5666 -0.2573
  115OSM   H18H12105   4.910   2.501   8.662  0.8852 -1.3979 -0.2163
  116OSM      N12106   1.716   6.031  11.268  0.3860  0.7631  0.5176
  116OSM    C1512107   1.647   5.948  11.376  0.1212 -0.5653 -0.2944
  116OSM   H15A12108   1.689   5.848  11.383  0.8124 -0.2773 -0.2738
  116OSM   H15B12109   1.540   5.951  11.373  0.0862 -1.3467  0.0898
  116OSM   H15C12110   1.679   5.977  11.475  0.0680 -0.8099 -0.2037
  116OSM    C1412111   1.861   6.056  11.298 -0.1264  0.4834  0.3305
  116OSM   H14A12112   1.898   6.125  11.223 -2.1797  1.2644  0.0075
  116OSM   H14B12113   1.914   5.965  11.274  1.7583  1.3075  1.2281
  116OSM   H14C12114   1.879   6.094  11.397  1.1425 -4.2856  2.0446
  116OSM    C1312115   1.699   5.969  11.137  0.2913 -0.0511  0.0936
  116OSM   H13A12116   1.767   6.017  11.069 -0.9938 -1.3384 -2.1585
  116OSM   H13B12117   1.595   5.987  11.112  0.0855  0.8090  1.5007
  116OSM   H13C12118   1.721   5.865  11.124  0.5042  0.1404 -1.0922
  116OSM    C1212119   1.653   6.173  11.282 -0.5759  1.2540  0.2422
  116OSM   H12A12120   1.711   6.242  11.223  1.1362  0.5874  1.0964
  116OSM   H12B12121   1.664   6.212  11.382 -2.1305  1.0395  0.5056
  116OSM    C1112122   1.505   6.183  11.245  0.9435  0.3096  0.7275
  116OSM   H11A12123   1.458   6.275  11.285 -1.1509  0.0014 -0.9681
  116OSM   H11B12124   1.452   6.107  11.304 -0.7406  1.3577  0.5918
  116OSM      P12125   1.469   6.250  10.989  0.0755 -0.1881  0.1234
  116OSM    O1312126   1.386   6.191  10.879 -0.1815  0.5635  0.1208
  116OSM    O1412127   1.425   6.383  11.039 -0.9323  0.2442  0.0909
  116OSM    O1112128   1.610   6.261  10.939 -0.7863 -0.0484 -0.4430
  116OSM    O1212129   1.467   6.151  11.109  0.0164  0.3203 -0.4055
  116OSM    C1S12130   1.658   6.180  10.833 -0.3482  0.2345  0.5384
  116OSM    H1S12131   1.596   6.090  10.813 -0.0027  0.1127  0.0020
  116OSM    H1T12132   1.763   6.149  10.852  0.0252  0.0002 -1.7495
  116OSM     NF12133   1.699   6.171  10.593  0.1338 -0.3399  0.2147
  116OSM    HNF12134   1.795   6.152  10.576 -0.5294 -1.5455 -2.4376
  116OSM    C2S12135   1.656   6.260  10.693  0.8313  0.4560  0.2823
  116OSM    H2S12136   1.551   6.285  10.668  1.2620 -0.6425 -2.7884
  116OSM    C3S12137   1.738   6.389  10.698  0.0633 -0.9755  0.1839
  116OSM    H3S12138   1.843   6.364  10.723  1.1859 -0.9762 -4.1662
  116OSM     O312139   1.698   6.478  10.805 -0.5727 -0.5163  0.4593
  116OSM    HO312140   1.651   6.413  10.858 -0.4467 -1.1817 -0.2274
  116OSM    C4S12141   1.729   6.468  10.571 -0.2338  0.4293 -0.2068
  116OSM    H4S12142   1.628   6.469  10.527  0.5824  0.1618 -2.1018
  116OSM    C5S12143   1.836   6.531  10.518 -0.3907 -0.5056 -0.2125
  116OSM    H5S12144   1.935   6.523  10.565 -1.2566 -2.1592  1.4320
  116OSM    C6S12145   1.832   6.631  10.408  0.7802  0.4821  0.6468
  116OSM    H6S12146   1.923   6.629  10.345  0.5244  1.2281  0.2477
  116OSM    H6T12147   1.843   6.732  10.454 -1.5745  1.0225  0.0873
  116OSM    C7S12148   1.717   6.634  10.313 -0.0103  0.1024 -0.0013
  116OSM    H7S12149   1.616   6.659  10.351  0.3837 -0.0507  1.1541
  116OSM    H7T12150   1.709   6.531  10.272 -0.4998 -0.1432  0.7065
  116OSM    C8S12151   1.750   6.727  10.191  0.4051 -0.6038  0.4892
  116OSM    H8S12152   1.860   6.729  10.176  0.3415  1.6820  0.1536
  116OSM    H8T12153   1.702   6.826  10.208 -0.5798 -0.9420 -0.2407
  116OSM    C9S12154   1.692   6.667  10.058 -0.5750  0.3626  1.0322
  116OSM    H9S12155   1.581   6.660  10.067 -0.5897  0.1955  0.7203
  116OSM    H9T12156   1.731   6.563  10.051  1.0670  1.1089 -1.2291
  116OSM   C10S12157   1.733   6.750   9.929  0.3894  0.7656  0.3194
  116OSM   H10S12158   1.843   6.765   9.928  0.2993  1.4250 -0.0646
  116OSM   H10T12159   1.690   6.852   9.937  0.5519  0.8642 -0.0791
  116OSM   C11S12160   1.690   6.687   9.799 -0.0373 -0.9081 -0.5799
  116OSM   H11S12161   1.579   6.681   9.793 -0.3591  1.9382  1.1279
  116OSM   H11T12162   1.737   6.587   9.794 -1.3331 -1.5261 -0.7274
  116OSM   C12S12163   1.740   6.776   9.676  0.7504 -0.2220 -0.4872
  116OSM   H12S12164   1.851   6.785   9.679  0.6744  0.4703  0.9365
  116OSM   H12T12165   1.694   6.874   9.700 -1.1721 -1.5857  1.5652
  116OSM   C13S12166   1.691   6.727   9.540 -0.6556 -0.9168  1.0988
  116OSM   H13S12167   1.597   6.669   9.555 -2.9200  2.0050 -0.9882
  116OSM   H13T12168   1.767   6.657   9.500 -1.0948 -0.4796 -0.5615
  116OSM   C14S12169   1.669   6.840   9.438 -0.0591  0.0259  0.3579
  116OSM   H14S12170   1.754   6.910   9.449 -1.1352  1.0302  2.4878
  116OSM   H14T12171   1.581   6.898   9.472  0.1646  0.3518  0.3758
  116OSM   C15S12172   1.649   6.798   9.289 -0.6208  0.3360 -0.0690
  116OSM   H15S12173   1.726   6.722   9.262 -0.9030  0.1481 -0.3457
  116OSM   H15T12174   1.684   6.890   9.236  1.1418  0.4894  1.3242
  116OSM   C16S12175   1.499   6.767   9.255  0.1674 -0.8581 -0.2417
  116OSM   H16S12176   1.443   6.850   9.302  1.1286  0.2133 -0.9450
  116OSM   H16T12177   1.478   6.673   9.312 -0.3733 -2.0252 -2.3140
  116OSM   C17S12178   1.470   6.756   9.110 -0.5796  0.5120 -0.8652
  116OSM   H17S12179   1.478   6.860   9.074  0.2926  1.4102  1.8575
  116OSM   H17T12180   1.365   6.724   9.094  0.1522 -1.9940 -0.8705
  116OSM   C18S12181   1.549   6.655   9.023  0.0240  0.0577 -0.4906
  116OSM   H18S12182   1.550   6.561   9.082 -0.3070  0.5230  0.2603
  116OSM   H18T12183   1.658   6.673   9.017  0.0281 -0.4885 -2.5330
  116OSM   H18U12184   1.515   6.645   8.918 -1.5537 -0.5443  0.0514
  116OSM    C1F12185   1.621   6.074  10.544 -0.4602  0.2652  0.2474
  116OSM     OF12186   1.503   6.064  10.564  0.0187 -0.1364 -0.4636
  116OSM    C2F12187   1.694   5.979  10.455  0.2647 -0.8155  0.4528
  116OSM    H2F12188   1.711   5.887  10.516 -0.2391 -0.1297  1.6437
  116OSM    H2G12189   1.797   6.012  10.430  0.1651 -1.8522 -1.3666
  116OSM    C3F12190   1.629   5.933  10.325  0.0861 -0.6153  0.1841
  116OSM    H3F12191   1.643   6.019  10.257 -2.9383  1.8840  2.5482
  116OSM    H3G12192   1.521   5.919  10.346  0.1513  0.5163  1.3665
  116OSM    C4F12193   1.695   5.806  10.264  0.4870  0.1604  0.7898
  116OSM    H4F12194   1.666   5.720  10.327 -0.8746  0.5051  0.6532
  116OSM    H4G12195   1.805   5.798  10.270  0.4106 -1.1171  0.6269
  116OSM    C5F12196   1.641   5.784  10.124  0.6524 -0.1479 -0.8036
  116OSM    H5F12197   1.532   5.763  10.136  1.2751 -2.4987  1.0932
  116OSM    H5G12198   1.679   5.685  10.093  0.7764 -1.4477  3.1872
  116OSM    C6F12199   1.661   5.892  10.018 -0.3620  0.0145  0.3399
  116OSM    H6F12200   1.601   5.976  10.058 -1.4467  0.5984 -2.4117
  116OSM    H6G12201   1.621   5.867   9.917 -1.1834  3.7031 -0.3201
  116OSM    C7F12202   1.816   5.926   9.999 -0.0756  0.3567 -0.1581
  116OSM    H7F12203   1.859   5.838   9.947 -2.7299 -0.9171 -0.2431
  116OSM    H7G12204   1.856   5.941  10.101 -1.9526 -0.3569  0.7062
  116OSM    C8F12205   1.839   6.053   9.918  0.9361  0.4716  1.0161
  116OSM    H8F12206   1.789   6.133   9.976 -0.7456  1.3672 -1.5727
  116OSM    H8G12207   1.769   6.044   9.832  1.6103  0.7436  0.4336
  116OSM    C9F12208   1.974   6.074   9.866 -0.4166  0.0574  0.4904
  116OSM    H9F12209   2.054   6.060   9.941 -0.7361  1.2195  1.0711
  116OSM   C10F12210   2.014   6.089   9.736  0.2433 -0.5070 -0.6285
  116OSM   H10F12211   2.120   6.116   9.725 -0.5182  2.1844 -1.7793
  116OSM   C11F12212   1.935   6.098   9.610  0.1756 -0.2820 -0.1540
  116OSM   H11F12213   1.958   6.187   9.548  0.6483  1.0517  1.8795
  116OSM   H11G12214   1.827   6.105   9.637 -0.0300 -2.3963 -0.3543
  116OSM   C12F12215   1.945   5.975   9.519  0.4903 -0.0915 -0.6337
  116OSM   H12F12216   1.886   5.898   9.574  2.1082 -0.5819  0.4680
  116OSM   H12G12217   2.048   5.934   9.521  0.8082  0.7545  2.9200
  116OSM   C13F12218   1.901   5.988   9.381  0.2535  0.0188  0.3580
  116OSM   H13F12219   1.961   6.078   9.355 -0.5366  0.6679  0.7529
  116OSM   H13G12220   1.793   6.014   9.382  0.1444 -0.3801 -0.8590
  116OSM   C14F12221   1.920   5.861   9.305 -0.5601  0.2973  0.6139
  116OSM   H14F12222   1.858   5.778   9.346 -0.1414 -0.2019  0.2438
  116OSM   H14G12223   2.023   5.820   9.308  0.0939  1.9477  1.2166
  116OSM   C15F12224   1.894   5.874   9.151 -0.6359 -0.0091 -0.1027
  116OSM   H15F12225   1.969   5.939   9.103 -0.3771 -1.2927 -1.4590
  116OSM   H15G12226   1.795   5.923   9.134 -0.2090  0.5270 -1.0740
  116OSM   C16F12227   1.906   5.740   9.071 -0.1474 -0.1705  0.6267
  116OSM   H16F12228   1.827   5.669   9.103 -0.0656 -2.4840 -3.8438
  116OSM   H16G12229   1.999   5.693   9.110  0.6529  0.5870 -0.3435
  116OSM   C17F12230   1.905   5.747   8.920 -0.2665 -0.1227 -1.1437
  116OSM   H17F12231   1.957   5.840   8.888  1.0543  0.4313  2.4090
  116OSM   H17G12232   1.803   5.759   8.876 -0.7758 -0.8918 -0.2069
  116OSM   C18F12233   1.979   5.637   8.861 -0.4447 -0.0057 -0.3917
  116OSM   H18F12234   2.085   5.623   8.891 -1.3518 -3.1943  1.5670
  116OSM   H18G12235   1.965   5.648   8.751  0.6528  0.0859 -0.5307
  116OSM   H18H12236   1.925   5.545   8.891 -0.5067 -0.8332 -2.9242
  117OSM      N12237   6.114   0.336  11.337  0.3287 -0.0165  0.5750
  117OSM    C1512238   6.186   0.465  11.363 -0.0056 -0.0384 -0.3067
  117OSM   H15A12239   6.267   0.447  11.433 -0.8242  2.1429  1.2263
  117OSM   H15B12240   6.122   0.538  11.409 -1.0406  0.8104 -3.0580
  117OSM   H15C12241   6.234   0.505  11.275 -1.4856 -0.4847 -1.3263
  117OSM    C1412242   6.214   0.222  11.347 -0.7444  0.0660 -0.0724
  117OSM   H14A12243   6.271   0.220  11.439 -1.0672  1.3151  0.1675
  117OSM   H14B12244   6.278   0.231  11.261 -1.6535 -0.7111 -0.8400
  117OSM   H14C12245   6.171   0.123  11.346 -1.9960  0.5872  0.0662
  117OSM    C1312246   6.007   0.308  11.438 -0.3544  0.4701 -0.6665
  117OSM   H13A12247   5.934   0.234  11.407 -1.0821  0.4202  1.1276
  117OSM   H13B12248   5.952   0.397  11.463  0.9329  1.9175 -2.8496
  117OSM   H13C12249   6.051   0.282  11.533 -1.9435 -2.2149 -0.6024
  117OSM    C1212250   6.061   0.326  11.196  0.1470 -0.4230  0.4158
  117OSM   H12A12251   5.978   0.393  11.183  0.6387  0.1658  0.2957
  117OSM   H12B12252   6.014   0.231  11.175 -0.3214  0.4581 -2.6480
  117OSM    C1112253   6.162   0.356  11.081  0.6594  0.0988  0.0126
  117OSM   H11A12254   6.222   0.448  11.098 -1.5548  1.9425 -1.8906
  117OSM   H11B12255   6.095   0.381  10.996 -0.6824 -0.7852  0.7895
  117OSM      P12256   6.210   0.127  10.961  0.0411 -0.0401 -0.0956
  117OSM    O1312257   6.328   0.039  10.953 -0.1773  0.3722  0.1877
  117OSM    O1412258   6.089   0.071  11.026 -0.9180  0.7651  0.1557
  117OSM    O1112259   6.182   0.191  10.813 -0.7190 -0.6180  0.0077
  117OSM    O1212260   6.255   0.249  11.048  0.4847  0.1794 -0.4047
  117OSM    C1S12261   6.282   0.281  10.759 -0.1316  0.0702 -0.2576
  117OSM    H1S12262   6.381   0.271  10.807  0.0419  0.1350 -0.5978
  117OSM    H1T12263   6.243   0.383  10.782 -0.0753  0.3063 -1.1977
  117OSM     NF12264   6.409   0.351  10.570 -0.0723  0.3047  0.4367
  117OSM    HNF12265   6.403   0.441  10.528  3.9459  0.0475 -0.8749
  117OSM    C2S12266   6.283   0.282  10.611 -0.4976 -0.2165  0.2756
  117OSM    H2S12267   6.294   0.179  10.570  0.4227  0.0570 -0.1776
  117OSM    C3S12268   6.156   0.338  10.554 -0.3656  0.5725  0.5891
  117OSM    H3S12269   6.144   0.443  10.588  0.3368  1.0567 -0.6417
  117OSM     O312270   6.046   0.267  10.599 -0.2337  0.0666 -0.2085
  117OSM    HO312271   6.090   0.219  10.670  1.2650  0.4604 -0.8507
  117OSM    C4S12272   6.168   0.324  10.408  0.2832 -0.1324 -0.0781
  117OSM    H4S12273   6.230   0.411  10.379 -1.6157  0.6632 -1.8305
  117OSM    C5S12274   6.109   0.248  10.320 -0.2301 -0.1156  0.3358
  117OSM    H5S12275   6.019   0.194  10.353  0.1723 -2.1899 -1.7827
  117OSM    C6S12276   6.147   0.258  10.180  0.0746 -0.8024  0.9741
  117OSM    H6S12277   6.091   0.180  10.124 -3.7156  2.4824 -0.0314
  117OSM    H6T12278   6.253   0.231  10.164 -0.0597 -1.1371  0.6547
  117OSM    C7S12279   6.123   0.405  10.132 -0.5733 -0.1294  0.0907
  117OSM    H7S12280   6.167   0.483  10.197  0.3510 -0.6201  0.0690
  117OSM    H7T12281   6.018   0.440  10.123  0.1922  2.5297  1.0506
  117OSM    C8S12282   6.189   0.425   9.992  0.1028 -0.1997  1.1023
  117OSM    H8S12283   6.300   0.413   9.996 -0.1705 -2.9186  1.0057
  117OSM    H8T12284   6.170   0.528   9.955  1.9289  0.1132  0.9790
  117OSM    C9S12285   6.126   0.336   9.887  0.0461  0.3374  0.0005
  117OSM    H9S12286   6.015   0.346   9.891  0.1799  1.5983  0.9213
  117OSM    H9T12287   6.141   0.227   9.903  1.5096  0.4550 -0.4919
  117OSM   C10S12288   6.167   0.340   9.735  0.7874  0.5779  0.6297
  117OSM   H10S12289   6.264   0.287   9.734  0.2735 -0.4031  1.5743
  117OSM   H10T12290   6.178   0.444   9.696  2.7766  0.0069 -0.3332
  117OSM   C11S12291   6.065   0.262   9.650  0.5882 -1.1583  0.6361
  117OSM   H11S12292   5.968   0.314   9.659  0.8475 -0.4825 -0.3507
  117OSM   H11T12293   6.043   0.166   9.701  4.1439 -0.7463  3.1584
  117OSM   C12S12294   6.105   0.240   9.506 -0.2167 -0.0064  0.3646
  117OSM   H12S12295   6.212   0.213   9.504  0.0688  1.1904 -1.0880
  117OSM   H12T12296   6.096   0.329   9.440 -0.5692 -0.3435 -0.0487
  117OSM   C13S12297   6.051   0.114   9.435 -0.2594  0.8546  0.0944
  117OSM   H13S12298   5.940   0.118   9.437 -0.3112 -0.3920 -0.1694
  117OSM   H13T12299   6.078   0.027   9.499  0.2264 -0.4937 -1.8883
  117OSM   C14S12300   6.092   0.113   9.282  0.2187  0.4996  0.3318
  117OSM   H14S12301   6.202   0.123   9.274  0.0463  3.0684  0.7226
  117OSM   H14T12302   6.059   0.209   9.237  2.7137  1.9397  1.4773
  117OSM   C15S12303   6.032  -0.011   9.210 -0.3915 -0.0557 -0.9814
  117OSM   H15S12304   5.923   0.012   9.208 -0.6412 -0.8044  1.5210
  117OSM   H15T12305   6.045  -0.098   9.278  0.0799 -0.9443 -2.1991
  117OSM   C16S12306   6.095  -0.033   9.078  0.0388 -0.1708 -0.0457
  117OSM   H16S12307   6.203  -0.012   9.087  0.2213 -1.5547  1.1448
  117OSM   H16T12308   6.053   0.034   9.000  1.4858  0.6423 -0.1367
  117OSM   C17S12309   6.074  -0.180   9.028 -0.0975  0.0903 -0.5926
  117OSM   H17S12310   6.090  -0.191   8.918 -0.9744 -0.2843 -0.6873
  117OSM   H17T12311   5.974  -0.229   9.027  0.5657 -1.3048 -0.8331
  117OSM   C18S12312   6.177  -0.280   9.085 -0.0173  0.2261 -0.1908
  117OSM   H18S12313   6.274  -0.227   9.090  0.3489 -0.5849  2.5033
  117OSM   H18T12314   6.188  -0.373   9.026 -0.0499  0.0131  0.1316
  117OSM   H18U12315   6.135  -0.297   9.187  1.6753  0.8161  0.6095
  117OSM    C1F12316   6.534   0.303  10.597 -0.0426  0.2569 -0.5749
  117OSM     OF12317   6.552   0.189  10.640  0.3753  0.1143  0.0231
  117OSM    C2F12318   6.646   0.399  10.550  0.1501 -0.9740 -0.7672
  117OSM    H2F12319   6.695   0.449  10.636  1.2368 -1.7478 -0.9325
  117OSM    H2G12320   6.596   0.471  10.481  0.9222  1.5467  1.2462
  117OSM    C3F12321   6.757   0.329  10.475  0.3146 -0.1134  0.2650
  117OSM    H3F12322   6.795   0.237  10.523 -0.3424 -1.5970 -1.9909
  117OSM    H3G12323   6.846   0.394  10.462  1.9304 -2.1059  1.3130
  117OSM    C4F12324   6.721   0.288  10.333 -0.9715  0.4625 -0.0439
  117OSM    H4F12325   6.626   0.235  10.358 -0.6302 -0.8955 -1.5487
  117OSM    H4G12326   6.786   0.203  10.302 -0.9241 -0.2717  1.9454
  117OSM    C5F12327   6.714   0.407  10.229  0.0240  0.0570 -0.5789
  117OSM    H5F12328   6.803   0.473  10.232 -0.0698  0.1173  1.7887
  117OSM    H5G12329   6.635   0.478  10.263  0.6802  1.0340 -1.0681
  117OSM    C6F12330   6.690   0.348  10.094  0.6134  0.7139  0.3824
  117OSM    H6F12331   6.590   0.299  10.104  1.4773 -1.0678  0.3697
  117OSM    H6G12332   6.774   0.284  10.059  1.5927  2.8131 -1.1808
  117OSM    C7F12333   6.680   0.455   9.986 -0.1251 -0.4150  0.5870
  117OSM    H7F12334   6.779   0.504   9.975 -0.3870  0.8449  3.3747
  117OSM    H7G12335   6.606   0.534  10.012 -1.5225 -0.9831 -1.4955
  117OSM    C8F12336   6.654   0.392   9.852  0.3973 -0.0189  0.5925
  117OSM    H8F12337   6.550   0.352   9.852  0.5515 -0.4447 -1.3959
  117OSM    H8G12338   6.721   0.305   9.838  1.1388  0.7161 -0.4875
  117OSM    C9F12339   6.682   0.482   9.733 -1.5142 -0.2782  0.7139
  117OSM    H9F12340   6.785   0.518   9.719 -1.4575 -1.5852 -2.8091
  117OSM   C10F12341   6.610   0.517   9.626  0.9119  0.2977  0.7358
  117OSM   H10F12342   6.650   0.582   9.547 -0.7290  1.1506  0.6102
  117OSM   C11F12343   6.464   0.473   9.602  0.7446  0.4241 -0.2651
  117OSM   H11F12344   6.404   0.548   9.657 -0.3752 -0.9397  0.4157
  117OSM   H11G12345   6.439   0.373   9.643  2.2265 -0.5761 -1.7069
  117OSM   C12F12346   6.415   0.473   9.457 -0.5605  0.4864  0.3494
  117OSM   H12F12347   6.426   0.577   9.419  2.1532  0.0316 -0.2204
  117OSM   H12G12348   6.309   0.448   9.438 -0.1329 -1.7960  0.8555
  117OSM   C13F12349   6.498   0.386   9.369 -0.1399  0.7339 -0.3105
  117OSM   H13F12350   6.493   0.283   9.410 -3.3716  2.0833  2.8813
  117OSM   H13G12351   6.603   0.422   9.362 -0.3926  1.2946 -1.3486
  117OSM   C14F12352   6.439   0.375   9.226 -0.5481  0.1201  0.1691
  117OSM   H14F12353   6.341   0.322   9.220  0.4686 -2.1659  2.6911
  117OSM   H14G12354   6.503   0.304   9.170  1.6516  0.1607  2.5641
  117OSM   C15F12355   6.448   0.506   9.146  0.3287 -0.4254 -0.5533
  117OSM   H15F12356   6.547   0.554   9.161 -0.0016  0.1151 -0.0875
  117OSM   H15G12357   6.371   0.581   9.171 -0.4400 -1.1931 -0.6084
  117OSM   C16F12358   6.441   0.485   8.989 -0.4638  0.1121  0.1835
  117OSM   H16F12359   6.518   0.407   8.974  0.2015  0.6320  0.8330
  117OSM   H16G12360   6.477   0.578   8.939 -2.5748  0.5835 -0.5108
  117OSM   C17F12361   6.311   0.447   8.926 -0.6468 -0.5165 -1.0904
  117OSM   H17F12362   6.246   0.537   8.927 -2.9012 -2.0609  2.5288
  117OSM   H17G12363   6.257   0.376   8.992 -1.1500  0.1844 -0.7443
  117OSM   C18F12364   6.337   0.374   8.798  0.7677 -0.3090  0.3463
  117OSM   H18F12365   6.407   0.288   8.810  1.7584  0.3745 -0.4016
  117OSM   H18G12366   6.393   0.441   8.729 -1.7463  1.1397 -0.3345
  117OSM   H18H12367   6.243   0.329   8.758  0.4090  0.5490  0.2127
  118OSM      N12368   0.422   1.935  11.145 -0.0494  0.3479 -0.7882
  118OSM    C1512369   0.282   1.947  11.075 -0.1965  0.3038  0.2869
  118OSM   H15A12370   0.231   1.852  11.079  0.7454 -0.2712 -1.0781
  118OSM   H15B12371   0.291   1.968  10.969 -3.4386 -3.8235 -0.9385
  118OSM   H15C12372   0.221   2.023  11.123 -0.4100  0.2673  0.0752
  118OSM    C1412373   0.512   2.042  11.087 -0.3039 -0.8999  0.1181
  118OSM   H14A12374   0.460   2.137  11.082  0.1488 -0.6651 -0.1669
  118OSM   H14B12375   0.546   2.017  10.987  1.4987 -0.5802  0.6331
  118OSM   H14C12376   0.606   2.056  11.138 -0.0249  2.6182 -1.1716
  118OSM    C1312377   0.411   1.964  11.295 -0.6463 -0.4915  0.4337
  118OSM   H13A12378   0.389   2.069  11.304  0.2552 -0.5305  3.8779
  118OSM   H13B12379   0.508   1.946  11.340 -0.2635  1.3889  0.4254
  118OSM   H13C12380   0.340   1.901  11.347 -0.6784 -0.3302  0.5859
  118OSM    C1212381   0.465   1.792  11.116 -0.4832 -0.2793  0.0504
  118OSM   H12A12382   0.564   1.781  11.158 -0.0789  0.0974 -0.7879
  118OSM   H12B12383   0.473   1.771  11.010  0.3518  0.3519 -0.0208
  118OSM    C1112384   0.368   1.676  11.163  0.7273 -0.2090 -0.4770
  118OSM   H11A12385   0.330   1.709  11.261  1.0021  1.7748 -1.0086
  118OSM   H11B12386   0.434   1.587  11.172 -1.0208 -1.2870  1.9173
  118OSM      P12387   0.141   1.564  11.051 -0.3860  0.2691  0.4151
  118OSM    O1312388   0.173   1.469  10.937 -0.0952  0.5580  0.0941
  118OSM    O1412389   0.105   1.499  11.179  0.1227  0.5478 -0.0661
  118OSM    O1112390   0.029   1.669  11.021 -0.2465  0.4617  0.1195
  118OSM    O1212391   0.266   1.660  11.065 -0.1012  0.4938 -0.2041
  118OSM    C1S12392   0.023   1.736  10.894  0.1843 -0.0336 -0.0076
  118OSM    H1S12393   0.117   1.739  10.836 -0.4078  0.3931 -0.9540
  118OSM    H1T12394  -0.001   1.844  10.905 -0.8885 -0.1621 -0.9130
  118OSM     NF12395  -0.070   1.732  10.664 -0.3363  0.1153 -0.5647
  118OSM    HNF12396  -0.142   1.797  10.644  0.9088  2.1817  1.4916
  118OSM    C2S12397  -0.079   1.670  10.792 -0.4134  0.2669  0.7684
  118OSM    H2S12398  -0.053   1.562  10.789  0.4029  0.4465  1.2913
  118OSM    C3S12399  -0.226   1.663  10.853 -0.7074 -0.2832 -0.4885
  118OSM    H3S12400  -0.258   1.768  10.871 -0.6392 -0.1051 -1.3623
  118OSM     O312401  -0.233   1.603  10.981 -0.2694 -0.1373 -0.2761
  118OSM    HO312402  -0.146   1.610  11.022  0.0659 -3.3116 -0.3797
  118OSM    C4S12403  -0.317   1.600  10.747  0.1011 -0.2969 -0.7144
  118OSM    H4S12404  -0.272   1.524  10.681  1.0016 -1.6301  1.3662
  118OSM    C5S12405  -0.439   1.632  10.717  0.1963  0.2376  0.0540
  118OSM    H5S12406  -0.482   1.720  10.766  1.1709  0.8682 -0.2151
  118OSM    C6S12407  -0.521   1.563  10.611  0.3752  0.4251  0.3539
  118OSM    H6S12408  -0.619   1.614  10.602  0.9701  1.1673 -2.4019
  118OSM    H6T12409  -0.535   1.460  10.650 -3.6915  0.4412 -0.8094
  118OSM    C7S12410  -0.453   1.544  10.471  0.2018  0.0366 -0.0488
  118OSM    H7S12411  -0.525   1.498  10.400 -1.4692  1.6931  0.5072
  118OSM    H7T12412  -0.372   1.472  10.491 -0.4806 -0.6602  0.2314
  118OSM    C8S12413  -0.420   1.686  10.407  0.4371  0.4078 -0.4424
  118OSM    H8S12414  -0.342   1.737  10.466 -0.5155 -0.1726  1.3707
  118OSM    H8T12415  -0.514   1.745  10.413  0.4417  0.2535  1.6163
  118OSM    C9S12416  -0.363   1.687  10.264 -0.5379  0.1898  0.0289
  118OSM    H9S12417  -0.430   1.630  10.195  1.2663 -0.2394 -1.4069
  118OSM    H9T12418  -0.263   1.640  10.275 -0.8304 -0.0499  1.7989
  118OSM   C10S12419  -0.349   1.822  10.201  0.9119 -0.0093 -0.2218
  118OSM   H10S12420  -0.269   1.875  10.258  1.0178 -0.6698  0.2406
  118OSM   H10T12421  -0.452   1.862  10.216 -0.0146 -1.9121 -1.4368
  118OSM   C11S12422  -0.321   1.824  10.058  0.1967  0.2545  0.2173
  118OSM   H11S12423  -0.402   1.773  10.002  1.8137 -1.4226 -0.6511
  118OSM   H11T12424  -0.230   1.762  10.046 -0.3703 -0.6285  0.3626
  118OSM   C12S12425  -0.296   1.966   9.994 -0.0106 -0.3147 -0.3418
  118OSM   H12S12426  -0.191   2.000  10.011  0.3506  0.6055 -4.0104
  118OSM   H12T12427  -0.362   2.027  10.058  1.1486  0.3929  0.1872
  118OSM   C13S12428  -0.340   1.966   9.851 -0.0409 -0.4119  1.2441
  118OSM   H13S12429  -0.347   2.070   9.815  0.6472  0.3027  3.1223
  118OSM   H13T12430  -0.445   1.928   9.846 -1.6361  3.9088  0.1300
  118OSM   C14S12431  -0.236   1.893   9.753 -0.3007 -0.1482 -1.2961
  118OSM   H14S12432  -0.190   1.800   9.793 -0.8734 -0.2406 -0.8456
  118OSM   H14T12433  -0.152   1.963   9.734  0.9829 -0.9108  1.2827
  118OSM   C15S12434  -0.302   1.878   9.618  0.2547  0.2324  0.5452
  118OSM   H15S12435  -0.332   1.980   9.588  0.6378  1.0592  2.8257
  118OSM   H15T12436  -0.392   1.816   9.636  1.8192 -2.5502 -0.9398
  118OSM   C16S12437  -0.216   1.812   9.509  0.5662 -0.5948 -0.6942
  118OSM   H16S12438  -0.200   1.710   9.548 -0.0604  0.0822  1.4148
  118OSM   H16T12439  -0.121   1.869   9.503  0.2122  0.1717  0.7668
  118OSM   C17S12440  -0.286   1.807   9.366 -0.6407 -0.9932 -0.3114
  118OSM   H17S12441  -0.393   1.778   9.375 -1.2603  0.9123 -1.1814
  118OSM   H17T12442  -0.226   1.737   9.304  2.4411  1.0600  0.2448
  118OSM   C18S12443  -0.279   1.947   9.291 -0.0244 -0.3108 -0.0507
  118OSM   H18S12444  -0.347   2.028   9.328  0.3829  0.7378 -1.5514
  118OSM   H18T12445  -0.309   1.928   9.186 -0.4805 -1.2137  0.2349
  118OSM   H18U12446  -0.173   1.976   9.278 -0.9839  3.1537 -0.8469
  118OSM    C1F12447   0.025   1.719  10.579 -0.2547  0.2493  0.2224
  118OSM     OF12448   0.117   1.648  10.609 -0.2542 -0.0961 -0.1242
  118OSM    C2F12449   0.021   1.791  10.453 -0.3301  0.0142  0.6320
  118OSM    H2F12450   0.059   1.894  10.471  1.8744 -0.9020  1.2943
  118OSM    H2G12451  -0.080   1.806  10.409 -1.8255 -0.1724  3.8699
  118OSM    C3F12452   0.109   1.732  10.346 -0.2248 -0.1518  0.6126
  118OSM    H3F12453   0.100   1.621  10.333 -0.9364  0.2050 -2.5107
  118OSM    H3G12454   0.215   1.757  10.370  0.1059 -1.2930  0.4254
  118OSM    C4F12455   0.078   1.790  10.200 -0.0124  0.0278 -0.0489
  118OSM    H4F12456   0.097   1.899  10.209  0.1908  0.1931 -2.2890
  118OSM    H4G12457  -0.031   1.787  10.177 -0.2124 -0.6106  0.9255
  118OSM    C5F12458   0.173   1.732  10.089 -0.2349  0.4139 -0.5891
  118OSM    H5F12459   0.133   1.631  10.070 -0.3774  0.0413  1.5619
  118OSM    H5G12460   0.275   1.732  10.133 -1.4181 -2.2098  2.3395
  118OSM    C6F12461   0.168   1.815   9.961  0.4872  0.2361 -0.1622
  118OSM    H6F12462   0.196   1.914  10.002  1.9471 -1.0135  1.9809
  118OSM    H6G12463   0.063   1.808   9.923  0.0835 -1.0266  1.1397
  118OSM    C7F12464   0.265   1.770   9.857  0.2363 -0.1028  0.6984
  118OSM    H7F12465   0.267   1.659   9.850  1.9524 -0.0846  0.7221
  118OSM    H7G12466   0.363   1.800   9.899  0.3084  0.9111 -0.1861
  118OSM    C8F12467   0.241   1.817   9.706 -0.3437 -0.1666 -0.0304
  118OSM    H8F12468   0.331   1.787   9.648 -0.8680  1.1551 -1.5654
  118OSM    H8G12469   0.233   1.927   9.716  1.9542 -0.1631  2.3571
  118OSM    C9F12470   0.120   1.753   9.641 -0.2659 -0.1878  0.0607
  118OSM    H9F12471   0.030   1.767   9.702  1.8988  0.3198  3.3087
  118OSM   C10F12472   0.118   1.680   9.526  0.0568 -0.5370 -0.0619
  118OSM   H10F12473   0.020   1.637   9.499 -1.1999  1.7029  0.7851
  118OSM   C11F12474   0.241   1.658   9.441 -0.2151 -0.0436 -0.6020
  118OSM   H11F12475   0.230   1.569   9.375  1.1589 -1.6906  1.3260
  118OSM   H11G12476   0.331   1.635   9.502  2.0693 -0.0105 -3.7996
  118OSM   C12F12477   0.278   1.782   9.359  0.4396  0.9716  0.4951
  118OSM   H12F12478   0.375   1.756   9.311 -1.5186 -1.8306 -2.1714
  118OSM   H12G12479   0.297   1.862   9.433 -0.6018  0.0598  1.7640
  118OSM   C13F12480   0.180   1.835   9.255 -0.0846  0.2280  0.8270
  118OSM   H13F12481   0.218   1.922   9.197  0.4330 -1.1026 -0.8726
  118OSM   H13G12482   0.095   1.867   9.319 -1.0746 -0.9845  0.1373
  118OSM   C14F12483   0.131   1.736   9.147 -0.1960 -0.1247  0.5986
  118OSM   H14F12484   0.034   1.781   9.118  0.7755  1.2294 -0.6232
  118OSM   H14G12485   0.113   1.640   9.200 -1.0383 -1.4838 -2.0603
  118OSM   C15F12486   0.226   1.700   9.030 -0.2673 -0.2611 -0.0886
  118OSM   H15F12487   0.317   1.655   9.074 -0.3806  0.4800  0.9322
  118OSM   H15G12488   0.246   1.788   8.965  0.2566  1.1086  1.9051
  118OSM   C16F12489   0.164   1.598   8.939  0.0171  0.4833 -0.4750
  118OSM   H16F12490   0.082   1.649   8.884  0.9446  2.4348 -0.0857
  118OSM   H16G12491   0.118   1.511   8.991 -0.9608  1.5834  0.5418
  118OSM   C17F12492   0.274   1.556   8.832 -0.3364 -0.3194  0.4248
  118OSM   H17F12493   0.240   1.471   8.768  2.8215 -2.4744  1.5060
  118OSM   H17G12494   0.368   1.535   8.888  1.3769 -1.6708 -2.7662
  118OSM   C18F12495   0.307   1.663   8.721 -0.0863 -0.1693 -0.2676
  118OSM   H18F12496   0.370   1.737   8.773  0.2496 -0.9595  0.4607
  118OSM   H18G12497   0.211   1.708   8.685  0.1595 -0.6552 -1.5876
  118OSM   H18H12498   0.364   1.610   8.642  1.7568  0.2706  0.7568
  119OSM      N12499   0.419   0.904  11.307 -0.6288 -0.1570 -0.5738
  119OSM    C1512500   0.415   0.775  11.387 -0.3803 -0.5491 -0.3526
  119OSM   H15A12501   0.321   0.727  11.363 -0.9006  0.6358 -0.7217
  119OSM   H15B12502   0.430   0.782  11.493 -3.7393 -1.4449  0.2521
  119OSM   H15C12503   0.493   0.707  11.358 -0.9460 -1.3246 -0.0816
  119OSM    C1412504   0.308   0.990  11.357 -0.6501 -0.0868  0.2598
  119OSM   H14A12505   0.294   1.084  11.305 -1.1696  0.1967  0.9072
  119OSM   H14B12506   0.322   1.009  11.462 -1.1613  0.2978  0.2629
  119OSM   H14C12507   0.217   0.932  11.364  0.7684 -2.4278  0.0178
  119OSM    C1312508   0.550   0.967  11.340  0.0902 -0.3646  0.1737
  119OSM   H13A12509   0.630   0.906  11.303  1.0445  0.7420  0.3996
  119OSM   H13B12510   0.559   0.986  11.446  0.5296 -0.8016  0.2128
  119OSM   H13C12511   0.556   1.064  11.293 -0.0673  0.8557  2.5713
  119OSM    C1212512   0.416   0.886  11.152  0.9325 -0.2392  0.4446
  119OSM   H12A12513   0.498   0.823  11.120 -0.9820 -2.2647 -0.6266
  119OSM   H12B12514   0.420   0.987  11.113 -2.5880  0.9849  3.0153
  119OSM    C1112515   0.282   0.830  11.100 -0.1441 -0.5093 -0.6688
  119OSM   H11A12516   0.293   0.818  10.990 -1.2168  1.5553 -1.0284
  119OSM   H11B12517   0.198   0.903  11.099  1.2718  1.1528  0.5793
  119OSM      P12518   0.305   0.573  11.103  0.7662  0.2659  0.4190
  119OSM    O1312519   0.454   0.580  11.102 -0.3224  0.1178 -0.2180
  119OSM    O1412520   0.242   0.459  11.170  0.2953 -0.0696 -0.3090
  119OSM    O1112521   0.243   0.579  10.959  0.2145  0.3616  0.4518
  119OSM    O1212522   0.239   0.708  11.156 -0.1166 -0.2197 -0.0873
  119OSM    C1S12523   0.321   0.522  10.850  0.1184 -0.3393 -0.2554
  119OSM    H1S12524   0.346   0.415  10.864 -1.4093 -0.7270 -0.4337
  119OSM    H1T12525   0.419   0.572  10.834 -1.0177  1.6206 -1.3284
  119OSM     NF12526   0.318   0.476  10.617  0.1954  0.4833  0.4963
  119OSM    HNF12527   0.375   0.534  10.560  0.8844  0.1437  0.8276
  119OSM    C2S12528   0.246   0.539  10.716  0.0184  0.2998  0.3860
  119OSM    H2S12529   0.148   0.487  10.721  0.2248  0.0131  1.6149
  119OSM    C3S12530   0.213   0.692  10.685 -0.6390  0.5449 -0.8248
  119OSM    H3S12531   0.300   0.755  10.655 -2.7495  4.3887  0.7536
  119OSM     O312532   0.151   0.755  10.798 -0.5743 -0.3585  0.0299
  119OSM    HO312533   0.168   0.703  10.877 -1.7156 -1.8212 -0.6579
  119OSM    C4S12534   0.120   0.696  10.569  0.4582 -0.3431  0.2052
  119OSM    H4S12535   0.155   0.642  10.480  0.9631  0.1440  0.1067
  119OSM    C5S12536   0.010   0.777  10.549  0.3342 -0.0620  0.9105
  119OSM    H5S12537  -0.034   0.829  10.636 -1.8863 -0.2919 -0.0565
  119OSM    C6S12538  -0.064   0.766  10.422  0.3737  0.3918  0.5372
  119OSM    H6S12539  -0.142   0.843  10.403 -1.2163 -0.7146  2.3479
  119OSM    H6T12540  -0.129   0.676  10.427  1.8800 -0.7031  0.9109
  119OSM    C7S12541   0.017   0.742  10.292 -0.2581  0.2335  0.2896
  119OSM    H7S12542  -0.063   0.723  10.217  0.1381  0.8822 -0.2969
  119OSM    H7T12543   0.084   0.653  10.299  0.1858  0.5664  0.2851
  119OSM    C8S12544   0.090   0.861  10.247 -0.4034  0.1518  0.7918
  119OSM    H8S12545   0.154   0.896  10.331  1.6757  0.1630 -0.7224
  119OSM    H8T12546   0.022   0.947  10.226  1.0253  1.8464  2.7961
  119OSM    C9S12547   0.193   0.829  10.128 -1.0395 -0.1735  0.3105
  119OSM    H9S12548   0.274   0.759  10.158 -3.5868 -2.4156  2.1673
  119OSM    H9T12549   0.243   0.927  10.110  0.4314 -0.8194  0.8080
  119OSM   C10S12550   0.120   0.774  10.002 -0.1877 -0.5198 -0.4694
  119OSM   H10S12551   0.021   0.821   9.985 -0.1323 -0.0731  0.3861
  119OSM   H10T12552   0.108   0.668  10.032 -0.2618 -0.2912  0.3184
  119OSM   C11S12553   0.221   0.799   9.885  0.3734 -0.6305 -0.1023
  119OSM   H11S12554   0.315   0.746   9.911  0.0264 -0.6939  1.0564
  119OSM   H11T12555   0.235   0.909   9.878 -1.6096 -0.4824 -2.3443
  119OSM   C12S12556   0.180   0.732   9.754  0.4117 -0.5021  0.0767
  119OSM   H12S12557   0.105   0.794   9.700  1.2335 -0.8513 -1.5220
  119OSM   H12T12558   0.134   0.634   9.776 -1.5941  0.1108 -1.1488
  119OSM   C13S12559   0.309   0.709   9.671  0.0446  0.0064  0.9365
  119OSM   H13S12560   0.392   0.662   9.728 -0.9586  0.0106  2.3973
  119OSM   H13T12561   0.347   0.812   9.653 -0.5343  0.1420  0.4546
  119OSM   C14S12562   0.274   0.626   9.544  0.7431  0.1778 -0.3553
  119OSM   H14S12563   0.249   0.523   9.576  0.0150  1.1140  2.2495
  119OSM   H14T12564   0.364   0.634   9.479 -0.2177  3.0132 -1.4469
  119OSM   C15S12565   0.167   0.692   9.455 -0.1416 -0.1310 -0.5367
  119OSM   H15S12566   0.171   0.802   9.468 -2.0490  0.3312 -3.3581
  119OSM   H15T12567   0.071   0.663   9.502 -0.3863  1.5172 -0.0143
  119OSM   C16S12568   0.159   0.660   9.305  0.0435  0.0142  0.5587
  119OSM   H16S12569   0.081   0.723   9.259 -0.0690 -0.3776  0.2095
  119OSM   H16T12570   0.120   0.557   9.291 -1.0501  0.7276 -1.9589
  119OSM   C17S12571   0.287   0.674   9.226  0.0632  0.2956  0.1002
  119OSM   H17S12572   0.372   0.616   9.268 -0.5516 -0.6092  0.1032
  119OSM   H17T12573   0.311   0.783   9.229 -0.7977  0.5196 -0.7575
  119OSM   C18S12574   0.278   0.625   9.074  0.3062 -0.0696  0.6004
  119OSM   H18S12575   0.379   0.632   9.029 -0.3285  2.8913 -0.5019
  119OSM   H18T12576   0.207   0.691   9.019 -0.1815 -0.2485  1.0075
  119OSM   H18U12577   0.237   0.522   9.074 -0.6745  0.2619 -2.3529
  119OSM    C1F12578   0.348   0.347  10.615  0.2117  0.4646 -0.1047
  119OSM     OF12579   0.287   0.265  10.684  0.7166  0.2019  0.0263
  119OSM    C2F12580   0.476   0.303  10.532 -0.4764  0.4600  0.3594
  119OSM    H2F12581   0.550   0.285  10.612  0.3049  0.9878 -0.2356
  119OSM    H2G12582   0.504   0.385  10.462  1.7327  1.1716  2.0270
  119OSM    C3F12583   0.447   0.173  10.452 -0.5995 -0.3025 -0.2693
  119OSM    H3F12584   0.400   0.092  10.511  0.2744 -1.0289 -0.5651
  119OSM    H3G12585   0.548   0.145  10.417  0.4477  2.0151  0.8016
  119OSM    C4F12586   0.352   0.192  10.328  0.4588  0.0589 -0.1000
  119OSM    H4F12587   0.248   0.225  10.349  0.2317  1.0858 -2.7439
  119OSM    H4G12588   0.337   0.097  10.272  1.3989 -0.0469 -0.1903
  119OSM    C5F12589   0.401   0.291  10.228  0.2928 -0.5372  0.2407
  119OSM    H5F12590   0.510   0.313  10.235 -0.1888  1.4456  2.3252
  119OSM    H5G12591   0.348   0.388  10.242  0.1059 -0.3294 -1.7335
  119OSM    C6F12592   0.370   0.243  10.087  0.1493  0.4271 -0.0498
  119OSM    H6F12593   0.267   0.203  10.098  0.0800  0.3185 -1.0651
  119OSM    H6G12594   0.440   0.160  10.064  0.7172  1.0480 -0.5880
  119OSM    C7F12595   0.372   0.343   9.974 -0.2505  0.3849  0.7220
  119OSM    H7F12596   0.475   0.383   9.961  0.3708 -0.6711  2.1557
  119OSM    H7G12597   0.315   0.431  10.010  1.2369  2.0277 -0.8190
  119OSM    C8F12598   0.307   0.276   9.846  0.1927  0.5550  0.2507
  119OSM    H8F12599   0.261   0.354   9.782  0.2123  1.1103  0.9085
  119OSM    H8G12600   0.229   0.204   9.879  0.3525 -1.3580 -3.3631
  119OSM    C9F12601   0.403   0.183   9.782 -0.1145  0.1363  0.5643
  119OSM    H9F12602   0.499   0.176   9.837  0.9096 -0.9899 -1.2983
  119OSM   C10F12603   0.383   0.117   9.669  0.6569 -0.4318 -0.2968
  119OSM   H10F12604   0.469   0.054   9.642  0.9743 -1.0351  1.9422
  119OSM   C11F12605   0.259   0.132   9.587  0.3417 -0.6233 -0.5864
  119OSM   H11F12606   0.188   0.212   9.619  1.4659 -0.0690  0.5231
  119OSM   H11G12607   0.203   0.038   9.605  0.0787 -0.2582  0.5296
  119OSM   C12F12608   0.286   0.151   9.443  0.0361 -0.5766  0.2716
  119OSM   H12F12609   0.347   0.068   9.402  0.6762  1.7926 -3.8555
  119OSM   H12G12610   0.339   0.246   9.422 -0.8271 -0.5106 -1.7555
  119OSM   C13F12611   0.159   0.137   9.359 -0.7733 -0.1933  0.0434
  119OSM   H13F12612   0.070   0.178   9.412 -0.2656 -1.8388  2.2533
  119OSM   H13G12613   0.128   0.031   9.343 -1.7850  0.2129 -0.7878
  119OSM   C14F12614   0.151   0.200   9.215 -0.4644 -0.9303 -0.5587
  119OSM   H14F12615   0.171   0.309   9.221  0.0977 -1.0504 -0.2591
  119OSM   H14G12616   0.045   0.196   9.181 -0.7246 -1.1531  0.2538
  119OSM   C15F12617   0.240   0.122   9.115  0.5819  0.6247  0.3158
  119OSM   H15F12618   0.229   0.011   9.117  0.4027  0.6344 -0.0941
  119OSM   H15G12619   0.346   0.128   9.150  0.8978 -0.9386 -0.2896
  119OSM   C16F12620   0.235   0.175   8.973  0.4180  0.1324  0.3187
  119OSM   H16F12621   0.237   0.286   8.986  3.9072  0.2488 -0.9045
  119OSM   H16G12622   0.135   0.146   8.935 -1.1006  3.2113  1.7659
  119OSM   C17F12623   0.347   0.118   8.893  0.2228  0.3988  0.0668
  119OSM   H17F12624   0.319   0.118   8.785  0.0264 -0.7788  0.1222
  119OSM   H17G12625   0.367   0.012   8.918  1.3576  0.3010 -1.1688
  119OSM   C18F12626   0.472   0.210   8.901  0.3905  0.5184  0.2510
  119OSM   H18F12627   0.522   0.220   8.999 -1.5337 -3.2589  1.6834
  119OSM   H18G12628   0.453   0.316   8.873  0.1579  0.5867  0.6643
  119OSM   H18H12629   0.559   0.170   8.845  2.0169  2.1991  1.5071
  120OSM      N12630   0.132   3.989  10.860  0.4369 -0.1116  0.3734
  120OSM    C1512631   0.223   3.969  10.981  0.1902 -0.1896 -0.1613
  120OSM   H15A12632   0.190   4.030  11.063 -1.4133  0.2673 -1.1443
  120OSM   H15B12633   0.328   3.976  10.954 -0.3893  0.4566 -2.3621
  120OSM   H15C12634   0.215   3.868  11.020  0.7061 -0.1435  0.0640
  120OSM    C1412635  -0.009   3.959  10.892 -0.1494 -0.5027  0.0727
  120OSM   H14A12636  -0.069   3.977  10.803 -1.6748 -0.1818  1.1486
  120OSM   H14B12637  -0.043   4.026  10.970 -0.2756  1.0262 -1.2447
  120OSM   H14C12638  -0.018   3.857  10.925  3.5692 -0.6649  0.7835
  120OSM    C1312639   0.153   4.134  10.812 -0.4889 -0.3875 -0.2000
  120OSM   H13A12640   0.123   4.155  10.710  2.1405 -1.5121 -1.2488
  120OSM   H13B12641   0.259   4.154  10.807 -0.2351 -0.6993  2.9546
  120OSM   H13C12642   0.118   4.207  10.884 -0.2327 -0.5049  0.0438
  120OSM    C1212643   0.175   3.894  10.753  0.4382  0.4895  0.2312
  120OSM   H12A12644   0.177   3.792  10.789 -0.9112  0.1965 -0.4704
  120OSM   H12B12645   0.280   3.904  10.729  0.8935  1.0514  2.4140
  120OSM    C1112646   0.094   3.891  10.620 -0.0325  0.2720  0.0052
  120OSM   H11A12647  -0.012   3.880  10.651  0.3337 -1.3156  0.7703
  120OSM   H11B12648   0.107   3.804  10.552 -2.5984  1.0230 -1.4893
  120OSM      P12649   0.246   4.020  10.467  0.2842  0.4118  0.3865
  120OSM    O1312650   0.284   4.161  10.447 -0.8834  0.2209 -0.1628
  120OSM    O1412651   0.351   3.929  10.524 -0.5515  0.0610 -0.6716
  120OSM    O1112652   0.199   3.958  10.328 -0.3731  0.5131  0.3915
  120OSM    O1212653   0.118   4.015  10.554 -0.0855  0.7073  0.0980
  120OSM    C1S12654   0.070   3.998  10.277 -0.1213  0.4477 -0.0903
  120OSM    H1S12655   0.030   4.089  10.326 -0.6721 -0.8280  1.9034
  120OSM    H1T12656   0.009   3.906  10.288  1.5613 -0.6616  0.2972
  120OSM     NF12657  -0.023   4.130  10.093  0.7054 -0.2333  0.2141
  120OSM    HNF12658  -0.100   4.084  10.049  0.3011 -0.1496  0.8332
  120OSM    C2S12659   0.080   4.040  10.130 -0.0656 -0.6675 -0.4269
  120OSM    H2S12660   0.172   4.100  10.115 -1.5649  1.5743 -0.7995
  120OSM    C3S12661   0.095   3.922  10.037 -0.6460 -0.9679 -0.6444
  120OSM    H3S12662   0.001   3.863  10.041 -1.5759  0.6035  1.3550
  120OSM     O312663   0.192   3.835  10.093  0.7855 -0.0438 -0.9360
  120OSM    HO312664   0.190   3.856  10.186 -0.8148 -1.7094 -0.5608
  120OSM    C4S12665   0.125   3.946   9.897 -0.0287 -0.6307  0.1808
  120OSM    H4S12666   0.231   3.950   9.869 -0.2291 -0.6714 -0.5756
  120OSM    C5S12667   0.038   3.968   9.792 -0.0042  0.2921 -0.2806
  120OSM    H5S12668  -0.070   3.979   9.811  0.4627  1.5740  1.7772
  120OSM    C6S12669   0.077   3.978   9.652  0.1279  0.4434  0.6074
  120OSM    H6S12670   0.047   3.892   9.588 -0.4822  0.9695  0.1777
  120OSM    H6T12671   0.187   3.979   9.643  0.1442  0.1712  0.7558
  120OSM    C7S12672   0.031   4.114   9.600  0.2158  0.4370 -0.3691
  120OSM    H7S12673   0.087   4.191   9.658  1.0293  0.1214 -0.7314
  120OSM    H7T12674  -0.076   4.136   9.621 -0.5255 -1.4174 -2.0718
  120OSM    C8S12675   0.054   4.135   9.453  0.1075  0.2975 -0.4724
  120OSM    H8S12676   0.161   4.142   9.423 -0.6174  1.1356 -2.9636
  120OSM    H8T12677   0.021   4.239   9.435  0.5874  0.3349 -1.1498
  120OSM    C9S12678  -0.026   4.036   9.365  0.3450 -0.1406  0.5540
  120OSM    H9S12679  -0.129   4.029   9.408  0.5525  0.8637  1.2395
  120OSM    H9T12680   0.028   3.940   9.357  1.2152  0.2848  1.1930
  120OSM   C10S12681  -0.045   4.089   9.225 -0.2612  0.4341 -0.0803
  120OSM   H10S12682   0.047   4.092   9.163  0.2156 -1.2323  0.5186
  120OSM   H10T12683  -0.079   4.194   9.235 -1.0736  0.1977 -0.3379
  120OSM   C11S12684  -0.151   4.017   9.156  0.5630  0.5060  0.4409
  120OSM   H11S12685  -0.245   4.018   9.216  0.0495  2.1578 -0.3796
  120OSM   H11T12686  -0.115   3.913   9.139 -0.1200 -0.5846  4.9603
  120OSM   C12S12687  -0.192   4.076   9.020  0.5188 -0.6847  1.1059
  120OSM   H12S12688  -0.100   4.080   8.957 -0.8373 -0.2853 -0.8943
  120OSM   H12T12689  -0.232   4.175   9.049 -1.6906 -1.6273  1.3626
  120OSM   C13S12690  -0.281   3.971   8.964 -0.3068 -0.1641  0.2697
  120OSM   H13S12691  -0.360   3.942   9.036 -1.4189 -1.3966 -1.4219
  120OSM   H13T12692  -0.231   3.873   8.948  0.6044  0.0414  1.7765
  120OSM   C14S12693  -0.335   4.024   8.830 -0.1178 -0.2851  0.0568
  120OSM   H14S12694  -0.378   3.936   8.777  0.6224 -1.5174  1.4456
  120OSM   H14T12695  -0.260   4.053   8.753  0.2641 -1.1091  0.1032
  120OSM   C15S12696  -0.436   4.138   8.838 -0.1334 -0.2387  0.3865
  120OSM   H15S12697  -0.410   4.221   8.907 -1.3382  1.3504 -1.0196
  120OSM   H15T12698  -0.535   4.100   8.872  0.2364 -0.3278  1.3940
  120OSM   C16S12699  -0.464   4.192   8.694 -0.4137 -0.4921 -0.4658
  120OSM   H16S12700  -0.489   4.112   8.620  1.4157 -0.7281 -0.8494
  120OSM   H16T12701  -0.371   4.243   8.663 -0.6412  0.3367  0.2114
  120OSM   C17S12702  -0.579   4.298   8.686 -0.2692 -0.2892 -0.2467
  120OSM   H17S12703  -0.583   4.376   8.765 -0.2823  0.0429 -0.5748
  120OSM   H17T12704  -0.662   4.234   8.724  0.8310 -0.8617  1.2460
  120OSM   C18S12705  -0.601   4.356   8.553 -0.0238  0.4956 -0.2613
  120OSM   H18S12706  -0.674   4.439   8.546 -0.9186 -0.2640 -0.0192
  120OSM   H18T12707  -0.625   4.284   8.472 -1.6074  0.9549 -0.2189
  120OSM   H18U12708  -0.502   4.393   8.520  0.1557 -0.2325 -0.5503
  120OSM    C1F12709  -0.024   4.267  10.119 -0.5809  0.2990  0.0458
  120OSM     OF12710   0.080   4.315  10.155 -0.8201  0.0109 -0.3165
  120OSM    C2F12711  -0.157   4.341  10.090  0.3438  0.0509 -0.3000
  120OSM    H2F12712  -0.220   4.319  10.178 -2.8486  0.4091 -2.4279
  120OSM    H2G12713  -0.195   4.298   9.994  0.9172 -0.7988 -0.1547
  120OSM    C3F12714  -0.140   4.491  10.077 -1.4172  0.0475  0.6358
  120OSM    H3F12715  -0.082   4.507   9.983 -1.1280 -2.1431  0.4105
  120OSM    H3G12716  -0.088   4.536  10.164  0.1225 -0.4148 -0.0221
  120OSM    C4F12717  -0.279   4.556  10.050 -0.2847  0.1096  0.6022
  120OSM    H4F12718  -0.323   4.581  10.149  0.7647 -0.0345  1.1186
  120OSM    H4G12719  -0.345   4.483   9.999  0.0757  0.8044 -0.8769
  120OSM    C5F12720  -0.264   4.687   9.968 -0.0946  0.4080 -0.1544
  120OSM    H5F12721  -0.244   4.669   9.860  2.0978 -1.8074  0.5811
  120OSM    H5G12722  -0.176   4.741  10.008  2.4548 -1.9046 -2.4551
  120OSM    C6F12723  -0.394   4.775   9.976  0.0654 -0.1917  0.2491
  120OSM    H6F12724  -0.361   4.881   9.976  0.4969 -0.3210 -1.2851
  120OSM    H6G12725  -0.446   4.739  10.068 -3.7459 -0.8191 -2.0015
  120OSM    C7F12726  -0.487   4.754   9.854  0.4667 -0.3887  0.9274
  120OSM    H7F12727  -0.512   4.647   9.840 -0.8841  0.0787 -0.3033
  120OSM    H7G12728  -0.427   4.776   9.763 -1.0384  0.4948  0.1367
  120OSM    C8F12729  -0.608   4.840   9.837 -0.3887  0.4894 -0.6441
  120OSM    H8F12730  -0.566   4.933   9.792 -0.1376  1.0836  0.7992
  120OSM    H8G12731  -0.662   4.881   9.925  0.5212  3.7023 -1.4979
  120OSM    C9F12732  -0.699   4.769   9.734  0.5287 -0.2075 -0.3362
  120OSM    H9F12733  -0.773   4.701   9.777 -0.2227  1.0803  0.4261
  120OSM   C10F12734  -0.687   4.795   9.597  0.2419  0.0449 -0.5749
  120OSM   H10F12735  -0.748   4.740   9.524  1.0818 -3.3064  1.1640
  120OSM   C11F12736  -0.595   4.900   9.535  0.1662 -0.0469  0.1677
  120OSM   H11F12737  -0.498   4.866   9.492  1.6627  1.1255  2.5073
  120OSM   H11G12738  -0.595   4.983   9.609  1.4254  1.1300 -1.1195
  120OSM   C12F12739  -0.666   4.963   9.406 -0.6377  0.0016 -0.1590
  120OSM   H12F12740  -0.765   5.007   9.430 -0.2443  0.5828  0.4387
  120OSM   H12G12741  -0.680   4.875   9.340 -2.2353 -0.0242  0.1895
  120OSM   C13F12742  -0.573   5.061   9.332  0.0317  0.1444 -0.3317
  120OSM   H13F12743  -0.465   5.038   9.341 -0.5102 -2.0875  0.9050
  120OSM   H13G12744  -0.590   5.159   9.382 -1.8500 -0.9755  1.3625
  120OSM   C14F12745  -0.628   5.067   9.185  0.1023 -0.4083 -0.0209
  120OSM   H14F12746  -0.594   4.981   9.124  2.2432  0.5822 -0.2716
  120OSM   H14G12747  -0.578   5.151   9.133 -1.1834  1.6888  2.0069
  120OSM   C15F12748  -0.781   5.102   9.157 -0.2952  0.4205  0.3913
  120OSM   H15F12749  -0.804   5.187   9.226 -1.1860  0.1330  0.4467
  120OSM   H15G12750  -0.855   5.022   9.179 -1.8198  0.6865 -3.4555
  120OSM   C16F12751  -0.799   5.160   9.013 -0.3651 -0.2170  0.1825
  120OSM   H16F12752  -0.701   5.156   8.961 -0.6038  0.6770 -0.3440
  120OSM   H16G12753  -0.834   5.265   9.021 -0.7869 -0.4222  1.1634
  120OSM   C17F12754  -0.895   5.079   8.926  0.3151 -0.4392  0.8471
  120OSM   H17F12755  -0.986   5.064   8.987  0.1255  2.3487  1.3184
  120OSM   H17G12756  -0.862   4.975   8.904 -0.0425 -0.4307  0.2587
  120OSM   C18F12757  -0.930   5.153   8.799  0.1478 -0.4490  0.2639
  120OSM   H18F12758  -1.023   5.123   8.748  0.0089 -3.2907  2.0620
  120OSM   H18G12759  -0.847   5.145   8.726 -0.5236 -0.5931 -0.4792
  120OSM   H18H12760  -0.929   5.263   8.813 -1.2809 -0.3638 -0.2375
  121OSM      N12761   5.773   0.768  11.095  0.7085 -0.0188  0.7024
  121OSM    C1512762   5.806   0.701  11.222 -0.0691  0.0565  1.1880
  121OSM   H15A12763   5.857   0.607  11.204 -0.7068 -0.1139  0.1984
  121OSM   H15B12764   5.713   0.684  11.274 -0.6413  0.5798  0.3696
  121OSM   H15C12765   5.858   0.769  11.288  2.7910  0.3237 -1.2175
  121OSM    C1412766   5.669   0.867  11.124  0.3556 -0.1112  0.0852
  121OSM   H14A12767   5.619   0.894  11.032  1.9869 -2.4124 -1.5740
  121OSM   H14B12768   5.715   0.959  11.157  1.1030 -0.9817  1.5117
  121OSM   H14C12769   5.592   0.843  11.195  0.2905 -1.7702 -0.5095
  121OSM    C1312770   5.895   0.830  11.039  0.3200 -1.0685  0.0145
  121OSM   H13A12771   5.980   0.768  11.015  0.5394 -1.4132  1.6915
  121OSM   H13B12772   5.918   0.905  11.113 -2.0405  0.8064 -1.0561
  121OSM   H13C12773   5.875   0.882  10.946 -2.3042 -0.3292  0.9331
  121OSM    C1212774   5.714   0.650  11.008  0.0060  0.2509 -0.1381
  121OSM   H12A12775   5.664   0.700  10.927 -0.1393  0.4089  0.0473
  121OSM   H12B12776   5.641   0.601  11.071 -1.6748  1.3032 -1.2263
  121OSM    C1112777   5.810   0.534  10.965  0.0692  0.0265 -0.2443
  121OSM   H11A12778   5.913   0.568  10.945  0.6996 -0.9238  1.2765
  121OSM   H11B12779   5.763   0.494  10.872  0.1774 -1.2270  0.2310
  121OSM      P12780   5.695   0.332  11.077 -0.5391  0.0341 -0.0040
  121OSM    O1312781   5.721   0.219  11.171 -0.0986  0.8380 -0.0787
  121OSM    O1412782   5.573   0.407  11.110  0.6161  0.0200  0.0689
  121OSM    O1112783   5.669   0.276  10.936  0.4185  0.0509  0.1855
  121OSM    O1212784   5.817   0.438  11.067 -0.0652 -0.3720  0.2032
  121OSM    C1S12785   5.779   0.197  10.880  0.1795  0.2763  0.0807
  121OSM    H1S12786   5.801   0.113  10.950 -0.2216  0.1059 -0.0006
  121OSM    H1T12787   5.875   0.253  10.874  0.5222 -0.3854 -0.7037
  121OSM     NF12788   5.850   0.090  10.679 -0.6170 -0.7912  0.1434
  121OSM    HNF12789   5.903   0.130  10.605 -1.3662 -0.9730 -0.4876
  121OSM    C2S12790   5.733   0.160  10.738  0.2070 -0.5527  0.1728
  121OSM    H2S12791   5.648   0.089  10.740 -1.6867  1.6967  1.2823
  121OSM    C3S12792   5.685   0.281  10.656  0.7412  0.2767 -0.0368
  121OSM    H3S12793   5.764   0.357  10.673  0.8424  0.0552  0.5164
  121OSM     O312794   5.572   0.357  10.702 -0.2514 -0.3051 -0.1158
  121OSM    HO312795   5.561   0.326  10.792 -1.4992 -0.6849 -0.3892
  121OSM    C4S12796   5.651   0.251  10.509  0.5107 -0.8943 -0.0366
  121OSM    H4S12797   5.559   0.200  10.477 -1.1188  2.3955 -0.8603
  121OSM    C5S12798   5.739   0.294  10.410 -0.0038 -0.3205  0.6169
  121OSM    H5S12799   5.835   0.344  10.427  0.1564 -0.5334  0.3422
  121OSM    C6S12800   5.705   0.267  10.264 -0.0020 -0.1749  0.0621
  121OSM    H6S12801   5.609   0.210  10.264  1.0194 -1.9429  1.0798
  121OSM    H6T12802   5.785   0.205  10.217  0.7802 -0.8590  2.2519
  121OSM    C7S12803   5.664   0.406  10.193 -0.2746 -0.2980  0.1760
  121OSM    H7S12804   5.753   0.473  10.200 -1.6239  1.4986  0.5424
  121OSM    H7T12805   5.581   0.455  10.248 -0.5798 -0.4503 -0.1488
  121OSM    C8S12806   5.625   0.393  10.047  0.2695 -0.8051 -0.1608
  121OSM    H8S12807   5.570   0.481  10.005  0.7934  0.2583  1.3526
  121OSM    H8T12808   5.557   0.306  10.043 -2.8269  1.4573  1.2655
  121OSM    C9S12809   5.744   0.366   9.954 -0.6368  0.6528 -0.0721
  121OSM    H9S12810   5.804   0.284  10.000  1.1629  2.4613  0.8604
  121OSM    H9T12811   5.802   0.458   9.931  0.4472  0.0249  0.0684
  121OSM   C10S12812   5.699   0.311   9.818  0.6545 -0.0502  0.2571
  121OSM   H10S12813   5.616   0.240   9.841  0.2524  0.6938  1.1262
  121OSM   H10T12814   5.786   0.252   9.781 -0.0818 -0.9975 -0.0011
  121OSM   C11S12815   5.645   0.412   9.719  0.1737  1.0270 -0.4240
  121OSM   H11S12816   5.715   0.497   9.705  1.5391 -0.0456 -0.2020
  121OSM   H11T12817   5.547   0.449   9.757  1.1840  3.4367 -0.0950
  121OSM   C12S12818   5.643   0.337   9.585  0.1436  0.0261  0.1704
  121OSM   H12S12819   5.565   0.258   9.580 -0.1357  0.3933 -1.7443
  121OSM   H12T12820   5.741   0.290   9.565 -0.9720 -1.5501 -1.7070
  121OSM   C13S12821   5.608   0.412   9.459  0.3013  0.5231  0.1087
  121OSM   H13S12822   5.672   0.502   9.450 -0.1680  0.8766  0.3065
  121OSM   H13T12823   5.501   0.442   9.465  0.4560  0.6063  2.5794
  121OSM   C14S12824   5.616   0.319   9.332  0.5161 -0.1940 -0.3129
  121OSM   H14S12825   5.539   0.240   9.342  0.1051  0.2405 -0.0589
  121OSM   H14T12826   5.718   0.276   9.319  0.6099  0.9517 -3.9562
  121OSM   C15S12827   5.588   0.405   9.211 -0.3494  0.1479  0.1915
  121OSM   H15S12828   5.662   0.488   9.213  0.3236 -0.4127 -1.2476
  121OSM   H15T12829   5.482   0.437   9.219 -0.3129  0.1520  0.6679
  121OSM   C16S12830   5.612   0.337   9.071 -0.1309 -0.3468 -0.6855
  121OSM   H16S12831   5.535   0.260   9.051  1.6249 -2.4332  0.4777
  121OSM   H16T12832   5.712   0.290   9.080  0.7659  1.7860  1.3869
  121OSM   C17S12833   5.601   0.439   8.968 -0.0209 -0.0492  0.8338
  121OSM   H17S12834   5.500   0.464   8.930 -0.5493  2.1826  3.6054
  121OSM   H17T12835   5.642   0.399   8.872 -0.0954  1.3603  0.2030
  121OSM   C18S12836   5.682   0.576   8.989 -0.1156  0.3882 -0.3088
  121OSM   H18S12837   5.622   0.653   9.041  1.3535  0.0164  2.0381
  121OSM   H18T12838   5.705   0.620   8.890 -2.8233  2.1204 -0.2166
  121OSM   H18U12839   5.778   0.564   9.044  0.6536 -1.2180 -1.9443
  121OSM    C1F12840   5.898  -0.026  10.710  0.3233  0.3143  0.5188
  121OSM     OF12841   5.829  -0.116  10.764  0.3384 -0.5088  0.0396
  121OSM    C2F12842   6.035  -0.056  10.669  0.9189 -0.4320  0.4100
  121OSM    H2F12843   6.094  -0.084  10.760  0.4974  1.6980  1.3821
  121OSM    H2G12844   6.076   0.036  10.621 -1.4349 -0.4778 -1.7331
  121OSM    C3F12845   6.037  -0.169  10.566  0.3701 -0.5260 -0.1639
  121OSM    H3F12846   5.992  -0.266  10.598  0.8164 -0.9509 -0.7959
  121OSM    H3G12847   6.143  -0.191  10.540  1.2537  1.3254  1.7431
  121OSM    C4F12848   5.968  -0.135  10.432 -0.3446 -0.0018  0.5094
  121OSM    H4F12849   6.032  -0.060  10.380 -1.3528 -0.8131 -2.0006
  121OSM    H4G12850   5.872  -0.080  10.446 -0.4380  0.0881 -0.4432
  121OSM    C5F12851   5.944  -0.269  10.354  0.3678  0.3828 -0.9760
  121OSM    H5F12852   5.868  -0.333  10.404  1.3711  0.5741  0.8466
  121OSM    H5G12853   6.037  -0.328  10.363 -0.1945 -0.2345  0.9879
  121OSM    C6F12854   5.886  -0.240  10.213  0.1381  0.4908 -0.4329
  121OSM    H6F12855   5.787  -0.191  10.217 -0.0726  0.1425 -1.2326
  121OSM    H6G12856   5.862  -0.335  10.161  0.4331  0.9614 -1.4435
  121OSM    C7F12857   5.984  -0.162  10.121 -0.2447  0.9880 -0.3326
  121OSM    H7F12858   6.085  -0.206  10.136  0.2826  2.6113  1.1673
  121OSM    H7G12859   5.994  -0.059  10.163  0.2346  0.5717  0.6035
  121OSM    C8F12860   5.934  -0.140   9.982  0.5096  0.2934 -0.6334
  121OSM    H8F12861   5.862  -0.055   9.988  0.5837  0.3275 -0.2268
  121OSM    H8G12862   5.883  -0.227   9.936  1.9216 -0.8590 -0.0307
  121OSM    C9F12863   6.044  -0.087   9.888 -0.3842  0.4990  0.3756
  121OSM    H9F12864   6.086   0.012   9.913 -0.2337  1.2649 -2.7317
  121OSM   C10F12865   6.077  -0.156   9.777  0.0768  0.1434  0.3640
  121OSM   H10F12866   6.150  -0.111   9.708  1.1857 -0.1586  1.3186
  121OSM   C11F12867   6.020  -0.287   9.720  0.6148  1.1424 -0.2372
  121OSM   H11F12868   5.929  -0.276   9.658 -0.3121  2.1918  1.2971
  121OSM   H11G12869   6.009  -0.372   9.791 -1.5268  0.6948 -1.0769
  121OSM   C12F12870   6.124  -0.337   9.626 -0.7441 -0.2675  0.3754
  121OSM   H12F12871   6.219  -0.351   9.682 -0.8077 -0.2102  0.4960
  121OSM   H12G12872   6.154  -0.261   9.550  1.0540 -1.8814 -0.5962
  121OSM   C13F12873   6.088  -0.470   9.559 -0.0656  0.3540  0.3297
  121OSM   H13F12874   5.993  -0.446   9.506 -1.3510 -2.2141  1.3362
  121OSM   H13G12875   6.072  -0.548   9.636 -0.2985 -0.1336 -0.2117
  121OSM   C14F12876   6.187  -0.517   9.456 -1.2655 -0.3998 -0.1531
  121OSM   H14F12877   6.276  -0.562   9.505  0.1094  1.1795 -1.1562
  121OSM   H14G12878   6.217  -0.444   9.378 -1.1964 -1.0743 -0.7597
  121OSM   C15F12879   6.128  -0.628   9.370  0.6533  0.1463  0.2472
  121OSM   H15F12880   6.192  -0.659   9.285 -0.6033 -3.7690  0.6459
  121OSM   H15G12881   6.036  -0.586   9.324  0.1979 -1.0734  0.0352
  121OSM   C16F12882   6.085  -0.756   9.445 -0.2669  0.4552  0.4172
  121OSM   H16F12883   5.980  -0.780   9.419  0.1013 -1.3668  0.5509
  121OSM   H16G12884   6.098  -0.737   9.554  2.2177  0.9892  0.0511
  121OSM   C17F12885   6.176  -0.875   9.416  0.0552  0.1270  0.2835
  121OSM   H17F12886   6.281  -0.840   9.413 -0.2436  0.9517 -0.8509
  121OSM   H17G12887   6.148  -0.922   9.319  2.4124 -0.4314 -0.1501
  121OSM   C18F12888   6.166  -0.985   9.524 -0.0793  0.4710 -0.4109
  121OSM   H18F12889   6.073  -1.046   9.526  0.3528 -0.2231 -1.0766
  121OSM   H18G12890   6.169  -0.934   9.623 -3.1049  1.1029 -0.5976
  121OSM   H18H12891   6.247  -1.061   9.514  1.6196  2.4359 -2.0793
  122OSM      N12892   6.712   5.424  10.825 -0.1482 -0.7298  0.2901
  122OSM    C1512893   6.698   5.577  10.821  0.3881 -0.1274 -0.3454
  122OSM   H15A12894   6.623   5.600  10.746  0.1885  0.0793 -0.0819
  122OSM   H15B12895   6.790   5.627  10.796 -0.3521  0.7463 -1.4005
  122OSM   H15C12896   6.662   5.612  10.917 -1.6211 -0.1948 -1.0381
  122OSM    C1412897   6.817   5.403  10.930  0.4286  0.5511  0.1522
  122OSM   H14A12898   6.903   5.460  10.897  0.2379  0.3064 -0.7763
  122OSM   H14B12899   6.850   5.302  10.948 -1.2626  0.4346  2.9799
  122OSM   H14C12900   6.780   5.439  11.025  1.6619 -0.2180  0.9307
  122OSM    C1312901   6.588   5.352  10.858  0.2681  0.3103  0.9530
  122OSM   H13A12902   6.602   5.246  10.850  1.4519  0.6157 -1.4965
  122OSM   H13B12903   6.517   5.364  10.777 -0.1445 -2.9331  0.7995
  122OSM   H13C12904   6.550   5.384  10.954 -0.2478  0.3013  0.7548
  122OSM    C1212905   6.761   5.383  10.687 -0.4513  0.0240 -0.3122
  122OSM   H12A12906   6.856   5.433  10.675  0.2035 -0.9519  0.6403
  122OSM   H12B12907   6.685   5.406  10.613 -0.6635  1.1565  0.2463
  122OSM    C1112908   6.799   5.233  10.659 -0.3789 -0.4358  0.5313
  122OSM   H11A12909   6.883   5.204  10.725 -0.3151 -0.2990  0.5107
  122OSM   H11B12910   6.827   5.244  10.552 -0.9826 -1.3044  0.2779
  122OSM      P12911   6.641   5.033  10.580  0.1511 -0.1315 -0.5017
  122OSM    O1312912   6.707   4.911  10.623  0.2967  0.2331 -0.2699
  122OSM    O1412913   6.493   5.024  10.588 -0.2816 -0.3245  0.3911
  122OSM    O1112914   6.702   5.071  10.441  0.2814  0.3468  0.2642
  122OSM    O1212915   6.692   5.143  10.680 -0.1722 -0.3396  0.4477
  122OSM    C1S12916   6.802   5.015  10.365  0.4404  0.3714 -0.4333
  122OSM    H1S12917   6.861   4.942  10.425  1.1306  0.5697 -0.8590
  122OSM    H1T12918   6.882   5.088  10.340 -0.0281  0.9449 -0.2689
  122OSM     NF12919   6.884   4.901  10.167 -0.3000  0.2205 -0.2416
  122OSM    HNF12920   6.941   4.950  10.101 -1.7844  0.8395 -1.0876
  122OSM    C2S12921   6.770   4.972  10.225 -0.6964 -0.0193 -0.1718
  122OSM    H2S12922   6.689   4.897  10.228 -0.8636  0.1944  0.9717
  122OSM    C3S12923   6.721   5.095  10.139 -0.1031 -0.3402 -0.3025
  122OSM    H3S12924   6.787   5.184  10.152 -1.6487  0.3161  4.0386
  122OSM     O312925   6.604   5.152  10.201 -0.2975 -0.2453 -0.5413
  122OSM    HO312926   6.625   5.134  10.293  2.4274 -0.7986 -1.2305
  122OSM    C4S12927   6.693   5.070   9.996  0.1180 -0.0131 -0.1607
  122OSM    H4S12928   6.598   5.015   9.987  0.1393 -0.3126  1.2964
  122OSM    C5S12929   6.758   5.100   9.881 -0.6132 -0.3366 -0.1207
  122OSM    H5S12930   6.845   5.167   9.881 -1.3846  0.6721  0.0543
  122OSM    C6S12931   6.699   5.059   9.749 -0.0559 -0.0064  0.0220
  122OSM    H6S12932   6.732   5.134   9.674  0.0527 -1.2593 -1.2135
  122OSM    H6T12933   6.588   5.063   9.759  0.1609  0.0853  2.6277
  122OSM    C7S12934   6.733   4.928   9.687 -1.1169  0.2923  0.3499
  122OSM    H7S12935   6.725   4.849   9.765  1.1852  1.6508  2.0414
  122OSM    H7T12936   6.839   4.944   9.655 -0.7517 -0.1866  1.2853
  122OSM    C8S12937   6.632   4.894   9.574 -0.2866  0.1771  0.5177
  122OSM    H8S12938   6.524   4.897   9.599 -0.6991  2.0221 -1.3226
  122OSM    H8T12939   6.649   4.786   9.556 -0.6527  0.1049  0.5923
  122OSM    C9S12940   6.675   4.961   9.442 -0.7693 -0.3360 -0.6314
  122OSM    H9S12941   6.785   4.954   9.428 -0.5934 -1.5197  1.1547
  122OSM    H9T12942   6.657   5.070   9.456 -0.4575 -0.4718  0.9335
  122OSM   C10S12943   6.604   4.914   9.317 -0.0323  0.7198 -0.3167
  122OSM   H10S12944   6.495   4.924   9.337 -0.3853 -2.6914 -0.3387
  122OSM   H10T12945   6.631   4.807   9.304 -1.5309  0.0914  1.4870
  122OSM   C11S12946   6.632   4.989   9.188  0.8266 -0.1478  0.9068
  122OSM   H11S12947   6.733   4.960   9.151  0.2169 -2.3396  0.8695
  122OSM   H11T12948   6.636   5.098   9.209  0.5223 -0.2521  1.5005
  122OSM   C12S12949   6.531   4.970   9.072 -0.0931 -0.1751  0.9091
  122OSM   H12S12950   6.433   5.012   9.102 -2.0834 -2.6969 -1.8243
  122OSM   H12T12951   6.519   4.864   9.044 -2.1805 -0.1144  1.5014
  122OSM   C13S12952   6.581   5.052   8.952 -0.5469 -0.2603  0.2279
  122OSM   H13S12953   6.681   5.028   8.910  0.5651  1.6017  1.7453
  122OSM   H13T12954   6.597   5.155   8.988  1.7753 -0.5205  0.0054
  122OSM   C14S12955   6.463   5.052   8.839 -0.0610  0.4748  0.2885
  122OSM   H14S12956   6.377   5.099   8.891  0.6317  1.3465  0.6753
  122OSM   H14T12957   6.449   4.947   8.808  2.7989  0.2765 -0.4498
  122OSM   C15S12958   6.490   5.136   8.712 -0.4475  0.5633 -0.0455
  122OSM   H15S12959   6.543   5.073   8.637 -1.2038 -0.4553  0.2651
  122OSM   H15T12960   6.567   5.209   8.745  1.1911 -1.7881  1.4874
  122OSM   C16S12961   6.361   5.200   8.659 -0.3861 -0.2372 -0.0541
  122OSM   H16S12962   6.394   5.235   8.559  0.5729 -1.5324 -0.2043
  122OSM   H16T12963   6.339   5.287   8.724  1.0314 -0.9266  1.3873
  122OSM   C17S12964   6.248   5.100   8.633  0.1666 -0.2817 -0.4035
  122OSM   H17S12965   6.188   5.091   8.726  1.6516 -2.5740  0.3694
  122OSM   H17T12966   6.297   5.002   8.614  1.5301  0.2619  0.1995
  122OSM   C18S12967   6.153   5.144   8.531  0.2542 -0.5402  0.0542
  122OSM   H18S12968   6.058   5.087   8.527 -0.5773  0.8342 -0.1443
  122OSM   H18T12969   6.197   5.121   8.432  3.4667  1.2644  0.9865
  122OSM   H18U12970   6.133   5.253   8.537  0.7732 -0.4911  1.0770
  122OSM    C1F12971   6.916   4.779  10.204 -0.4891 -0.1137  0.4546
  122OSM     OF12972   6.852   4.706  10.281  0.3455  0.2002 -0.3317
  122OSM    C2F12973   7.041   4.722  10.142  0.1611  0.1611  0.1481
  122OSM    H2F12974   7.119   4.705  10.219  0.2086  2.0759  0.5337
  122OSM    H2G12975   7.068   4.807  10.076 -1.0739  0.5116  0.0859
  122OSM    C3F12976   7.017   4.604  10.049 -0.0684  0.4700  0.5193
  122OSM    H3F12977   6.944   4.535  10.097  2.1715 -2.4772 -0.1954
  122OSM    H3G12978   7.114   4.555  10.024  0.1209  1.5850 -1.0067
  122OSM    C4F12979   6.946   4.640   9.911  0.5286  0.1359 -0.5099
  122OSM    H4F12980   7.013   4.713   9.860  1.0885 -0.9607 -1.3495
  122OSM    H4G12981   6.844   4.664   9.948  1.1349  1.7517  0.1789
  122OSM    C5F12982   6.945   4.510   9.826  0.7894 -0.0326 -0.0901
  122OSM    H5F12983   6.907   4.429   9.893  1.5072  0.9642  1.5599
  122OSM    H5G12984   7.041   4.465   9.794  0.0204 -0.3575 -2.0256
  122OSM    C6F12985   6.864   4.525   9.703  0.0443 -0.0364  0.0269
  122OSM    H6F12986   6.755   4.538   9.718 -0.4045 -1.3314 -1.9392
  122OSM    H6G12987   6.876   4.436   9.638 -0.4711 -0.8647  1.0602
  122OSM    C7F12988   6.911   4.636   9.617  0.5909  0.4562 -0.1999
  122OSM    H7F12989   7.020   4.656   9.614  0.5231  0.7341 -0.8097
  122OSM    H7G12990   6.876   4.732   9.662  1.0560  0.4428  0.1936
  122OSM    C8F12991   6.849   4.617   9.477  0.6341  0.1939 -0.1594
  122OSM    H8F12992   6.851   4.714   9.424  1.6265  0.1666 -0.1996
  122OSM    H8G12993   6.749   4.570   9.477  0.4105  0.6676  0.7522
  122OSM    C9F12994   6.931   4.525   9.392  0.0702  0.0242  0.3277
  122OSM    H9F12995   6.907   4.418   9.394  0.2920 -0.0274  0.2747
  122OSM   C10F12996   7.028   4.562   9.304 -0.6417 -0.1927  0.3120
  122OSM   H10F12997   7.077   4.482   9.247 -0.9281 -0.4085  0.3719
  122OSM   C11F12998   7.072   4.705   9.278 -0.3799 -0.3061 -0.0544
  122OSM   H11F12999   7.183   4.702   9.285 -0.3447 -1.5268 -1.0007
  122OSM   H11G13000   7.026   4.785   9.339 -0.8967 -0.3194 -0.4295
  122OSM   C12F13001   7.042   4.732   9.132 -0.0712  0.2875 -0.0438
  122OSM   H12F13002   6.940   4.707   9.098  0.3253  0.0428 -1.0725
  122OSM   H12G13003   7.104   4.664   9.069 -0.3689  0.2126 -0.2553
  122OSM   C13F13004   7.069   4.877   9.083  0.4087 -0.2200 -0.3416
  122OSM   H13F13005   7.172   4.908   9.110  0.6812  0.1062 -1.7258
  122OSM   H13G13006   6.995   4.942   9.135  0.7446  0.1875 -0.3674
  122OSM   C14F13007   7.046   4.907   8.937  0.9016  0.1466  0.0768
  122OSM   H14F13008   6.944   4.886   8.899  0.1696  1.1791  1.4095
  122OSM   H14G13009   7.121   4.856   8.873  1.0374  2.5255 -1.6937
  122OSM   C15F13010   7.077   5.055   8.904 -0.8871 -0.1802 -0.3156
  122OSM   H15F13011   7.177   5.078   8.946  0.0089 -1.5221 -1.6422
  122OSM   H15G13012   7.009   5.126   8.956  1.2324  1.1637  0.7253
  122OSM   C16F13013   7.078   5.086   8.757 -0.1186 -0.1666 -0.4458
  122OSM   H16F13014   7.120   5.001   8.699  0.0991 -0.6831  0.4659
  122OSM   H16G13015   7.141   5.176   8.740  0.0132  0.4727  3.0120
  122OSM   C17F13016   6.935   5.102   8.705  0.3941 -0.7223  0.2863
  122OSM   H17F13017   6.890   5.179   8.772 -2.9909 -0.9831 -1.5316
  122OSM   H17G13018   6.889   5.001   8.714 -1.2387 -0.1346 -1.0605
  122OSM   C18F13019   6.916   5.154   8.563  0.3224 -0.6400  0.6598
  122OSM   H18F13020   6.940   5.072   8.492 -1.8532  0.9079 -1.9721
  122OSM   H18G13021   6.985   5.238   8.544 -2.2917  1.7578  1.3577
  122OSM   H18H13022   6.815   5.191   8.535  1.2262  0.5615 -1.0606
  123OSM      N13023   3.759   4.257   6.041  0.2081  0.1942 -0.2444
  123OSM    C1513024   3.807   4.148   5.949  0.3269  0.2163 -0.3178
  123OSM   H15A13025   3.724   4.115   5.888  2.7430 -2.8280 -2.0983
  123OSM   H15B13026   3.838   4.062   6.006 -1.9296 -2.1765 -2.5205
  123OSM   H15C13027   3.891   4.179   5.889  0.9333 -2.6059 -0.9879
  123OSM    C1413028   3.869   4.283   6.131 -0.4075 -0.3420 -0.1764
  123OSM   H14A13029   3.949   4.316   6.065 -0.0795  1.9273  1.2960
  123OSM   H14B13030   3.900   4.197   6.187 -0.1275 -0.0749  0.0767
  123OSM   H14C13031   3.842   4.357   6.204 -0.1829 -0.2836 -0.1518
  123OSM    C1313032   3.734   4.374   5.961  0.0084 -0.3998  0.1036
  123OSM   H13A13033   3.733   4.466   6.017 -1.3175  0.1912 -0.8475
  123OSM   H13B13034   3.645   4.368   5.899  0.3532  0.3482 -0.4736
  123OSM   H13C13035   3.817   4.400   5.897  0.2790  1.4460  1.1637
  123OSM    C1213036   3.637   4.224   6.118 -0.0935  0.0342  0.3624
  123OSM   H12A13037   3.647   4.119   6.142 -0.8400  0.5024  2.8918
  123OSM   H12B13038   3.550   4.230   6.055 -0.3996  0.7143  0.8417
  123OSM    C1113039   3.593   4.315   6.235  0.1147 -0.0042  0.6265
  123OSM   H11A13040   3.678   4.347   6.299  1.4062 -2.0646  0.0129
  123OSM   H11B13041   3.533   4.254   6.307 -0.5492  0.6046  0.5955
  123OSM      P13042   3.378   4.429   6.136 -0.1846 -0.2665 -0.1631
  123OSM    O1313043   3.356   4.511   6.014  0.6217 -0.1772 -0.5430
  123OSM    O1413044   3.331   4.286   6.119  0.1237 -0.1570  0.3293
  123OSM    O1113045   3.302   4.499   6.258 -0.6236  1.0557 -0.0745
  123OSM    O1213046   3.531   4.434   6.184 -0.6555  0.0214  0.0417
  123OSM    C1S13047   3.248   4.419   6.368  0.1209  1.4265 -0.2803
  123OSM    H1S13048   3.230   4.313   6.338 -0.6374  0.8499  2.1342
  123OSM    H1T13049   3.161   4.471   6.412 -0.3264 -0.3248  0.9623
  123OSM     NF13050   3.285   4.327   6.598 -0.0154 -0.2758  0.7226
  123OSM    HNF13051   3.222   4.371   6.661 -0.5187  0.4384 -0.2734
  123OSM    C2S13052   3.341   4.410   6.493 -0.2363 -0.0341  0.1917
  123OSM    H2S13053   3.437   4.362   6.463 -0.8031  0.0486 -1.8433
  123OSM    C3S13054   3.375   4.551   6.542 -0.8650 -0.7848 -0.2694
  123OSM    H3S13055   3.284   4.594   6.590 -0.0158  1.1055 -0.2872
  123OSM     O313056   3.401   4.655   6.445  0.7305  0.3642 -0.4645
  123OSM    HO313057   3.367   4.616   6.364 -0.1727  1.7409 -0.7663
  123OSM    C4S13058   3.481   4.551   6.657  0.1164  0.8837  0.2983
  123OSM    H4S13059   3.435   4.558   6.757  0.3045  0.4279  0.4187
  123OSM    C5S13060   3.613   4.544   6.635 -0.6300 -0.0597 -0.0859
  123OSM    H5S13061   3.657   4.548   6.534 -1.6635 -0.0477 -0.5421
  123OSM    C6S13062   3.710   4.539   6.751 -0.1186  0.7338 -0.5323
  123OSM    H6S13063   3.801   4.596   6.725 -1.2562  2.1704 -1.4938
  123OSM    H6T13064   3.745   4.434   6.760  0.1841  0.7350 -1.6355
  123OSM    C7S13065   3.669   4.577   6.896  0.0665 -0.2780  0.0248
  123OSM    H7S13066   3.578   4.526   6.934 -0.5862  0.0681 -1.0608
  123OSM    H7T13067   3.655   4.688   6.895  1.8969  0.0536  2.8884
  123OSM    C8S13068   3.789   4.568   6.980  0.1377 -0.6587  0.1968
  123OSM    H8S13069   3.876   4.630   6.951  1.9753 -3.6761 -1.0239
  123OSM    H8T13070   3.829   4.465   6.969 -0.1477 -1.0138  2.2057
  123OSM    C9S13071   3.758   4.603   7.128  0.2888  0.1755  0.0691
  123OSM    H9S13072   3.717   4.510   7.173 -1.7230  2.2355  2.6868
  123OSM    H9T13073   3.681   4.683   7.126  0.4533  0.3854  1.6382
  123OSM   C10S13074   3.875   4.657   7.211 -0.4090 -0.1028 -0.0081
  123OSM   H10S13075   3.917   4.750   7.167  0.2885 -0.5451 -0.2841
  123OSM   H10T13076   3.953   4.582   7.186  1.4772  2.2008 -1.2304
  123OSM   C11S13077   3.849   4.663   7.357  0.4710  0.0556  0.0446
  123OSM   H11S13078   3.816   4.561   7.386  1.5166 -0.5351 -0.8213
  123OSM   H11T13079   3.774   4.739   7.390 -0.2410 -0.2964 -0.7405
  123OSM   C12S13080   3.974   4.672   7.452  0.0708 -0.8668 -0.1034
  123OSM   H12S13081   4.018   4.771   7.424 -0.1866  0.2934  3.2798
  123OSM   H12T13082   4.049   4.594   7.426 -0.6148 -1.0334 -1.5698
  123OSM   C13S13083   3.946   4.669   7.607  0.5244 -0.9695 -0.2648
  123OSM   H13S13084   4.043   4.671   7.661 -0.2188 -2.6866  1.1927
  123OSM   H13T13085   3.885   4.579   7.631 -3.2774  0.4211 -4.0223
  123OSM   C14S13086   3.860   4.785   7.662  1.3964 -0.1356 -0.2678
  123OSM   H14S13087   3.793   4.741   7.740  3.0704 -2.0845  0.1358
  123OSM   H14T13088   3.793   4.834   7.589 -1.8197 -0.6568  2.2361
  123OSM   C15S13089   3.939   4.887   7.735 -0.0806 -0.0180  0.1669
  123OSM   H15S13090   3.877   4.972   7.770  0.8762  0.6463  0.2561
  123OSM   H15T13091   4.002   4.937   7.659 -1.1368  1.0289 -0.0403
  123OSM   C16S13092   4.034   4.850   7.852 -0.0909 -0.1051  0.7047
  123OSM   H16S13093   4.111   4.784   7.809  0.4793  0.1833  1.2760
  123OSM   H16T13094   3.977   4.806   7.937 -2.4234 -0.4598 -0.9942
  123OSM   C17S13095   4.108   4.968   7.919 -0.2943 -1.2367 -0.0469
  123OSM   H17S13096   4.145   4.933   8.017 -1.2707 -2.7404 -0.2012
  123OSM   H17T13097   4.039   5.053   7.939 -0.3125 -1.4154  0.6637
  123OSM   C18S13098   4.219   5.034   7.837  0.0948  0.4759 -0.1611
  123OSM   H18S13099   4.298   5.083   7.897 -0.1935  0.2155  0.4321
  123OSM   H18T13100   4.191   5.099   7.752  1.0161  0.4928 -0.4602
  123OSM   H18U13101   4.278   4.955   7.785 -1.2549 -0.5671 -0.1549
  123OSM    C1F13102   3.274   4.200   6.605 -0.8412  0.2760  0.5641
  123OSM     OF13103   3.332   4.126   6.525 -0.4075 -0.1062 -0.1755
  123OSM    C2F13104   3.186   4.132   6.703  0.2437 -0.0108  0.9221
  123OSM    H2F13105   3.124   4.065   6.640  1.7396  0.3870 -1.0042
  123OSM    H2G13106   3.123   4.207   6.755 -2.4374 -2.3479  1.1070
  123OSM    C3F13107   3.263   4.033   6.799 -0.1403 -0.0130  0.3365
  123OSM    H3F13108   3.289   3.940   6.745  1.4733  0.2192  0.7095
  123OSM    H3G13109   3.191   4.002   6.877 -0.3150 -0.6556 -0.0777
  123OSM    C4F13110   3.387   4.095   6.878  0.0629  0.3628 -0.7491
  123OSM    H4F13111   3.460   4.123   6.798 -0.3620  1.9915 -0.5786
  123OSM    H4G13112   3.431   4.013   6.939  0.4552 -0.7634 -2.4987
  123OSM    C5F13113   3.361   4.212   6.960 -0.6569  0.4653  0.7888
  123OSM    H5F13114   3.326   4.283   6.882 -1.4244 -3.2625 -2.4388
  123OSM    H5G13115   3.460   4.254   6.986  0.5638 -2.2393  0.6199
  123OSM    C6F13116   3.259   4.212   7.069 -0.1088 -0.0017 -0.0254
  123OSM    H6F13117   3.161   4.176   7.033 -0.7870 -0.4516  2.1996
  123OSM    H6G13118   3.243   4.319   7.093 -0.2773 -0.1735  0.6289
  123OSM    C7F13119   3.300   4.142   7.197 -0.1160  0.5629 -0.6485
  123OSM    H7F13120   3.403   4.165   7.230 -0.0697 -1.6418  0.7780
  123OSM    H7G13121   3.298   4.036   7.165  1.2730  0.3093  0.1012
  123OSM    C8F13122   3.209   4.163   7.321 -0.2573 -0.4780 -0.0740
  123OSM    H8F13123   3.225   4.076   7.388  1.9545 -0.4231 -0.4804
  123OSM    H8G13124   3.103   4.155   7.287 -0.1210  3.1764 -1.5831
  123OSM    C9F13125   3.223   4.294   7.395 -0.5003  0.0341  0.7095
  123OSM    H9F13126   3.194   4.377   7.328  2.5799 -0.6938 -1.6181
  123OSM   C10F13127   3.223   4.310   7.530  0.0542  0.1164  0.6483
  123OSM   H10F13128   3.221   4.414   7.567  1.7260  0.0630  0.9076
  123OSM   C11F13129   3.224   4.205   7.639 -0.7520  0.1618 -0.4407
  123OSM   H11F13130   3.281   4.115   7.608 -1.4503 -0.0303 -1.1938
  123OSM   H11G13131   3.123   4.163   7.659  0.3224 -2.2213  0.1915
  123OSM   C12F13132   3.296   4.269   7.764  0.3649  0.1173  0.2339
  123OSM   H12F13133   3.392   4.320   7.738  0.6819  0.0456  1.2587
  123OSM   H12G13134   3.333   4.189   7.832 -0.3237 -0.8791 -0.5512
  123OSM   C13F13135   3.208   4.364   7.835 -0.3001 -0.1137 -0.2297
  123OSM   H13F13136   3.112   4.326   7.875 -0.4787  1.0462  0.4978
  123OSM   H13G13137   3.185   4.452   7.772 -2.0286 -0.2281  0.2238
  123OSM   C14F13138   3.280   4.413   7.961 -0.0478 -0.1905 -0.7518
  123OSM   H14F13139   3.386   4.440   7.939  0.2005 -1.1563 -0.7658
  123OSM   H14G13140   3.302   4.327   8.029  0.5366  0.1501 -0.5006
  123OSM   C15F13141   3.206   4.517   8.038  0.1784  0.4366 -0.3299
  123OSM   H15F13142   3.106   4.478   8.065  0.0731  1.0584  0.1817
  123OSM   H15G13143   3.189   4.611   7.982 -1.9029  0.4346  0.2420
  123OSM   C16F13144   3.287   4.554   8.165  0.5263  0.3981 -0.3855
  123OSM   H16F13145   3.387   4.593   8.136  0.9175 -0.9102 -0.8192
  123OSM   H16G13146   3.303   4.466   8.230 -0.2186  1.1345  0.8193
  123OSM   C17F13147   3.198   4.652   8.255 -0.0119 -0.1226 -0.1054
  123OSM   H17F13148   3.106   4.600   8.290  0.2307 -1.8343 -1.9068
  123OSM   H17G13149   3.179   4.745   8.197  0.1009  0.1476  0.2854
  123OSM   C18F13150   3.263   4.710   8.379  0.8721  0.7896  0.4468
  123OSM   H18F13151   3.314   4.631   8.439  0.1009  0.2061  0.3368
  123OSM   H18G13152   3.191   4.769   8.438  1.8905  2.4035  0.0974
  123OSM   H18H13153   3.344   4.776   8.341  1.0586  1.2610  1.6491
  124OSM      N13154   6.503   2.722   6.312 -0.3409 -0.0477 -0.0456
  124OSM    C1513155   6.420   2.777   6.200  0.2801  0.6543  0.1186
  124OSM   H15A13156   6.324   2.726   6.192  1.7293 -2.0581 -0.7992
  124OSM   H15B13157   6.477   2.755   6.111  0.1696 -0.4625  0.3165
  124OSM   H15C13158   6.397   2.881   6.218  1.0411  1.0147 -0.9694
  124OSM    C1413159   6.638   2.791   6.304 -0.6202 -0.3168 -0.5924
  124OSM   H14A13160   6.627   2.898   6.316  1.9478 -0.1888  1.0213
  124OSM   H14B13161   6.685   2.774   6.209 -0.4032 -1.5123 -0.2794
  124OSM   H14C13162   6.707   2.763   6.382 -1.2199 -1.4121 -0.4525
  124OSM    C1313163   6.442   2.762   6.449  0.6807 -0.5600  0.5231
  124OSM   H13A13164   6.444   2.870   6.455 -1.2946 -0.5367  1.1419
  124OSM   H13B13165   6.495   2.723   6.535  0.9341 -0.9026  0.2156
  124OSM   H13C13166   6.340   2.730   6.462 -0.2229  1.3857 -1.4566
  124OSM    C1213167   6.520   2.569   6.304 -0.2127 -0.2322  0.2301
  124OSM   H12A13168   6.435   2.508   6.330 -0.1836 -0.5883 -0.4832
  124OSM   H12B13169   6.588   2.539   6.382 -0.2648  1.7493  1.0617
  124OSM    C1113170   6.585   2.511   6.178  0.1504 -0.0511 -0.1727
  124OSM   H11A13171   6.530   2.549   6.089  0.3099  0.7938  0.0806
  124OSM   H11B13172   6.572   2.401   6.182  0.2160  0.0336  2.8622
  124OSM      P13173   6.829   2.450   6.239 -0.1207  0.4869  0.4580
  124OSM    O1313174   6.830   2.316   6.175  0.1720  0.5135  0.0398
  124OSM    O1413175   6.964   2.508   6.264  0.1179 -0.0180 -0.1088
  124OSM    O1113176   6.764   2.439   6.382  0.6720 -0.0921  0.1210
  124OSM    O1213177   6.728   2.547   6.164  0.2155  0.1537 -0.7727
  124OSM    C1S13178   6.813   2.339   6.468  0.4899 -0.2643  0.1531
  124OSM    H1S13179   6.900   2.284   6.427  1.2987 -0.4883  2.1070
  124OSM    H1T13180   6.727   2.273   6.493  0.9029 -0.9036 -0.1121
  124OSM     NF13181   6.932   2.291   6.672 -0.0798  0.4188  0.5611
  124OSM    HNF13182   6.873   2.225   6.717 -0.4689 -0.0594 -0.6275
  124OSM    C2S13183   6.866   2.397   6.601 -0.4697  0.2596 -0.2078
  124OSM    H2S13184   6.935   2.481   6.578  1.6069 -1.1306  0.8752
  124OSM    C3S13185   6.749   2.455   6.685  0.3029  0.0724  0.7622
  124OSM    H3S13186   6.661   2.387   6.693  0.8969 -0.5687  1.8221
  124OSM     O313187   6.688   2.565   6.613 -0.1671 -0.0773 -1.0924
  124OSM    HO313188   6.740   2.561   6.532  0.5402  0.0116 -0.6460
  124OSM    C4S13189   6.783   2.503   6.823 -0.0519 -0.0954 -0.5152
  124OSM    H4S13190   6.853   2.588   6.823 -1.4884  1.1208  1.2599
  124OSM    C5S13191   6.742   2.441   6.932 -0.3284 -0.2272 -0.2717
  124OSM    H5S13192   6.666   2.363   6.925 -0.2123 -0.4966  1.2634
  124OSM    C6S13193   6.771   2.486   7.075 -0.1026 -0.0127 -0.0107
  124OSM    H6S13194   6.681   2.537   7.116  1.5810  1.9307  1.3331
  124OSM    H6T13195   6.848   2.565   7.078 -3.4107  3.3866 -0.1991
  124OSM    C7S13196   6.800   2.365   7.164  0.5445 -0.4180 -0.6238
  124OSM    H7S13197   6.877   2.293   7.129  2.2052  0.4933  1.0358
  124OSM    H7T13198   6.711   2.299   7.159 -0.3578  0.9083 -2.5100
  124OSM    C8S13199   6.832   2.410   7.307 -0.6074  0.0742  0.1932
  124OSM    H8S13200   6.765   2.491   7.342 -0.6918  0.7537 -1.5196
  124OSM    H8T13201   6.935   2.454   7.307  0.8242 -3.0730 -1.6068
  124OSM    C9S13202   6.829   2.292   7.405 -0.0182 -0.5703 -0.0655
  124OSM    H9S13203   6.885   2.199   7.380 -2.0151 -2.3565  1.8783
  124OSM    H9T13204   6.725   2.255   7.409 -0.5815  0.5296 -3.3561
  124OSM   C10S13205   6.870   2.355   7.538 -0.1519 -0.3719 -0.0646
  124OSM   H10S13206   6.790   2.423   7.574  0.0038 -0.1772 -0.0839
  124OSM   H10T13207   6.946   2.427   7.501  0.5571  0.4640  2.8562
  124OSM   C11S13208   6.934   2.261   7.641  0.7052  0.0539  0.1197
  124OSM   H11S13209   6.993   2.190   7.579  1.1124  0.4653  0.0308
  124OSM   H11T13210   6.855   2.200   7.688 -2.3099  2.7808 -1.1897
  124OSM   C12S13211   7.009   2.342   7.752  0.0622 -0.5981 -0.0154
  124OSM   H12S13212   7.086   2.390   7.687  0.4644 -1.0204  0.1478
  124OSM   H12T13213   7.072   2.280   7.819 -0.5265 -1.2395 -0.0582
  124OSM   C13S13214   6.922   2.439   7.829  0.1874 -0.1360  0.1045
  124OSM   H13S13215   6.891   2.526   7.766  1.2577 -2.0959 -3.2499
  124OSM   H13T13216   6.989   2.483   7.906  1.0378 -1.3223  0.0500
  124OSM   C14S13217   6.798   2.378   7.897  0.0823  0.4804  0.4555
  124OSM   H14S13218   6.834   2.294   7.961  0.4866  0.3710  0.0829
  124OSM   H14T13219   6.724   2.344   7.822  0.0987  2.3123 -0.4138
  124OSM   C15S13220   6.729   2.468   7.995 -0.6066 -0.1152  0.4480
  124OSM   H15S13221   6.635   2.424   8.033 -1.0733 -0.4886 -1.0897
  124OSM   H15T13222   6.685   2.552   7.937 -0.8409 -0.4979  0.0677
  124OSM   C16S13223   6.817   2.501   8.111  0.6883 -0.4897  0.4696
  124OSM   H16S13224   6.886   2.587   8.094 -1.5738  1.2579 -0.1227
  124OSM   H16T13225   6.887   2.417   8.129  0.0414 -0.8651  1.2700
  124OSM   C17S13226   6.751   2.526   8.248  0.1214  0.4311  0.1046
  124OSM   H17S13227   6.663   2.462   8.272 -1.7193  1.8698 -2.6549
  124OSM   H17T13228   6.714   2.630   8.241 -0.2702  0.1528 -2.1730
  124OSM   C18S13229   6.847   2.518   8.366 -0.1627  0.3410  0.1154
  124OSM   H18S13230   6.945   2.565   8.343 -0.4622 -0.6184 -3.4533
  124OSM   H18T13231   6.862   2.409   8.379  1.1341  0.3792 -1.0095
  124OSM   H18U13232   6.816   2.550   8.468 -1.6540 -1.0360  0.1169
  124OSM    C1F13233   7.059   2.272   6.658 -0.1245 -0.4589  0.4399
  124OSM     OF13234   7.129   2.350   6.603 -0.4947  0.1001 -0.5982
  124OSM    C2F13235   7.122   2.145   6.712  0.2058  0.1622 -0.1079
  124OSM    H2F13236   7.151   2.092   6.619  0.7913 -0.2819  0.3263
  124OSM    H2G13237   7.044   2.083   6.761 -1.4816  1.4093 -1.1304
  124OSM    C3F13238   7.245   2.175   6.804  1.0128  0.4355  0.4620
  124OSM    H3F13239   7.312   2.257   6.770  0.5993  0.4786 -0.2609
  124OSM    H3G13240   7.284   2.073   6.825 -0.9691 -0.0321  2.0164
  124OSM    C4F13241   7.177   2.217   6.934  0.6098  0.3498 -0.0419
  124OSM    H4F13242   7.109   2.136   6.970  1.2921 -0.6005 -0.8693
  124OSM    H4G13243   7.120   2.311   6.920 -0.3750 -0.2709 -0.2388
  124OSM    C5F13244   7.277   2.245   7.051 -0.2303  0.2738 -0.2356
  124OSM    H5F13245   7.341   2.330   7.020  0.3448  1.5407  4.0862
  124OSM    H5G13246   7.332   2.151   7.072 -2.2364 -0.3506  2.6524
  124OSM    C6F13247   7.209   2.283   7.190 -0.8893  0.0330 -0.1299
  124OSM    H6F13248   7.117   2.221   7.200 -0.4794 -0.5677 -0.0796
  124OSM    H6G13249   7.188   2.392   7.192 -0.1522  0.1655  1.9338
  124OSM    C7F13250   7.300   2.253   7.313  0.3276  0.5778 -0.3041
  124OSM    H7F13251   7.272   2.146   7.327  0.7331  0.8226  2.6890
  124OSM    H7G13252   7.252   2.298   7.403 -0.4046 -0.6687 -0.0588
  124OSM    C8F13253   7.453   2.280   7.306  0.3527  0.2191  0.1993
  124OSM    H8F13254   7.494   2.284   7.203 -2.1926 -0.8181 -0.8975
  124OSM    H8G13255   7.508   2.206   7.369  0.6117  1.1164  1.0449
  124OSM    C9F13256   7.477   2.412   7.370 -1.2814  0.5841 -0.0405
  124OSM    H9F13257   7.473   2.499   7.302 -2.6692  0.3025 -0.3281
  124OSM   C10F13258   7.485   2.426   7.503 -0.6207 -0.7880 -0.1922
  124OSM   H10F13259   7.513   2.527   7.535 -1.1667 -1.3546  2.1998
  124OSM   C11F13260   7.465   2.321   7.606  0.2034  0.6552 -0.2397
  124OSM   H11F13261   7.561   2.279   7.643 -1.2598 -1.2916  1.4909
  124OSM   H11G13262   7.409   2.231   7.574 -0.7785  0.8959  0.7864
  124OSM   C12F13263   7.393   2.374   7.735  0.4755  0.6606 -0.3594
  124OSM   H12F13264   7.301   2.431   7.709  0.9133  0.4902 -2.3912
  124OSM   H12G13265   7.459   2.449   7.782 -0.1705  1.6000 -0.9183
  124OSM   C13F13266   7.348   2.259   7.833  0.2560 -0.2280 -0.6225
  124OSM   H13F13267   7.427   2.181   7.838  2.2629  1.8449  1.6588
  124OSM   H13G13268   7.265   2.193   7.800 -1.2704  0.4618  1.6561
  124OSM   C14F13269   7.319   2.309   7.977 -0.0737  0.1782 -0.4595
  124OSM   H14F13270   7.258   2.401   7.965 -0.3439 -0.0611 -0.9344
  124OSM   H14G13271   7.418   2.324   8.026  0.0723 -1.7027 -0.1395
  124OSM   C15F13272   7.250   2.207   8.063 -0.7955 -0.7066  0.1674
  124OSM   H15F13273   7.283   2.104   8.039 -2.5321 -1.2604  0.1131
  124OSM   H15G13274   7.142   2.216   8.039 -0.5786  2.5236  0.1354
  124OSM   C16F13275   7.277   2.235   8.209  0.8378 -0.0530  0.4729
  124OSM   H16F13276   7.386   2.229   8.228  0.6447  1.9626  2.3543
  124OSM   H16G13277   7.220   2.154   8.259 -1.0219 -0.6368 -2.4472
  124OSM   C17F13278   7.206   2.367   8.261 -0.3680 -0.0043 -0.1988
  124OSM   H17F13279   7.096   2.355   8.248 -0.7664 -1.8225  4.3095
  124OSM   H17G13280   7.236   2.456   8.201 -0.4084  0.3750  0.3379
  124OSM   C18F13281   7.230   2.400   8.408 -0.6372 -0.2367 -0.2254
  124OSM   H18F13282   7.202   2.308   8.464 -0.7276 -1.1266 -1.7060
  124OSM   H18G13283   7.170   2.492   8.423  0.6355  0.1384  2.9847
  124OSM   H18H13284   7.338   2.411   8.431 -0.9914 -1.1648  2.0470
  125OSM      N13285   6.129   3.379   6.249 -0.1049  0.2310  0.1143
  125OSM    C1513286   6.109   3.528   6.294 -0.0096  0.1899  0.2201
  125OSM   H15A13287   6.192   3.552   6.360 -0.6307 -0.0468  1.0959
  125OSM   H15B13288   6.018   3.544   6.350 -0.4124 -2.2045  0.2756
  125OSM   H15C13289   6.111   3.605   6.218  0.6894 -1.8485 -1.8825
  125OSM    C1413290   6.129   3.290   6.370 -0.2906  0.4802 -0.1556
  125OSM   H14A13291   6.202   3.323   6.441 -1.4812 -0.3079  1.4627
  125OSM   H14B13292   6.147   3.186   6.346 -0.9871 -0.2027  2.1998
  125OSM   H14C13293   6.034   3.301   6.421  0.7038  2.2835  1.3765
  125OSM    C1313294   6.020   3.340   6.157 -0.4198 -1.0553 -0.1136
  125OSM   H13A13295   5.939   3.306   6.220  0.6468 -0.6803  1.4942
  125OSM   H13B13296   6.045   3.251   6.101  2.8652 -1.1847  1.4482
  125OSM   H13C13297   5.984   3.414   6.087 -0.8233  0.2799  1.4788
  125OSM    C1213298   6.257   3.362   6.177 -0.2200  0.0849 -1.0767
  125OSM   H12A13299   6.247   3.410   6.080  1.3384  2.4240 -0.1310
  125OSM   H12B13300   6.275   3.258   6.153  1.5598 -0.1004  0.9237
  125OSM    C1113301   6.383   3.398   6.251 -0.3783 -0.6120 -0.0443
  125OSM   H11A13302   6.375   3.375   6.360  1.9015 -1.1452  0.0302
  125OSM   H11B13303   6.416   3.504   6.254  0.4962 -0.8746 -0.1571
  125OSM      P13304   6.515   3.168   6.243 -0.0566  0.3092  0.0521
  125OSM    O1313305   6.396   3.083   6.211 -0.2663  0.3243 -0.3386
  125OSM    O1413306   6.651   3.132   6.193  0.5021  0.0546 -0.6311
  125OSM    O1113307   6.533   3.176   6.403  0.5861  0.0939 -0.0489
  125OSM    O1213308   6.491   3.324   6.196 -0.5371  1.0422  0.1022
  125OSM    C1S13309   6.623   3.273   6.460  0.3283  0.8154 -0.4929
  125OSM    H1S13310   6.573   3.370   6.439  0.0598  0.9812  0.8615
  125OSM    H1T13311   6.709   3.276   6.390 -0.6660 -0.9985 -1.8262
  125OSM     NF13312   6.689   3.368   6.687 -0.1031 -0.3891 -0.4209
  125OSM    HNF13313   6.784   3.384   6.712 -0.6200  1.4595  0.4377
  125OSM    C2S13314   6.654   3.250   6.606  0.3821 -0.4403  1.1125
  125OSM    H2S13315   6.554   3.215   6.641 -0.9181  3.0400  1.0320
  125OSM    C3S13316   6.752   3.133   6.630 -0.4234 -0.3523  0.0895
  125OSM    H3S13317   6.856   3.172   6.630 -0.3090 -0.6507 -0.5650
  125OSM     O313318   6.758   3.027   6.532  0.4878 -0.5244  0.2645
  125OSM    HO313319   6.715   3.066   6.455 -1.3358 -1.0142  0.9899
  125OSM    C4S13320   6.733   3.072   6.768 -0.0873  0.0764  0.0429
  125OSM    H4S13321   6.780   3.128   6.850 -0.2771  0.3360 -0.0259
  125OSM    C5S13322   6.671   2.959   6.792 -0.1006 -0.6922 -0.0057
  125OSM    H5S13323   6.626   2.912   6.703 -1.3235 -0.6724  0.5972
  125OSM    C6S13324   6.643   2.890   6.919 -0.9243  0.0488 -0.3502
  125OSM    H6S13325   6.673   2.785   6.899 -2.0494  0.1343 -2.6279
  125OSM    H6T13326   6.535   2.875   6.938 -0.7547 -0.7203  0.0262
  125OSM    C7S13327   6.723   2.935   7.045 -0.2581 -0.4543  0.1355
  125OSM    H7S13328   6.697   3.037   7.081  1.0074 -0.2675  0.5222
  125OSM    H7T13329   6.832   2.950   7.028 -0.7700  0.8797 -2.2381
  125OSM    C8S13330   6.710   2.841   7.165 -0.5357  0.6393 -0.2283
  125OSM    H8S13331   6.788   2.763   7.155 -0.5392  0.6005  0.0573
  125OSM    H8T13332   6.612   2.790   7.167  0.6583 -1.8387 -2.1674
  125OSM    C9S13333   6.716   2.922   7.298 -0.0259 -0.6963 -0.3174
  125OSM    H9S13334   6.637   2.999   7.304  1.4701  0.7659  1.2415
  125OSM    H9T13335   6.806   2.987   7.301 -2.1231  2.2440  1.7084
  125OSM   C10S13336   6.704   2.833   7.417  0.0100 -0.3428 -0.6566
  125OSM   H10S13337   6.789   2.765   7.397  1.1199  0.8407 -0.0751
  125OSM   H10T13338   6.603   2.790   7.429  0.2869 -0.1062  3.2230
  125OSM   C11S13339   6.754   2.907   7.545  0.2014  0.2514 -0.3720
  125OSM   H11S13340   6.701   3.004   7.550 -0.5945 -0.2534  1.2386
  125OSM   H11T13341   6.862   2.935   7.546  0.6883 -1.3481 -2.6638
  125OSM   C12S13342   6.729   2.832   7.675  1.0257  0.8367 -0.2828
  125OSM   H12S13343   6.784   2.736   7.668  1.2377  0.7944  1.6410
  125OSM   H12T13344   6.624   2.798   7.681  1.4346 -0.1617  1.8580
  125OSM   C13S13345   6.780   2.916   7.797  0.2603  0.1728  0.2964
  125OSM   H13S13346   6.724   3.011   7.782  1.2902  0.1784 -4.3789
  125OSM   H13T13347   6.886   2.937   7.775 -0.8458  3.9392 -1.9194
  125OSM   C14S13348   6.766   2.862   7.941  0.2414 -0.5900  0.2976
  125OSM   H14S13349   6.818   2.766   7.964 -0.1931 -1.3000 -1.5530
  125OSM   H14T13350   6.657   2.841   7.946 -0.3576  2.3684  0.3717
  125OSM   C15S13351   6.793   2.973   8.048 -0.4511  0.6078  0.7198
  125OSM   H15S13352   6.696   3.013   8.083 -0.1598 -0.0316  2.3222
  125OSM   H15T13353   6.846   3.052   7.991 -1.4939  1.5885  1.0962
  125OSM   C16S13354   6.887   2.931   8.166 -0.4033  0.7433  0.5339
  125OSM   H16S13355   6.984   2.904   8.119  0.2170  1.3575  1.4397
  125OSM   H16T13356   6.847   2.835   8.205 -2.1880  0.3208 -2.1837
  125OSM   C17S13357   6.907   3.028   8.280  0.3379 -0.1468  0.4259
  125OSM   H17S13358   6.809   3.045   8.330  0.3305  1.8895 -0.2449
  125OSM   H17T13359   6.941   3.124   8.235 -0.9596  0.1198 -0.0096
  125OSM   C18S13360   6.988   2.988   8.397  0.4542 -0.4180 -0.0825
  125OSM   H18S13361   7.089   2.960   8.359  0.0540 -2.3285  0.2075
  125OSM   H18T13362   6.940   2.904   8.451 -1.0121  1.7765  2.1307
  125OSM   H18U13363   6.999   3.071   8.471  1.1083 -1.4326  0.9709
  125OSM    C1F13364   6.602   3.464   6.706  0.2648  1.1952 -0.4486
  125OSM     OF13365   6.483   3.443   6.697  0.2006 -0.5454 -0.4973
  125OSM    C2F13366   6.658   3.597   6.743  0.6798  0.3043  0.8644
  125OSM    H2F13367   6.621   3.668   6.666  1.2649 -0.6394 -0.3214
  125OSM    H2G13368   6.768   3.598   6.758  1.1427  1.6412 -2.1567
  125OSM    C3F13369   6.604   3.656   6.875 -0.0986 -0.3842  1.0608
  125OSM    H3F13370   6.494   3.649   6.857  0.1405 -0.9806 -0.1809
  125OSM    H3G13371   6.621   3.766   6.885  1.6605 -0.5826  0.3341
  125OSM    C4F13372   6.665   3.596   7.001  0.2794  0.3044  0.0067
  125OSM    H4F13373   6.774   3.617   7.008  0.1386  0.7468  1.0349
  125OSM    H4G13374   6.649   3.486   7.006  1.6233  0.0451 -1.0884
  125OSM    C5F13375   6.601   3.660   7.120  0.4787 -0.2521 -0.3896
  125OSM    H5F13376   6.490   3.659   7.118  0.4082 -2.7637  2.3167
  125OSM    H5G13377   6.629   3.767   7.134 -0.8821 -0.0409  0.8024
  125OSM    C6F13378   6.641   3.585   7.248  0.0049 -0.4599  0.2660
  125OSM    H6F13379   6.751   3.581   7.264  0.4677 -2.5325 -2.8657
  125OSM    H6G13380   6.626   3.477   7.227 -1.7337  0.3506 -3.0467
  125OSM    C7F13381   6.569   3.628   7.372 -0.6722  0.4517 -0.2579
  125OSM    H7F13382   6.459   3.617   7.375 -0.6680  0.1166 -1.2780
  125OSM    H7G13383   6.605   3.732   7.389  1.4114 -0.2111 -0.3986
  125OSM    C8F13384   6.620   3.542   7.493  0.0307 -0.2925  0.2547
  125OSM    H8F13385   6.628   3.434   7.471  2.0617  0.1863 -1.5582
  125OSM    H8G13386   6.543   3.557   7.571  0.3276  3.7051 -0.0736
  125OSM    C9F13387   6.743   3.600   7.561  0.0387 -0.2741  0.1078
  125OSM    H9F13388   6.836   3.591   7.503 -0.9601  1.4905 -1.8533
  125OSM   C10F13389   6.750   3.659   7.680 -0.4408  0.0933  0.5999
  125OSM   H10F13390   6.845   3.703   7.713  0.8925 -0.2723 -2.6183
  125OSM   C11F13391   6.633   3.682   7.782 -0.0299 -0.1118 -0.6480
  125OSM   H11F13392   6.540   3.712   7.731 -0.1074  1.3360  0.3142
  125OSM   H11G13393   6.670   3.761   7.851  1.1351 -1.6978  0.5861
  125OSM   C12F13394   6.609   3.558   7.869  0.5458  0.4599  0.2255
  125OSM   H12F13395   6.703   3.515   7.907  0.8686  1.9657  1.1869
  125OSM   H12G13396   6.560   3.476   7.811 -0.6623  0.7829  0.7722
  125OSM   C13F13397   6.506   3.578   7.983 -0.4503 -0.2973  0.1916
  125OSM   H13F13398   6.421   3.640   7.947  0.0534  0.7583  0.7923
  125OSM   H13G13399   6.558   3.627   8.068  0.6448 -2.4863  0.8215
  125OSM   C14F13400   6.443   3.459   8.050 -0.4450  0.2151 -0.5372
  125OSM   H14F13401   6.390   3.391   7.981 -0.3116 -0.8333  0.3752
  125OSM   H14G13402   6.371   3.500   8.124 -0.2027  0.4517 -0.4320
  125OSM   C15F13403   6.553   3.365   8.100 -0.3590 -0.4614 -0.0908
  125OSM   H15F13404   6.635   3.349   8.028 -0.2188  2.8235 -0.7262
  125OSM   H15G13405   6.508   3.265   8.117 -0.8464 -0.2477 -0.1104
  125OSM   C16F13406   6.617   3.400   8.238  0.7212 -0.8076 -0.4063
  125OSM   H16F13407   6.533   3.428   8.305  2.1446  1.6653  0.4103
  125OSM   H16G13408   6.688   3.485   8.240  0.3824 -0.4553 -2.4457
  125OSM   C17F13409   6.695   3.282   8.286  0.0201 -0.2468 -0.3775
  125OSM   H17F13410   6.775   3.262   8.211 -0.6416  1.9804 -1.7481
  125OSM   H17G13411   6.625   3.198   8.302 -1.5969  1.2133  0.3412
  125OSM   C18F13412   6.767   3.301   8.422 -0.3828 -0.9335 -0.2975
  125OSM   H18F13413   6.685   3.320   8.495 -1.3131 -4.0138 -0.4409
  125OSM   H18G13414   6.831   3.390   8.435 -2.1683 -0.0665  3.3443
  125OSM   H18H13415   6.827   3.216   8.462  1.9032  0.8308  0.0839
  126OSM      N13416   4.178   2.451   6.555  0.3324  0.5339 -0.6959
  126OSM    C1513417   4.172   2.301   6.563 -0.1274  0.2923 -0.9827
  126OSM   H15A13418   4.156   2.270   6.665 -0.5523 -0.7344 -1.3521
  126OSM   H15B13419   4.269   2.267   6.529 -0.0384  1.2246 -1.6788
  126OSM   H15C13420   4.092   2.260   6.503  0.0875 -0.5111 -0.7342
  126OSM    C1413421   4.192   2.478   6.401 -0.2132  0.4655 -0.8365
  126OSM   H14A13422   4.095   2.489   6.353 -0.7856  0.7593  0.3738
  126OSM   H14B13423   4.251   2.400   6.355 -0.1326  0.3397 -0.5230
  126OSM   H14C13424   4.245   2.570   6.383  1.4026  0.0050  1.4676
  126OSM    C1313425   4.059   2.511   6.609  0.3286 -0.3067 -0.7002
  126OSM   H13A13426   4.073   2.615   6.632 -0.5021 -0.5914  1.1790
  126OSM   H13B13427   4.041   2.472   6.708  3.6735  1.1850  0.5495
  126OSM   H13C13428   3.969   2.498   6.551 -0.5725 -0.3989  0.7102
  126OSM    C1213429   4.301   2.497   6.635  0.3385  0.3631 -0.2428
  126OSM   H12A13430   4.388   2.454   6.586 -0.3368  1.8253 -2.8415
  126OSM   H12B13431   4.291   2.445   6.729  0.4018 -1.9264 -1.4458
  126OSM    C1113432   4.329   2.644   6.655  0.4734 -0.7894 -0.0792
  126OSM   H11A13433   4.429   2.658   6.702  0.0227  1.3982  0.2855
  126OSM   H11B13434   4.251   2.675   6.728 -0.3075  0.2889 -1.3493
  126OSM      P13435   4.244   2.859   6.528 -0.0470 -0.1193 -0.3637
  126OSM    O1313436   4.285   2.936   6.407 -0.5241  0.1005  0.5573
  126OSM    O1413437   4.102   2.833   6.554  0.5154 -0.0931 -0.2754
  126OSM    O1113438   4.316   2.934   6.648  0.5306  0.1990  0.5415
  126OSM    O1213439   4.319   2.716   6.529 -0.0660  0.4695  0.0427
  126OSM    C1S13440   4.246   2.999   6.757 -0.7518  0.1994 -0.0150
  126OSM    H1S13441   4.137   2.998   6.736 -0.9869  0.7984  1.0891
  126OSM    H1T13442   4.271   3.107   6.765 -1.3140  0.4237 -1.2343
  126OSM     NF13443   4.201   3.045   6.994  0.3650 -0.0467  0.3610
  126OSM    HNF13444   4.222   3.141   7.009  1.8038 -0.1736 -0.7622
  126OSM    C2S13445   4.286   2.963   6.906  0.3847  0.5453  0.0445
  126OSM    H2S13446   4.266   2.854   6.920  0.0027  0.2669 -2.4540
  126OSM    C3S13447   4.444   2.971   6.928 -0.6992  0.2436 -0.7384
  126OSM    H3S13448   4.464   3.080   6.921  1.6358 -0.1674 -0.8318
  126OSM     O313449   4.516   2.908   6.822  0.0179 -0.2633 -0.1161
  126OSM    HO313450   4.448   2.898   6.755  0.5298  2.7867 -1.1621
  126OSM    C4S13451   4.475   2.918   7.067 -0.4109 -0.2010 -0.0693
  126OSM    H4S13452   4.462   2.992   7.147 -0.1417  0.7902 -0.9379
  126OSM    C5S13453   4.518   2.791   7.091 -0.1168 -0.3101  0.2221
  126OSM    H5S13454   4.550   2.726   7.008  2.1240 -0.1868  0.9448
  126OSM    C6S13455   4.545   2.731   7.228  0.0472  0.3627  0.2776
  126OSM    H6S13456   4.654   2.706   7.230  0.0876  0.2196 -1.9594
  126OSM    H6T13457   4.498   2.631   7.241  1.4051 -0.4747 -0.9980
  126OSM    C7S13458   4.509   2.811   7.355  0.4660  0.0296  0.3494
  126OSM    H7S13459   4.398   2.816   7.365  0.4388  0.1079  0.0118
  126OSM    H7T13460   4.550   2.914   7.354 -0.5568  0.4445  0.0389
  126OSM    C8S13461   4.555   2.737   7.484 -0.3051 -0.3236  0.7329
  126OSM    H8S13462   4.663   2.712   7.483 -0.4892 -1.1217  0.1604
  126OSM    H8T13463   4.511   2.634   7.484 -0.8021 -0.1100  0.1750
  126OSM    C9S13464   4.499   2.804   7.612 -0.1823 -0.2766 -0.1535
  126OSM    H9S13465   4.395   2.770   7.629  0.1134 -1.8918 -1.4150
  126OSM    H9T13466   4.500   2.914   7.623  0.4785 -0.5116  2.2965
  126OSM   C10S13467   4.564   2.737   7.742  0.1551 -0.2950 -0.3889
  126OSM   H10S13468   4.673   2.762   7.742  0.1435 -0.1764  1.0955
  126OSM   H10T13469   4.548   2.629   7.726  0.3058 -0.3982  0.1407
  126OSM   C11S13470   4.505   2.755   7.878 -1.1243  0.3202  0.6798
  126OSM   H11S13471   4.396   2.736   7.877 -1.1519  0.5054 -0.4777
  126OSM   H11T13472   4.517   2.861   7.909 -0.2204  0.3713  0.1688
  126OSM   C12S13473   4.572   2.669   7.993 -0.7303 -0.3975 -0.0078
  126OSM   H12S13474   4.683   2.663   7.986 -0.8235 -1.7777 -0.5119
  126OSM   H12T13475   4.545   2.562   7.983 -0.1449 -0.4692 -0.8779
  126OSM   C13S13476   4.521   2.706   8.135  0.5040 -0.5090  0.1932
  126OSM   H13S13477   4.412   2.685   8.135  0.5710 -1.2611  3.5856
  126OSM   H13T13478   4.539   2.814   8.154 -1.3210 -0.0530 -0.6088
  126OSM   C14S13479   4.580   2.624   8.251  0.3182  0.0464  0.2500
  126OSM   H14S13480   4.690   2.639   8.254 -0.0453  2.8006  2.2311
  126OSM   H14T13481   4.572   2.516   8.226 -0.0344  0.6143 -2.1938
  126OSM   C15S13482   4.518   2.641   8.389 -0.2883 -0.6574  0.3751
  126OSM   H15S13483   4.409   2.619   8.388 -0.7173  1.3274  0.4450
  126OSM   H15T13484   4.534   2.748   8.414  0.3124 -0.8040  0.6114
  126OSM   C16S13485   4.594   2.562   8.491 -0.5286  0.3853  0.2213
  126OSM   H16S13486   4.699   2.597   8.483 -1.0678  2.2450  1.0289
  126OSM   H16T13487   4.584   2.456   8.460 -3.4103  1.5731 -3.3223
  126OSM   C17S13488   4.549   2.564   8.640 -0.6472 -0.6075  0.3251
  126OSM   H17S13489   4.438   2.560   8.648 -0.7841  2.2697  0.5597
  126OSM   H17T13490   4.589   2.653   8.693 -0.4914 -0.8643  0.6358
  126OSM   C18S13491   4.603   2.448   8.722 -0.0719  0.5293  0.1281
  126OSM   H18S13492   4.714   2.435   8.725 -0.2553 -1.0278  0.8663
  126OSM   H18T13493   4.556   2.356   8.682  1.0094 -0.3762  0.9109
  126OSM   H18U13494   4.568   2.450   8.827  1.4088 -0.5168  0.6698
  126OSM    C1F13495   4.070   3.013   7.005  0.2543 -0.5940 -0.8564
  126OSM     OF13496   4.033   2.905   6.961  0.3814  0.4381  0.9489
  126OSM    C2F13497   3.977   3.121   7.050 -0.3291  0.2528 -0.0455
  126OSM    H2F13498   3.915   3.140   6.961 -1.1351  0.4968  0.5599
  126OSM    H2G13499   4.028   3.213   7.086  2.8983 -0.7766 -1.7700
  126OSM    C3F13500   3.878   3.068   7.170 -0.0675 -0.5878 -0.4100
  126OSM    H3F13501   3.935   3.018   7.252  1.6239  1.1262 -0.5268
  126OSM    H3G13502   3.806   2.998   7.122 -1.0951  0.8739 -1.0094
  126OSM    C4F13503   3.803   3.189   7.231 -0.5520  0.5452  0.1744
  126OSM    H4F13504   3.715   3.146   7.284  0.1525  0.5980  1.3906
  126OSM    H4G13505   3.775   3.265   7.155 -0.2301  0.3494 -0.1433
  126OSM    C5F13506   3.883   3.270   7.333 -0.7436  0.3380  0.1130
  126OSM    H5F13507   3.954   3.335   7.277  0.5317 -1.9064 -0.9732
  126OSM    H5G13508   3.955   3.202   7.383 -1.5388 -0.9372 -0.4446
  126OSM    C6F13509   3.788   3.348   7.427 -0.0003 -0.2912 -0.3552
  126OSM    H6F13510   3.723   3.277   7.482 -0.7974 -0.1702 -1.1266
  126OSM    H6G13511   3.713   3.403   7.366  0.1491 -0.6951 -0.9053
  126OSM    C7F13512   3.853   3.442   7.528  0.6713 -0.4019  0.2430
  126OSM    H7F13513   3.775   3.484   7.595  1.5315  0.1131  0.9237
  126OSM    H7G13514   3.904   3.531   7.486  0.1278 -1.7185 -3.3539
  126OSM    C8F13515   3.963   3.375   7.620  0.9450 -0.2060 -0.5510
  126OSM    H8F13516   4.014   3.460   7.670 -1.1390  0.0363  1.2184
  126OSM    H8G13517   4.032   3.316   7.556  2.8202  2.3332 -0.9576
  126OSM    C9F13518   3.894   3.285   7.726  0.4023 -1.3978  0.5993
  126OSM    H9F13519   3.853   3.189   7.692  0.1058 -1.9804  2.5594
  126OSM   C10F13520   3.889   3.310   7.861 -0.1422 -0.2654 -0.1451
  126OSM   H10F13521   3.832   3.240   7.923  0.8022 -0.2290  0.7751
  126OSM   C11F13522   3.948   3.440   7.929 -0.4502 -0.3520  0.0421
  126OSM   H11F13523   3.902   3.529   7.881  1.7918  1.2945  0.8683
  126OSM   H11G13524   4.055   3.445   7.897 -0.7491  0.1897 -0.8962
  126OSM   C12F13525   3.932   3.450   8.077 -1.0106 -0.3759 -0.3048
  126OSM   H12F13526   3.833   3.407   8.105 -0.0795 -1.5184  1.3882
  126OSM   H12G13527   3.929   3.552   8.121  1.4687 -1.6884  3.2270
  126OSM   C13F13528   4.041   3.382   8.155 -0.4893  0.4688  0.2764
  126OSM   H13F13529   4.133   3.443   8.142 -0.9981  1.3491  0.7688
  126OSM   H13G13530   4.056   3.278   8.120  1.0636  0.2591  1.5448
  126OSM   C14F13531   4.017   3.372   8.305  0.0718 -0.0012 -0.5752
  126OSM   H14F13532   4.107   3.328   8.352  1.9554  3.3976 -0.8382
  126OSM   H14G13533   3.929   3.305   8.320  1.5564 -2.7523 -3.4977
  126OSM   C15F13534   3.982   3.503   8.376  0.3919 -0.1311  0.3120
  126OSM   H15F13535   3.911   3.571   8.324  3.2760  0.7942 -2.5956
  126OSM   H15G13536   4.081   3.553   8.378 -0.0741  0.8440 -0.2789
  126OSM   C16F13537   3.950   3.496   8.526  0.5153 -0.1142  0.1158
  126OSM   H16F13538   4.036   3.461   8.588 -0.0270 -0.3312  0.7600
  126OSM   H16G13539   3.872   3.417   8.534  0.4678  0.0530  1.5467
  126OSM   C17F13540   3.881   3.612   8.603 -0.3120 -0.1567 -0.3124
  126OSM   H17F13541   3.895   3.604   8.713  0.8266  2.0693 -0.2744
  126OSM   H17G13542   3.770   3.608   8.597 -0.2824  1.7663 -2.8519
  126OSM   C18F13543   3.915   3.755   8.559 -0.1242 -0.3606 -0.4194
  126OSM   H18F13544   4.023   3.779   8.558  0.2894 -2.0499  0.4521
  126OSM   H18G13545   3.872   3.815   8.641  0.2794 -0.1787 -0.3400
  126OSM   H18H13546   3.870   3.791   8.464 -0.4706 -0.8119 -0.4302
  127OSM      N13547   4.882   1.485   6.125 -0.3786  0.0437 -0.1104
  127OSM    C1513548   4.866   1.627   6.181  0.0033  0.3143  0.2767
  127OSM   H15A13549   4.790   1.636   6.257  0.2020 -0.2938  0.5581
  127OSM   H15B13550   4.842   1.691   6.098  0.0054  2.2917  1.7694
  127OSM   H15C13551   4.963   1.648   6.223  0.6893  0.2526 -1.2793
  127OSM    C1413552   4.751   1.446   6.074  0.6990  0.1515  0.4931
  127OSM   H14A13553   4.700   1.521   6.016  2.7798  1.5514  0.4321
  127OSM   H14B13554   4.684   1.445   6.159 -1.9389  1.1734 -1.5169
  127OSM   H14C13555   4.752   1.348   6.028  2.1390 -0.4507  1.7571
  127OSM    C1313556   4.977   1.491   6.004 -0.5132 -0.0649  0.6889
  127OSM   H13A13557   5.073   1.524   6.042 -0.9448  0.5220  1.2923
  127OSM   H13B13558   4.930   1.562   5.937 -1.2737  1.1962  2.5053
  127OSM   H13C13559   4.988   1.394   5.958  0.8097  1.2933 -2.0286
  127OSM    C1213560   4.926   1.382   6.221  0.5688  0.7230  0.5077
  127OSM   H12A13561   4.939   1.297   6.156 -0.7493  1.4093 -0.6906
  127OSM   H12B13562   4.844   1.357   6.287 -1.7628  3.3271 -1.2817
  127OSM    C1113563   5.057   1.404   6.302 -0.2107  0.1792 -0.1936
  127OSM   H11A13564   5.057   1.328   6.383 -0.4254 -0.0810 -0.4377
  127OSM   H11B13565   5.047   1.502   6.355 -0.1736 -0.4193  0.9352
  127OSM      P13566   5.286   1.301   6.224 -0.3572  0.2415  0.0542
  127OSM    O1313567   5.238   1.203   6.122 -0.3448  0.4186  0.0284
  127OSM    O1413568   5.419   1.358   6.193  0.4485  0.3308  0.1519
  127OSM    O1113569   5.297   1.230   6.362 -0.0376 -0.0173 -0.0809
  127OSM    O1213570   5.179   1.419   6.234 -0.4671 -0.7823  0.0303
  127OSM    C1S13571   5.372   1.295   6.469  0.3589 -0.6280 -0.2886
  127OSM    H1S13572   5.333   1.398   6.487 -1.2107 -1.3637  0.6636
  127OSM    H1T13573   5.476   1.319   6.440 -0.1589  0.5960 -1.1915
  127OSM     NF13574   5.389   1.277   6.715  0.2443 -0.2790  0.2908
  127OSM    HNF13575   5.468   1.240   6.764  0.9660 -1.0371 -1.4274
  127OSM    C2S13576   5.346   1.213   6.599  1.2962 -0.3080  0.3474
  127OSM    H2S13577   5.235   1.207   6.605  1.3151 -0.8867  0.1616
  127OSM    C3S13578   5.407   1.069   6.594 -0.3989 -0.1866 -0.0791
  127OSM    H3S13579   5.517   1.078   6.606 -0.1511 -0.6049 -1.8634
  127OSM     O313580   5.388   1.005   6.470  0.4084  0.7039 -0.7186
  127OSM    HO313581   5.347   1.062   6.404  0.9245 -0.2844 -1.9070
  127OSM    C4S13582   5.356   0.985   6.709  1.2417  0.3631  0.0300
  127OSM    H4S13583   5.426   0.983   6.794  0.6618  0.9964  0.5321
  127OSM    C5S13584   5.239   0.919   6.707 -0.4155 -0.5979 -0.5881
  127OSM    H5S13585   5.172   0.948   6.624 -0.0599 -0.6547 -0.8924
  127OSM    C6S13586   5.187   0.832   6.817  0.1610 -1.1033 -0.0379
  127OSM    H6S13587   5.179   0.731   6.771  1.4245 -0.7788 -1.0039
  127OSM    H6T13588   5.080   0.847   6.841  0.1020 -0.6580 -0.5648
  127OSM    C7S13589   5.270   0.827   6.951  0.5779  0.0324  0.5244
  127OSM    H7S13590   5.256   0.920   7.009 -0.3125  1.5933 -2.1233
  127OSM    H7T13591   5.378   0.815   6.926  0.5962 -2.0517  1.4890
  127OSM    C8S13592   5.245   0.698   7.029 -0.5682 -0.1502  0.6853
  127OSM    H8S13593   5.283   0.616   6.964  0.2596  1.3946 -0.8349
  127OSM    H8T13594   5.137   0.680   7.050 -0.6524  2.1374  2.4189
  127OSM    C9S13595   5.299   0.709   7.169 -0.4540 -0.2980  0.7033
  127OSM    H9S13596   5.394   0.766   7.173 -1.2403  1.2850 -2.0494
  127OSM    H9T13597   5.316   0.606   7.208 -0.4582 -1.0427 -1.1922
  127OSM   C10S13598   5.213   0.790   7.262 -1.2560 -0.1424  0.2999
  127OSM   H10S13599   5.109   0.750   7.256 -1.0439 -0.9955  2.1927
  127OSM   H10T13600   5.208   0.897   7.232 -0.0155  0.0316  0.6896
  127OSM   C11S13601   5.259   0.792   7.404  0.0148 -0.1216  0.2802
  127OSM   H11S13602   5.361   0.838   7.406 -0.2198  0.3736  2.4548
  127OSM   H11T13603   5.278   0.690   7.443  2.4051  0.9756  2.1773
  127OSM   C12S13604   5.165   0.858   7.510 -0.7224 -0.4732 -0.2089
  127OSM   H12S13605   5.065   0.811   7.509 -0.6442 -0.6894  0.8236
  127OSM   H12T13606   5.161   0.968   7.492 -0.7207  0.0947  2.8960
  127OSM   C13S13607   5.215   0.832   7.657  0.0501  0.3642  0.1312
  127OSM   H13S13608   5.224   0.725   7.686 -0.8758  0.2810  0.1294
  127OSM   H13T13609   5.138   0.885   7.717  0.6953  2.0048 -0.4772
  127OSM   C14S13610   5.349   0.893   7.696 -0.6231  0.7215  0.1659
  127OSM   H14S13611   5.326   0.922   7.801 -2.6137  0.6712 -0.2256
  127OSM   H14T13612   5.364   0.979   7.627 -0.8881  0.2933 -0.4316
  127OSM   C15S13613   5.461   0.794   7.687 -0.2531 -0.1533  0.3852
  127OSM   H15S13614   5.451   0.728   7.598  2.1154  1.4176 -1.1183
  127OSM   H15T13615   5.454   0.725   7.773  0.8647 -1.7180 -0.7497
  127OSM   C16S13616   5.597   0.872   7.689 -0.5094  0.4042 -0.1539
  127OSM   H16S13617   5.596   0.952   7.767 -1.0781  0.7839 -0.5433
  127OSM   H16T13618   5.610   0.921   7.590  0.2053 -0.1393 -0.3310
  127OSM   C17S13619   5.716   0.779   7.726  0.1401  0.3719 -0.2584
  127OSM   H17S13620   5.725   0.701   7.648 -0.2264  0.2963 -0.2272
  127OSM   H17T13621   5.705   0.731   7.826 -1.0565 -0.7743 -0.9228
  127OSM   C18S13622   5.843   0.857   7.745 -0.4366  0.0007  0.4705
  127OSM   H18S13623   5.925   0.797   7.790 -1.1872 -1.1161  0.3520
  127OSM   H18T13624   5.839   0.944   7.814  1.1063  0.9788 -0.6450
  127OSM   H18U13625   5.870   0.903   7.648 -1.8123 -1.0308 -0.4088
  127OSM    C1F13626   5.343   1.396   6.747  0.4255 -0.3086  0.1699
  127OSM     OF13627   5.247   1.446   6.686 -0.6917  0.0230 -0.3111
  127OSM    C2F13628   5.408   1.462   6.861  0.5091  0.6395  1.0971
  127OSM    H2F13629   5.518   1.452   6.853  0.6195  2.3519  0.2961
  127OSM    H2G13630   5.385   1.399   6.950  3.2956 -1.2302  0.5695
  127OSM    C3F13631   5.350   1.604   6.887 -1.0886  0.5026 -0.3600
  127OSM    H3F13632   5.240   1.602   6.874 -1.6399 -0.8288  3.8003
  127OSM    H3G13633   5.390   1.679   6.815 -1.6610  3.0903  1.9515
  127OSM    C4F13634   5.392   1.656   7.027 -0.7612  0.0406  0.0305
  127OSM    H4F13635   5.503   1.647   7.032 -0.6140  2.0842  1.1930
  127OSM    H4G13636   5.347   1.589   7.103 -0.9744 -0.2373 -0.3393
  127OSM    C5F13637   5.351   1.801   7.055  0.3499  0.6951  0.3198
  127OSM    H5F13638   5.242   1.820   7.046 -0.1814 -1.7199  1.2331
  127OSM    H5G13639   5.399   1.870   6.981  0.7427 -1.7946 -1.8377
  127OSM    C6F13640   5.383   1.841   7.195 -0.0261  0.1007  0.1767
  127OSM    H6F13641   5.312   1.790   7.263 -1.0288  2.8016  1.2399
  127OSM    H6G13642   5.356   1.949   7.198  2.0801  0.6340  1.4110
  127OSM    C7F13643   5.537   1.827   7.231  0.6579 -0.5522  0.3869
  127OSM    H7F13644   5.602   1.869   7.152  1.1943  0.8197  1.5401
  127OSM    H7G13645   5.554   1.719   7.245 -2.3774 -1.2262 -0.5921
  127OSM    C8F13646   5.582   1.904   7.357  1.0113 -0.4026 -0.6359
  127OSM    H8F13647   5.583   2.007   7.316  0.2119 -0.1652 -0.0577
  127OSM    H8G13648   5.687   1.877   7.384  1.1932 -1.5752 -2.3990
  127OSM    C9F13649   5.474   1.895   7.467 -0.7001  0.2617 -0.3417
  127OSM    H9F13650   5.402   1.978   7.478 -2.2679 -1.0628 -0.3805
  127OSM   C10F13651   5.462   1.798   7.560 -0.1470 -0.4554 -0.5151
  127OSM   H10F13652   5.380   1.804   7.634  0.0737  2.4304 -0.4559
  127OSM   C11F13653   5.550   1.676   7.578 -0.3545 -0.1803 -0.2832
  127OSM   H11F13654   5.596   1.691   7.678 -1.0558  2.8652 -0.3488
  127OSM   H11G13655   5.633   1.675   7.503  0.3880  2.4081  0.4288
  127OSM   C12F13656   5.482   1.539   7.583  0.5340 -0.4964 -0.2035
  127OSM   H12F13657   5.422   1.528   7.490  1.2771 -0.0664 -0.7397
  127OSM   H12G13658   5.409   1.528   7.666  0.0301 -0.5678 -0.6526
  127OSM   C13F13659   5.577   1.418   7.595 -0.5443 -0.4373 -0.0585
  127OSM   H13F13660   5.633   1.438   7.689  1.3049  0.7852 -1.3910
  127OSM   H13G13661   5.650   1.419   7.511 -1.1639 -1.1689 -0.6172
  127OSM   C14F13662   5.505   1.281   7.592  0.5037  0.7763 -0.2415
  127OSM   H14F13663   5.435   1.297   7.676  1.1128 -0.8180  0.5829
  127OSM   H14G13664   5.576   1.209   7.638  0.3184  0.3324 -0.6505
  127OSM   C15F13665   5.430   1.240   7.458 -0.2402 -0.2256  0.2106
  127OSM   H15F13666   5.340   1.304   7.448  0.6447  1.1502  0.9418
  127OSM   H15G13667   5.392   1.136   7.468 -2.2639  0.1419 -2.7204
  127OSM   C16F13668   5.510   1.246   7.324  0.7175  0.4555  0.0080
  127OSM   H16F13669   5.609   1.197   7.329 -0.0271 -1.3784 -2.3716
  127OSM   H16G13670   5.534   1.348   7.288 -1.5389  1.1186  0.2661
  127OSM   C17F13671   5.425   1.168   7.214  0.0470  0.3996 -0.9333
  127OSM   H17F13672   5.409   1.063   7.247 -0.7160  1.4453  2.2037
  127OSM   H17G13673   5.487   1.157   7.122 -0.7351 -0.0722 -1.4142
  127OSM   C18F13674   5.293   1.220   7.178  0.4984 -0.4979  0.0722
  127OSM   H18F13675   5.206   1.199   7.244  0.0511 -0.9969 -0.6668
  127OSM   H18G13676   5.246   1.178   7.086 -0.0952  1.1770 -0.4147
  127OSM   H18H13677   5.304   1.330   7.166  1.6160 -0.5908  0.1449
  128OSM      N13678   0.566   4.349   5.699 -0.2004 -0.6512  0.1834
  128OSM    C1513679   0.497   4.470   5.649 -0.0598 -0.3981 -0.1223
  128OSM   H15A13680   0.500   4.481   5.542 -1.4650 -0.4199 -0.1647
  128OSM   H15B13681   0.536   4.563   5.688  0.6101 -0.3048 -0.9945
  128OSM   H15C13682   0.391   4.470   5.671 -0.3002  0.8878 -1.2286
  128OSM    C1413683   0.502   4.231   5.635 -0.1672 -0.0009 -0.0100
  128OSM   H14A13684   0.493   4.244   5.528  0.3435  0.6113  0.0191
  128OSM   H14B13685   0.407   4.220   5.685 -0.9104  2.6699 -0.7655
  128OSM   H14C13686   0.562   4.143   5.656 -0.3460  0.6676  3.5657
  128OSM    C1313687   0.709   4.355   5.659 -0.3646 -0.2862 -0.5332
  128OSM   H13A13688   0.721   4.368   5.552  1.1283  0.5902 -0.2735
  128OSM   H13B13689   0.763   4.270   5.698  2.2656  0.1497 -2.9844
  128OSM   H13C13690   0.764   4.427   5.717  0.7159  0.3475 -2.3013
  128OSM    C1213691   0.563   4.335   5.850 -0.7510  0.8740 -0.9201
  128OSM   H12A13692   0.612   4.241   5.873 -0.9533  1.2157  0.9991
  128OSM   H12B13693   0.459   4.317   5.874 -0.2832  0.5430  0.9850
  128OSM    C1113694   0.611   4.442   5.950  0.0810  0.9903  0.5606
  128OSM   H11A13695   0.580   4.411   6.052  0.5664 -2.7798 -0.3546
  128OSM   H11B13696   0.561   4.538   5.922 -0.6609 -0.4547 -3.5242
  128OSM      P13697   0.827   4.569   6.032  0.0374 -0.0622  0.3678
  128OSM    O1313698   0.952   4.509   6.079 -0.4085  0.4613 -0.5610
  128OSM    O1413699   0.832   4.692   5.944 -0.0444 -0.5843 -0.4723
  128OSM    O1113700   0.731   4.583   6.160 -0.1314  0.3231 -0.0765
  128OSM    O1213701   0.754   4.452   5.955 -0.2587 -0.4407  0.1911
  128OSM    C1S13702   0.733   4.494   6.271  0.0707 -0.1670  0.0709
  128OSM    H1S13703   0.794   4.403   6.253 -1.4290 -1.0537 -0.6478
  128OSM    H1T13704   0.626   4.464   6.279  0.0482  0.5103  2.8387
  128OSM     NF13705   0.786   4.474   6.507 -0.2361 -0.3364 -0.1502
  128OSM    HNF13706   0.702   4.466   6.559 -1.0936 -1.5257 -1.6847
  128OSM    C2S13707   0.769   4.570   6.402 -1.0230  0.1578  0.9858
  128OSM    H2S13708   0.870   4.610   6.379 -0.2599 -2.5673 -0.6346
  128OSM    C3S13709   0.674   4.691   6.439  0.0118  0.2918 -0.2087
  128OSM    H3S13710   0.574   4.650   6.464 -0.2824  1.4403  0.5456
  128OSM     O313711   0.671   4.780   6.325 -0.5792 -0.2636  0.9118
  128OSM    HO313712   0.680   4.726   6.246 -1.3225  3.4088 -1.8281
  128OSM    C4S13713   0.718   4.759   6.571 -0.1621  0.1306 -0.0641
  128OSM    H4S13714   0.670   4.724   6.663 -0.3775 -2.3112 -1.0677
  128OSM    C5S13715   0.799   4.869   6.593 -0.1232  0.4098 -0.2535
  128OSM    H5S13716   0.855   4.923   6.515  0.5231  1.6713  1.0740
  128OSM    C6S13717   0.831   4.937   6.725 -0.1043  0.1915 -0.1130
  128OSM    H6S13718   0.781   5.036   6.730 -1.1748 -0.3156 -0.6288
  128OSM    H6T13719   0.941   4.952   6.730 -0.2078  0.2229  2.9499
  128OSM    C7S13720   0.782   4.865   6.857  0.3200 -0.8036  0.2070
  128OSM    H7S13721   0.837   4.772   6.884  0.4280 -1.1213 -1.0800
  128OSM    H7T13722   0.678   4.841   6.827  0.7110 -0.4782 -1.4309
  128OSM    C8S13723   0.772   4.948   6.988 -0.3285 -0.0788  0.6240
  128OSM    H8S13724   0.716   5.041   6.964 -0.6585 -0.4723 -0.1250
  128OSM    H8T13725   0.876   4.968   7.020  0.0258  0.7721 -1.0378
  128OSM    C9S13726   0.707   4.867   7.103  0.3857 -1.1559 -0.9577
  128OSM    H9S13727   0.752   4.766   7.111 -1.1366 -1.7669 -0.0157
  128OSM    H9T13728   0.603   4.836   7.082  0.1909  0.6422 -2.7831
  128OSM   C10S13729   0.707   4.950   7.231 -0.0703 -0.1822  0.5196
  128OSM   H10S13730   0.641   5.037   7.210 -0.4659 -0.8305 -0.9794
  128OSM   H10T13731   0.809   4.992   7.243 -0.0544  0.0272 -0.3137
  128OSM   C11S13732   0.665   4.869   7.351  0.1386 -0.1679  0.7903
  128OSM   H11S13733   0.727   4.783   7.387  0.4121  0.5394  2.0111
  128OSM   H11T13734   0.564   4.830   7.324 -0.1550  1.9129 -1.2794
  128OSM   C12S13735   0.652   4.962   7.473 -0.3377  0.1504 -1.2390
  128OSM   H12S13736   0.568   5.033   7.456  0.3826  1.0403 -1.1613
  128OSM   H12T13737   0.749   5.014   7.486  0.6077 -1.8359 -0.1142
  128OSM   C13S13738   0.639   4.876   7.599  0.2538 -0.2789  0.2399
  128OSM   H13S13739   0.728   4.808   7.607 -0.2055 -0.9844 -0.5682
  128OSM   H13T13740   0.553   4.807   7.587  1.6984 -2.1537  0.4338
  128OSM   C14S13741   0.635   4.962   7.730 -0.1203 -0.3383  1.3299
  128OSM   H14S13742   0.544   5.025   7.725 -0.1172 -0.5468 -2.7449
  128OSM   H14T13743   0.730   5.019   7.728  0.8175 -1.8967 -0.3954
  128OSM   C15S13744   0.637   4.860   7.845 -0.2527 -0.0522 -0.4258
  128OSM   H15S13745   0.711   4.780   7.824 -0.0849  0.0453 -0.1978
  128OSM   H15T13746   0.537   4.813   7.854 -0.9923  1.3049 -1.4214
  128OSM   C16S13747   0.655   4.928   7.982 -0.6078  0.3282  0.4178
  128OSM   H16S13748   0.729   5.011   7.979 -1.9092  1.5034  0.2259
  128OSM   H16T13749   0.697   4.842   8.038  1.4679  1.1246  0.1115
  128OSM   C17S13750   0.530   4.977   8.054 -0.3884  0.1028  0.0898
  128OSM   H17S13751   0.561   5.004   8.157  1.2783 -0.0957 -0.3377
  128OSM   H17T13752   0.462   4.889   8.054 -0.3252  0.0542 -0.3901
  128OSM   C18S13753   0.473   5.109   7.993  0.4152  0.3809 -0.0061
  128OSM   H18S13754   0.384   5.146   8.048 -0.5062 -1.8202  0.0532
  128OSM   H18T13755   0.442   5.100   7.887  1.1934  2.7767 -0.4644
  128OSM   H18U13756   0.548   5.190   7.984 -1.8124  2.4201 -0.5260
  128OSM    C1F13757   0.878   4.385   6.519  0.4086 -0.5328 -0.1200
  128OSM     OF13758   0.966   4.369   6.437 -0.0899 -0.1105  0.0312
  128OSM    C2F13759   0.874   4.297   6.641  0.2423  0.2513 -0.1077
  128OSM    H2F13760   0.780   4.240   6.627  0.0771  0.4231  0.2815
  128OSM    H2G13761   0.871   4.371   6.724  0.8722  2.1957 -1.7701
  128OSM    C3F13762   0.992   4.210   6.665 -0.5915  0.8152 -0.0612
  128OSM    H3F13763   1.085   4.268   6.682 -0.1816  0.8119 -2.1298
  128OSM    H3G13764   1.011   4.147   6.575 -0.3709  0.3343  0.3147
  128OSM    C4F13765   0.969   4.113   6.781 -0.6823  0.2613 -0.7132
  128OSM    H4F13766   0.880   4.049   6.769 -1.7777  1.2351  1.9183
  128OSM    H4G13767   0.939   4.175   6.868  0.7187 -0.0807  0.0319
  128OSM    C5F13768   1.091   4.019   6.802  0.7029 -0.3141 -0.5937
  128OSM    H5F13769   1.169   4.049   6.728  0.8406 -0.1044 -0.3654
  128OSM    H5G13770   1.050   3.920   6.774 -0.7448 -0.2710  1.2366
  128OSM    C6F13771   1.143   4.012   6.949 -0.4440 -0.3342 -0.1696
  128OSM    H6F13772   1.206   3.921   6.953 -0.7355 -0.4510  2.3897
  128OSM    H6G13773   1.055   4.004   7.016 -1.1380  0.2014 -1.0043
  128OSM    C7F13774   1.227   4.132   6.987  0.0549  0.3209 -0.3538
  128OSM    H7F13775   1.175   4.226   6.960 -1.9626 -0.1539  1.6084
  128OSM    H7G13776   1.326   4.133   6.938 -0.2572  3.6156 -1.0358
  128OSM    C8F13777   1.271   4.144   7.138 -0.1302 -0.2879 -0.0836
  128OSM    H8F13778   1.358   4.213   7.140 -1.1953  1.0612  0.9771
  128OSM    H8G13779   1.286   4.040   7.174 -1.7192 -0.5694 -0.1960
  128OSM    C9F13780   1.165   4.218   7.220 -0.1278  0.3207  0.3508
  128OSM    H9F13781   1.147   4.317   7.176  1.1645 -1.1968 -3.8121
  128OSM   C10F13782   1.114   4.190   7.342  0.0203 -0.3190  0.0114
  128OSM   H10F13783   1.029   4.252   7.373  0.1312 -0.2635  0.2065
  128OSM   C11F13784   1.148   4.068   7.419  0.0983  0.9679 -0.2790
  128OSM   H11F13785   1.235   4.009   7.383  1.3700  1.5392  1.7858
  128OSM   H11G13786   1.058   4.004   7.427 -1.3791  2.7271 -2.1594
  128OSM   C12F13787   1.198   4.112   7.562  0.3168 -0.9469  0.0723
  128OSM   H12F13788   1.286   4.178   7.550  0.0902 -0.9184 -1.5597
  128OSM   H12G13789   1.238   4.019   7.608  1.0025 -1.3875 -1.3830
  128OSM   C13F13790   1.091   4.169   7.646  0.1530 -0.0253  0.4698
  128OSM   H13F13791   0.997   4.109   7.645 -0.6629  1.2273  1.0024
  128OSM   H13G13792   1.053   4.260   7.594  0.6589 -0.5742 -0.8790
  128OSM   C14F13793   1.134   4.181   7.790  0.3079 -0.1608 -0.3992
  128OSM   H14F13794   1.229   4.238   7.800  1.0463 -0.4962 -4.6864
  128OSM   H14G13795   1.148   4.079   7.830  1.5246  0.2314  0.1955
  128OSM   C15F13796   1.025   4.241   7.879 -0.1646 -0.4366 -0.0734
  128OSM   H15F13797   0.931   4.224   7.823  1.3856  0.4648 -3.0306
  128OSM   H15G13798   1.043   4.350   7.878  1.6074 -0.7074 -0.3287
  128OSM   C16F13799   1.022   4.197   8.023  0.4481 -0.1920 -0.4220
  128OSM   H16F13800   1.113   4.226   8.079  0.3243  1.5490 -1.0947
  128OSM   H16G13801   1.015   4.086   8.031  0.9426 -0.1163  1.4295
  128OSM   C17F13802   0.899   4.265   8.094  0.1659 -0.1596  0.1080
  128OSM   H17F13803   0.805   4.236   8.041 -1.4236  0.5870  2.4354
  128OSM   H17G13804   0.916   4.373   8.078  2.0482 -0.4998 -0.3073
  128OSM   C18F13805   0.883   4.223   8.248  0.1821  0.1073 -0.2490
  128OSM   H18F13806   0.965   4.267   8.308  0.7955  0.3421 -1.2576
  128OSM   H18G13807   0.875   4.113   8.264 -0.6627 -0.1317 -2.1008
  128OSM   H18H13808   0.788   4.261   8.292  0.9419  2.4582 -0.5849
  129OSM      N13809   4.395   1.203   5.979 -0.5781 -0.4402  0.6995
  129OSM    C1513810   4.253   1.158   5.985  0.2229 -0.2020  0.7983
  129OSM   H15A13811   4.239   1.083   5.909 -0.9992 -0.7568  1.5599
  129OSM   H15B13812   4.185   1.239   5.968  1.5351  0.8867  0.6239
  129OSM   H15C13813   4.221   1.113   6.078 -0.7465  2.3675  1.7468
  129OSM    C1413814   4.402   1.284   5.853 -0.1641  0.1445 -0.3416
  129OSM   H14A13815   4.352   1.233   5.772 -1.1531 -0.6567  0.7489
  129OSM   H14B13816   4.505   1.312   5.836 -0.0816 -0.8251 -1.4404
  129OSM   H14C13817   4.361   1.381   5.879  2.1832  0.9300  0.6099
  129OSM    C1313818   4.424   1.286   6.103  0.8583 -0.6410  0.0631
  129OSM   H13A13819   4.375   1.243   6.190 -3.9060 -0.8303 -2.5155
  129OSM   H13B13820   4.370   1.379   6.092 -1.9125 -2.0868  0.9166
  129OSM   H13C13821   4.530   1.297   6.119  1.0262 -2.9759  0.6710
  129OSM    C1213822   4.493   1.087   5.973  0.5971  0.0679 -0.0823
  129OSM   H12A13823   4.463   1.014   5.899 -0.4491 -0.5334  0.9153
  129OSM   H12B13824   4.483   1.027   6.062  0.2243 -0.6494 -0.5943
  129OSM    C1113825   4.646   1.115   5.953 -0.1859 -0.2094  0.2561
  129OSM   H11A13826   4.649   1.210   5.895 -0.1114 -0.0163  0.5755
  129OSM   H11B13827   4.700   1.028   5.909  1.3820  0.4272  0.8953
  129OSM      P13828   4.760   1.037   6.166 -0.6557 -0.2023  0.2747
  129OSM    O1313829   4.666   0.931   6.202  0.6154  0.4239 -0.0033
  129OSM    O1413830   4.887   1.002   6.098 -0.2807  0.1843  0.0213
  129OSM    O1113831   4.792   1.126   6.296 -0.4772 -0.0264 -0.9590
  129OSM    O1213832   4.695   1.150   6.080 -0.0413 -0.4481 -0.3088
  129OSM    C1S13833   4.692   1.181   6.373  0.2006 -0.2139 -0.4257
  129OSM    H1S13834   4.592   1.140   6.347  0.6534 -1.8380  0.3191
  129OSM    H1T13835   4.685   1.288   6.343 -1.6355 -0.3297 -0.4552
  129OSM     NF13836   4.626   1.229   6.614  0.0688 -0.2812  0.0496
  129OSM    HNF13837   4.662   1.315   6.648 -0.1358 -1.9234  4.7553
  129OSM    C2S13838   4.710   1.146   6.529  0.2254  0.1610 -0.2051
  129OSM    H2S13839   4.674   1.042   6.533 -1.1920  0.5588 -2.2153
  129OSM    C3S13840   4.866   1.144   6.586 -0.1657 -0.9298 -0.1378
  129OSM    H3S13841   4.889   1.252   6.595 -0.5466 -0.7415 -1.3043
  129OSM     O313842   4.965   1.090   6.502 -0.2337 -0.0556 -0.2213
  129OSM    HO313843   4.929   1.098   6.414 -0.3980 -1.4967 -0.2933
  129OSM    C4S13844   4.879   1.082   6.728  0.3780 -0.4248  0.8455
  129OSM    H4S13845   4.828   0.984   6.733 -0.7566  0.1028 -0.1578
  129OSM    C5S13846   4.954   1.124   6.830  0.5221 -0.1788  0.2094
  129OSM    H5S13847   4.997   1.226   6.827  0.5107 -0.1702  0.3523
  129OSM    C6S13848   4.955   1.063   6.966  0.0320 -0.0244 -0.1348
  129OSM    H6S13849   5.063   1.048   6.986 -0.2937 -0.0625  1.6312
  129OSM    H6T13850   4.873   0.989   6.980  0.8006 -0.9256 -0.3854
  129OSM    C7S13851   4.903   1.160   7.064 -0.1847  0.3888 -0.3009
  129OSM    H7S13852   4.813   1.214   7.027 -0.8854 -0.2593  0.4009
  129OSM    H7T13853   4.966   1.250   7.080 -0.5936  0.8359 -1.1693
  129OSM    C8S13854   4.865   1.105   7.197 -0.0213  0.7265 -0.1082
  129OSM    H8S13855   4.951   1.039   7.223  1.3791  1.9784 -1.4051
  129OSM    H8T13856   4.770   1.047   7.203 -0.7075  1.8952  0.4312
  129OSM    C9S13857   4.854   1.207   7.311 -0.3038  0.7486 -0.1638
  129OSM    H9S13858   4.777   1.283   7.287 -0.2541  1.0162  0.5142
  129OSM    H9T13859   4.950   1.260   7.326  0.1231  0.1031 -0.5986
  129OSM   C10S13860   4.825   1.128   7.445  0.5636 -0.3404 -0.3711
  129OSM   H10S13861   4.837   1.019   7.431 -2.0649 -0.8097  0.6650
  129OSM   H10T13862   4.715   1.132   7.464  0.8588 -0.1341  1.3305
  129OSM   C11S13863   4.889   1.185   7.566 -0.6556  0.0986  0.6800
  129OSM   H11S13864   4.844   1.283   7.595  0.9518  0.1078  3.3767
  129OSM   H11T13865   4.999   1.194   7.549 -1.0849  0.4763 -2.0634
  129OSM   C12S13866   4.882   1.074   7.680  0.3868  0.3300  1.1246
  129OSM   H12S13867   4.933   0.982   7.643 -2.4656 -1.4074  1.3899
  129OSM   H12T13868   4.775   1.047   7.691  0.3696 -1.1727 -2.1235
  129OSM   C13S13869   4.947   1.113   7.809  0.7430 -0.4091  0.3459
  129OSM   H13S13870   4.903   1.209   7.843  1.2452 -0.3146  0.7271
  129OSM   H13T13871   5.054   1.135   7.790  1.0616 -2.8065 -0.8187
  129OSM   C14S13872   4.916   1.005   7.920  0.1205 -0.1954 -1.0329
  129OSM   H14S13873   4.990   0.922   7.907  2.8396  1.6377  1.8939
  129OSM   H14T13874   4.813   0.964   7.928 -0.1285  0.9086  2.0064
  129OSM   C15S13875   4.951   1.049   8.068 -1.0176  0.0759  0.9273
  129OSM   H15S13876   4.945   0.949   8.115  3.0299 -0.1711  1.0761
  129OSM   H15T13877   4.875   1.121   8.105  0.4610  1.2831  1.6553
  129OSM   C16S13878   5.097   1.100   8.080 -0.7478  0.2067 -0.6419
  129OSM   H16S13879   5.102   1.179   8.002 -0.2887 -0.5358 -1.3667
  129OSM   H16T13880   5.160   1.017   8.042 -2.0312 -0.2554 -1.8248
  129OSM   C17S13881   5.147   1.142   8.218  0.4421 -0.1612 -0.4240
  129OSM   H17S13882   5.258   1.146   8.223  0.4885 -1.7941 -0.0638
  129OSM   H17T13883   5.116   1.055   8.279 -0.1934  1.0085  0.9357
  129OSM   C18S13884   5.085   1.266   8.277  0.6436  0.3453 -0.6004
  129OSM   H18S13885   5.085   1.362   8.220 -3.0373  1.1704  0.6700
  129OSM   H18T13886   5.130   1.287   8.376 -2.6428  0.5566  0.9225
  129OSM   H18U13887   4.978   1.244   8.296  0.4697 -0.1614 -2.0541
  129OSM    C1F13888   4.500   1.209   6.633  0.5031 -0.7149 -0.6185
  129OSM     OF13889   4.452   1.093   6.645  0.0164  0.2277  0.8227
  129OSM    C2F13890   4.415   1.333   6.650  0.6385 -0.5653  0.2927
  129OSM    H2F13891   4.310   1.297   6.656  0.5547 -0.0633  2.3696
  129OSM    H2G13892   4.429   1.390   6.555 -0.7644  0.5835  0.7660
  129OSM    C3F13893   4.451   1.420   6.770 -0.3112 -0.1881  0.5557
  129OSM    H3F13894   4.359   1.479   6.786 -0.1176 -0.2078  1.7746
  129OSM    H3G13895   4.543   1.474   6.738 -1.2325  2.6779  2.6010
  129OSM    C4F13896   4.472   1.353   6.902 -0.2372  0.4334 -0.0149
  129OSM    H4F13897   4.568   1.297   6.911 -1.2508 -1.4064 -0.5207
  129OSM    H4G13898   4.388   1.283   6.922  1.7601 -1.9909  0.0841
  129OSM    C5F13899   4.467   1.459   7.013 -0.4164 -0.2922  0.2891
  129OSM    H5F13900   4.373   1.515   6.998  0.6765  1.3889 -0.4743
  129OSM    H5G13901   4.552   1.527   6.991 -1.1924  1.1371  1.6114
  129OSM    C6F13902   4.470   1.406   7.156 -0.3197 -0.4411  0.1931
  129OSM    H6F13903   4.425   1.480   7.226  1.8378  2.3314 -1.2493
  129OSM    H6G13904   4.577   1.395   7.180  0.6666 -1.5429 -4.2327
  129OSM    C7F13905   4.401   1.272   7.178 -0.9230 -0.3571  0.3848
  129OSM    H7F13906   4.452   1.188   7.127 -2.1630  0.5517 -2.4331
  129OSM    H7G13907   4.300   1.263   7.135 -1.2926 -2.1913  1.6170
  129OSM    C8F13908   4.403   1.233   7.325 -0.2317 -0.4670 -0.2326
  129OSM    H8F13909   4.505   1.251   7.365 -0.5195  0.0093  0.2977
  129OSM    H8G13910   4.381   1.125   7.332 -1.1861 -0.3668 -1.5338
  129OSM    C9F13911   4.309   1.315   7.407 -0.2051 -0.1719  0.0292
  129OSM    H9F13912   4.204   1.316   7.375 -1.3864 -4.1721  3.3080
  129OSM   C10F13913   4.350   1.376   7.523  1.0021  0.2338  0.6190
  129OSM   H10F13914   4.274   1.425   7.586 -0.6820 -0.5407 -0.7560
  129OSM   C11F13915   4.482   1.386   7.592 -0.3365 -0.5064  0.1122
  129OSM   H11F13916   4.554   1.303   7.576 -0.7858 -0.6766 -1.0808
  129OSM   H11G13917   4.471   1.394   7.702 -1.6995 -0.3218 -0.0273
  129OSM   C12F13918   4.564   1.508   7.545  0.6527  0.0560  0.0542
  129OSM   H12F13919   4.565   1.517   7.434  0.9754 -1.5377 -0.0829
  129OSM   H12G13920   4.672   1.494   7.570  0.7353  2.0508  0.8637
  129OSM   C13F13921   4.518   1.639   7.608  0.1948  0.4080  0.0953
  129OSM   H13F13922   4.522   1.629   7.719  2.5514  0.1009 -0.0019
  129OSM   H13G13923   4.413   1.662   7.580  0.5405  0.4784 -1.1481
  129OSM   C14F13924   4.607   1.752   7.559 -0.1106  0.8286  0.1939
  129OSM   H14F13925   4.712   1.741   7.592  0.8264  2.2619 -2.1566
  129OSM   H14G13926   4.570   1.846   7.606  0.1060  0.3228  1.3830
  129OSM   C15F13927   4.613   1.761   7.404  0.1330  0.0968  0.0738
  129OSM   H15F13928   4.645   1.667   7.354 -3.0055 -0.7590 -0.4542
  129OSM   H15G13929   4.687   1.837   7.373 -0.9364  0.2243 -2.2744
  129OSM   C16F13930   4.478   1.822   7.342 -0.3253  0.1833 -0.1137
  129OSM   H16F13931   4.442   1.893   7.419 -1.0950  0.7486 -0.9732
  129OSM   H16G13932   4.411   1.735   7.323  0.3815 -1.3558  3.8560
  129OSM   C17F13933   4.496   1.894   7.205  0.1068 -0.1231 -1.1267
  129OSM   H17F13934   4.547   1.825   7.135  1.2926  0.4076 -0.8028
  129OSM   H17G13935   4.557   1.985   7.226  1.7586 -1.7887  1.5288
  129OSM   C18F13936   4.366   1.934   7.136  0.6116 -0.1876 -0.3772
  129OSM   H18F13937   4.385   1.986   7.039  0.8425  0.1081 -0.1753
  129OSM   H18G13938   4.300   1.999   7.197 -0.0460 -0.0540 -1.2250
  129OSM   H18H13939   4.303   1.846   7.112  0.4814  0.0225 -0.8141
  130OSM      N13940   0.871   2.853   6.224  0.2875  0.3555 -0.1741
  130OSM    C1513941   0.792   2.769   6.314  0.3093  0.4015 -0.3133
  130OSM   H15A13942   0.740   2.819   6.394  0.0561  0.0297 -0.2460
  130OSM   H15B13943   0.857   2.695   6.359 -1.8400 -1.1048  0.3733
  130OSM   H15C13944   0.721   2.714   6.255 -0.4756 -0.5236  1.4825
  130OSM    C1413945   0.917   2.773   6.107 -0.3750  0.1014 -0.7298
  130OSM   H14A13946   0.977   2.839   6.046 -0.1335  0.2765 -0.3067
  130OSM   H14B13947   0.834   2.726   6.056 -0.1339  0.6414 -1.6213
  130OSM   H14C13948   0.979   2.691   6.139  2.8451  2.0163 -1.8963
  130OSM    C1313949   0.791   2.970   6.174  0.2689  0.8932  0.4574
  130OSM   H13A13950   0.708   2.942   6.110  0.9435  1.1948 -0.5606
  130OSM   H13B13951   0.848   3.043   6.118  0.7028  0.5752  0.4860
  130OSM   H13C13952   0.736   3.012   6.257  1.2196 -1.1451  2.1585
  130OSM    C1213953   0.988   2.907   6.303 -0.0724 -0.4066 -0.0832
  130OSM   H12A13954   1.039   2.839   6.369 -0.7885 -0.7212  0.1539
  130OSM   H12B13955   0.959   2.991   6.364  1.8659  0.2315 -0.0227
  130OSM    C1113956   1.107   2.977   6.224 -0.4269 -0.5754  0.5936
  130OSM   H11A13957   1.151   2.895   6.164  0.5034  0.8498 -0.7002
  130OSM   H11B13958   1.179   3.008   6.303  1.3086 -0.9075 -0.8400
  130OSM      P13959   1.136   3.153   6.026 -0.2658 -0.3668  0.0844
  130OSM    O1313960   1.186   3.054   5.923  0.4565  0.1349 -0.1333
  130OSM    O1413961   1.053   3.261   5.970  0.5456 -0.6934 -0.0152
  130OSM    O1113962   1.263   3.223   6.102  0.0548 -0.8369 -0.8861
  130OSM    O1213963   1.056   3.085   6.142 -0.1709  0.4931  0.0726
  130OSM    C1S13964   1.229   3.337   6.181  0.0553  0.5090 -0.6735
  130OSM    H1S13965   1.126   3.349   6.221  0.4323  1.1860  0.1194
  130OSM    H1T13966   1.251   3.429   6.123  2.9192  0.1710 -0.1942
  130OSM     NF13967   1.259   3.432   6.405 -0.4746  0.0453  0.6001
  130OSM    HNF13968   1.274   3.530   6.392  0.9440 -0.1195  0.9279
  130OSM    C2S13969   1.323   3.336   6.315  0.4010 -0.1011 -0.3670
  130OSM    H2S13970   1.314   3.238   6.365  3.2020  0.2798  0.9840
  130OSM    C3S13971   1.471   3.362   6.282 -0.8696  0.0957 -0.0699
  130OSM    H3S13972   1.482   3.468   6.249  1.2162  0.2629  1.0611
  130OSM     O313973   1.513   3.291   6.162  0.3364 -0.3303 -0.2683
  130OSM    HO313974   1.438   3.240   6.130  0.0304 -0.0659  0.0327
  130OSM    C4S13975   1.557   3.328   6.400  0.5378  0.0879 -0.0688
  130OSM    H4S13976   1.594   3.422   6.444  1.0668  0.2244 -0.8103
  130OSM    C5S13977   1.598   3.213   6.450 -0.1875  0.1866 -0.1703
  130OSM    H5S13978   1.571   3.119   6.400 -0.7301  0.6919 -0.8519
  130OSM    C6S13979   1.694   3.199   6.568 -0.2027 -0.1176  0.1246
  130OSM    H6S13980   1.802   3.193   6.545  0.6946  0.2763  3.8422
  130OSM    H6T13981   1.680   3.106   6.627  2.5961 -1.3560 -1.0923
  130OSM    C7S13982   1.684   3.319   6.671 -0.0945  0.0972 -0.1411
  130OSM    H7S13983   1.576   3.323   6.694  0.1521  1.1538  0.8888
  130OSM    H7T13984   1.709   3.419   6.631  1.6261  0.6162  2.0718
  130OSM    C8S13985   1.779   3.304   6.789  0.2861 -0.4820  0.8568
  130OSM    H8S13986   1.882   3.316   6.749 -1.5719 -2.5882 -5.1403
  130OSM    H8T13987   1.765   3.200   6.826 -1.3267  0.0030  1.6563
  130OSM    C9S13988   1.751   3.392   6.906  0.2918 -0.8954  0.3155
  130OSM    H9S13989   1.650   3.356   6.933 -1.3809 -0.3937 -4.6511
  130OSM    H9T13990   1.738   3.496   6.871  0.3753 -0.4564  1.5726
  130OSM   C10S13991   1.850   3.370   7.009 -0.2916  0.8068 -0.4133
  130OSM   H10S13992   1.951   3.400   6.973 -0.6242  0.9864 -1.2086
  130OSM   H10T13993   1.850   3.259   7.016 -1.0450  0.9455  2.1996
  130OSM   C11S13994   1.811   3.441   7.139 -0.6215 -0.0002  0.4256
  130OSM   H11S13995   1.713   3.419   7.187 -0.8776  1.3712  0.5290
  130OSM   H11T13996   1.807   3.548   7.109  1.0667 -0.3208 -1.0292
  130OSM   C12S13997   1.930   3.422   7.247  0.1838 -0.1281 -0.1088
  130OSM   H12S13998   2.025   3.472   7.220  0.0432  0.9370  1.3142
  130OSM   H12T13999   1.956   3.314   7.240  1.9797  0.3221 -0.6102
  130OSM   C13S14000   1.888   3.449   7.389 -0.0115 -0.7586 -0.0196
  130OSM   H13S14001   1.781   3.418   7.400 -0.1776 -0.5575 -1.0007
  130OSM   H13T14002   1.892   3.555   7.423  0.5715 -0.5279 -0.8036
  130OSM   C14S14003   1.974   3.377   7.492  0.4131  0.2933 -0.5525
  130OSM   H14S14004   2.082   3.400   7.481  0.0662  2.0222 -0.4953
  130OSM   H14T14005   1.956   3.268   7.481  0.4592 -0.0068  2.0231
  130OSM   C15S14006   1.955   3.415   7.641 -0.7829 -0.5620 -0.3374
  130OSM   H15S14007   1.847   3.419   7.667 -0.9810  1.1430 -1.4111
  130OSM   H15T14008   1.996   3.517   7.657 -0.8094 -0.6663  0.4232
  130OSM   C16S14009   2.016   3.307   7.739 -0.2691  0.5780 -0.2922
  130OSM   H16S14010   2.126   3.297   7.729 -0.3898 -1.2498  0.0503
  130OSM   H16T14011   1.974   3.205   7.728  1.2265 -0.0671 -0.1626
  130OSM   C17S14012   2.002   3.357   7.887  0.5570  0.2824  0.2334
  130OSM   H17S14013   2.032   3.463   7.896  1.6379  0.0712 -0.6113
  130OSM   H17T14014   2.075   3.301   7.950  0.3436  0.2226  0.4289
  130OSM   C18S14015   1.857   3.329   7.931  0.1744 -0.4196 -0.5127
  130OSM   H18S14016   1.832   3.365   8.034 -3.9162 -3.8371 -0.1760
  130OSM   H18T14017   1.833   3.221   7.941 -1.8707  0.1348  0.9821
  130OSM   H18U14018   1.778   3.378   7.870 -1.0371 -0.8138  0.7139
  130OSM    C1F14019   1.144   3.413   6.475  0.0997  0.2489  0.2849
  130OSM     OF14020   1.082   3.309   6.462 -0.4459  0.2470 -0.5731
  130OSM    C2F14021   1.093   3.532   6.548 -0.2127  0.4242 -0.2152
  130OSM    H2F14022   1.001   3.573   6.499 -1.0623 -2.8948 -1.5001
  130OSM    H2G14023   1.177   3.599   6.578  1.2722 -2.3685  2.0372
  130OSM    C3F14024   1.037   3.480   6.689 -0.0008  0.0987 -0.6072
  130OSM    H3F14025   1.101   3.397   6.725  0.4028  1.4574  2.0045
  130OSM    H3G14026   0.932   3.447   6.676  0.1607  0.3002 -2.4486
  130OSM    C4F14027   1.040   3.577   6.808  0.3552 -0.1152  0.4881
  130OSM    H4F14028   0.998   3.673   6.772  0.3785  0.2859  1.5273
  130OSM    H4G14029   1.146   3.598   6.835  0.6922 -0.7651 -0.3065
  130OSM    C5F14030   0.985   3.531   6.938  0.3077  0.5016 -0.3372
  130OSM    H5F14031   1.020   3.430   6.968  2.5036  1.2991 -0.0695
  130OSM    H5G14032   0.879   3.516   6.910  0.5995 -0.8463 -0.7517
  130OSM    C6F14033   0.984   3.625   7.061  0.1519 -0.0608 -0.1756
  130OSM    H6F14034   1.088   3.662   7.070 -0.4369  2.0027 -1.4601
  130OSM    H6G14035   0.947   3.571   7.150  2.9680  0.2859  1.2430
  130OSM    C7F14036   0.895   3.747   7.048  0.5368  0.3478  0.6509
  130OSM    H7F14037   0.792   3.708   7.043  1.0607 -0.9203 -0.5600
  130OSM    H7G14038   0.920   3.804   6.956 -0.5986 -0.1103  0.0593
  130OSM    C8F14039   0.916   3.837   7.179  0.3374 -1.1137  0.0768
  130OSM    H8F14040   1.026   3.847   7.194  0.1426 -0.4176  1.1921
  130OSM    H8G14041   0.876   3.773   7.261  1.4382 -0.5199  1.1031
  130OSM    C9F14042   0.840   3.971   7.186 -0.3475  0.1067 -0.0787
  130OSM    H9F14043   0.898   4.056   7.147 -3.0682  0.1218 -4.3191
  130OSM   C10F14044   0.720   3.992   7.245  0.3909 -0.2212 -0.0301
  130OSM   H10F14045   0.676   4.092   7.235  1.6149  0.3081 -0.2029
  130OSM   C11F14046   0.632   3.888   7.312  0.3603  0.7220  0.5466
  130OSM   H11F14047   0.645   3.795   7.252 -0.4194  0.2517  1.0919
  130OSM   H11G14048   0.529   3.915   7.283  0.3125 -2.1864 -2.3451
  130OSM   C12F14049   0.659   3.860   7.461  0.6748  0.1111  0.3570
  130OSM   H12F14050   0.765   3.827   7.465  0.1121 -1.7808  0.1369
  130OSM   H12G14051   0.588   3.777   7.485  3.4434 -2.4329  0.0835
  130OSM   C13F14052   0.645   3.984   7.546 -0.2475  0.1557  0.1927
  130OSM   H13F14053   0.542   4.024   7.554 -1.0033 -1.2780 -1.8108
  130OSM   H13G14054   0.699   4.073   7.508  1.3536  0.1394  2.3257
  130OSM   C14F14055   0.708   3.969   7.693  0.7218 -0.9068 -0.1449
  130OSM   H14F14056   0.713   4.076   7.724  2.0029 -0.7691 -0.7889
  130OSM   H14G14057   0.809   3.925   7.706  1.1369  0.8006  2.9270
  130OSM   C15F14058   0.617   3.893   7.795 -0.9339 -0.1611 -0.7324
  130OSM   H15F14059   0.624   3.787   7.763  0.0893 -0.4910  0.5278
  130OSM   H15G14060   0.511   3.925   7.784 -1.4298 -0.3335  2.8066
  130OSM   C16F14061   0.672   3.922   7.937  0.7532  0.3412 -0.1438
  130OSM   H16F14062   0.707   4.027   7.953 -0.5529  0.6424  0.7611
  130OSM   H16G14063   0.754   3.857   7.972  0.6330  0.3199  0.0952
  130OSM   C17F14064   0.560   3.887   8.043 -0.2414  0.1889  0.2935
  130OSM   H17F14065   0.475   3.956   8.025 -0.4625 -0.4697 -1.2604
  130OSM   H17G14066   0.595   3.910   8.146  1.0734 -0.4980  0.0067
  130OSM   C18F14067   0.513   3.738   8.036  0.2303 -0.1825 -0.5136
  130OSM   H18F14068   0.601   3.679   8.070  0.6543  0.8540  0.2280
  130OSM   H18G14069   0.482   3.715   7.932  2.6879  2.3978 -1.9194
  130OSM   H18H14070   0.428   3.724   8.105  0.0639 -1.9856 -1.0774
  131OSM      N14071   5.298   0.029   5.963  0.1808  0.3394  0.1599
  131OSM    C1514072   5.394  -0.072   6.008  0.3616  0.3199  0.4449
  131OSM   H15A14073   5.492  -0.032   6.027  1.5507 -2.1207 -0.3918
  131OSM   H15B14074   5.414  -0.141   5.928 -0.7014  0.0205  0.4197
  131OSM   H15C14075   5.350  -0.126   6.091 -0.8077 -2.8832 -2.1443
  131OSM    C1414076   5.345   0.090   5.832 -0.6773 -0.3102  0.3707
  131OSM   H14A14077   5.259   0.143   5.793 -0.4638 -0.0096  0.3117
  131OSM   H14B14078   5.370   0.016   5.757  0.8017 -0.1947  0.7395
  131OSM   H14C14079   5.433   0.151   5.845 -0.1214 -1.5208  2.5838
  131OSM    C1314080   5.167  -0.049   5.935  0.2543  0.2532  0.1153
  131OSM   H13A14081   5.177  -0.109   5.846 -2.7286 -0.2004  0.0515
  131OSM   H13B14082   5.088   0.023   5.920 -1.5017 -1.3577  1.4761
  131OSM   H13C14083   5.130  -0.109   6.017  0.4751 -1.8139 -1.2742
  131OSM    C1214084   5.273   0.133   6.072  0.6925  0.4904 -0.6576
  131OSM   H12A14085   5.359   0.144   6.136  0.4562 -0.2747 -0.2013
  131OSM   H12B14086   5.212   0.070   6.135  2.8568 -0.4709  0.5509
  131OSM    C1114087   5.200   0.264   6.027 -0.1110 -0.3602  0.7172
  131OSM   H11A14088   5.151   0.321   6.109  1.9291  1.9307  0.4143
  131OSM   H11B14089   5.111   0.242   5.964 -0.5983  0.2577  1.1800
  131OSM      P14090   5.388   0.462   6.022  0.1283 -0.6681  0.0651
  131OSM    O1314091   5.518   0.459   5.955 -0.4025 -0.1069  0.0957
  131OSM    O1414092   5.324   0.594   6.031  0.1314  0.3485  0.2300
  131OSM    O1114093   5.400   0.400   6.171  0.5755  0.6621  0.4352
  131OSM    O1214094   5.282   0.361   5.953  0.2470  0.3478  0.1996
  131OSM    C1S14095   5.465   0.468   6.270  0.1356 -0.1862  0.0785
  131OSM    H1S14096   5.407   0.558   6.297  1.8057  0.8823  0.1936
  131OSM    H1T14097   5.572   0.485   6.244  0.6409 -1.9374  0.9175
  131OSM     NF14098   5.504   0.474   6.516  0.3117  0.1017  0.5811
  131OSM    HNF14099   5.595   0.458   6.552  1.9768  2.5932 -2.3142
  131OSM    C2S14100   5.451   0.389   6.407 -0.1175  0.0067  1.2120
  131OSM    H2S14101   5.345   0.366   6.429 -0.0753 -0.4713  0.9182
  131OSM    C3S14102   5.536   0.262   6.395  0.2138  0.4168 -0.5217
  131OSM    H3S14103   5.637   0.305   6.378  0.0028 -0.0815 -3.1727
  131OSM     O314104   5.515   0.185   6.275 -0.5154 -0.1226 -0.3403
  131OSM    HO314105   5.474   0.247   6.214 -0.0972  1.0046  0.4858
  131OSM    C4S14106   5.545   0.180   6.517  0.6225  0.1544  0.8857
  131OSM    H4S14107   5.618   0.225   6.586 -0.7474  0.6855  2.0305
  131OSM    C5S14108   5.464   0.082   6.563  0.3869 -0.2223 -0.4744
  131OSM    H5S14109   5.378   0.059   6.498 -1.2096  2.4197  0.6228
  131OSM    C6S14110   5.466   0.015   6.700  0.3027  0.1905  0.4184
  131OSM    H6S14111   5.452  -0.093   6.678  0.0124  0.3859 -0.3917
  131OSM    H6T14112   5.390   0.058   6.768  2.7691  0.5181  3.0814
  131OSM    C7S14113   5.604   0.019   6.774  0.0564  0.8117  0.4817
  131OSM    H7S14114   5.631   0.123   6.802  1.0179  0.3172  1.4344
  131OSM    H7T14115   5.674  -0.019   6.696 -1.8946  0.6389 -1.2390
  131OSM    C8S14116   5.611  -0.069   6.902 -0.2442 -0.0959  0.4956
  131OSM    H8S14117   5.715  -0.061   6.939  0.8927 -1.7279 -2.2313
  131OSM    H8T14118   5.587  -0.172   6.866  0.3396 -0.6464  1.6493
  131OSM    C9S14119   5.523  -0.019   7.014 -0.0092  0.4120  0.8035
  131OSM    H9S14120   5.415  -0.029   6.988 -0.1380  1.3634  0.9628
  131OSM    H9T14121   5.550   0.083   7.047  0.2215  0.0944  1.6340
  131OSM   C10S14122   5.547  -0.096   7.142  0.5282  0.1129  0.6873
  131OSM   H10S14123   5.655  -0.103   7.168  0.7284 -0.3928 -0.2411
  131OSM   H10T14124   5.529  -0.205   7.130  0.5581  0.3717 -2.0638
  131OSM   C11S14125   5.482  -0.018   7.260 -0.7194  0.6426 -0.1818
  131OSM   H11S14126   5.372  -0.007   7.259 -0.8131 -0.3684 -0.8172
  131OSM   H11T14127   5.520   0.086   7.256 -3.3098  1.5732 -1.5221
  131OSM   C12S14128   5.510  -0.112   7.388 -1.0303  0.4810 -0.1188
  131OSM   H12S14129   5.620  -0.118   7.394 -0.9081  1.4020 -1.2491
  131OSM   H12T14130   5.466  -0.214   7.387 -2.0223  0.8638  1.4109
  131OSM   C13S14131   5.463  -0.038   7.513  0.5550  0.0721 -0.5018
  131OSM   H13S14132   5.361   0.002   7.500  0.5371  0.8071  1.6517
  131OSM   H13T14133   5.528   0.052   7.525  0.1636  0.0520  1.9107
  131OSM   C14S14134   5.473  -0.113   7.652 -0.4326  0.5867  0.2251
  131OSM   H14S14135   5.575  -0.155   7.668 -0.0289  0.7244 -1.8396
  131OSM   H14T14136   5.415  -0.207   7.646 -2.6759  1.8415  1.4832
  131OSM   C15S14137   5.419  -0.032   7.769 -0.2807  0.0869 -0.0398
  131OSM   H15S14138   5.310  -0.045   7.787 -0.0264 -1.5379  0.4329
  131OSM   H15T14139   5.431   0.076   7.744 -1.2617  0.0949 -0.5071
  131OSM   C16S14140   5.495  -0.069   7.901  0.8250  0.1304  0.2101
  131OSM   H16S14141   5.604  -0.053   7.891  1.2318 -1.7352  1.5146
  131OSM   H16T14142   5.479  -0.176   7.924  1.1937 -0.4429 -2.1036
  131OSM   C17S14143   5.444   0.011   8.023 -0.0306 -0.2570  0.4455
  131OSM   H17S14144   5.342  -0.018   8.055  0.0230 -0.9803 -0.0321
  131OSM   H17T14145   5.444   0.117   7.990 -0.5184 -0.9212 -1.7683
  131OSM   C18S14146   5.542  -0.010   8.136  0.3160 -0.1300  0.0040
  131OSM   H18S14147   5.501   0.043   8.225  1.3017  0.6128  0.0215
  131OSM   H18T14148   5.645   0.024   8.112  0.7881  0.0391  2.1544
  131OSM   H18U14149   5.543  -0.118   8.162 -1.0220 -0.3832 -0.9333
  131OSM    C1F14150   5.442   0.576   6.575  0.2437  0.6204  0.1979
  131OSM     OF14151   5.351   0.632   6.517 -0.0900  0.3918 -0.0320
  131OSM    C2F14152   5.473   0.609   6.723 -0.0224 -0.2537  0.4964
  131OSM    H2F14153   5.374   0.640   6.762  0.3502 -0.3106  1.5114
  131OSM    H2G14154   5.546   0.692   6.715  1.6685 -1.3922  3.2854
  131OSM    C3F14155   5.535   0.491   6.803 -0.6048  0.2794  0.5218
  131OSM    H3F14156   5.643   0.476   6.780 -1.4514 -2.4889 -1.8497
  131OSM    H3G14157   5.480   0.395   6.793 -0.5023  0.1538  1.1221
  131OSM    C4F14158   5.531   0.507   6.962  0.4208 -0.3000  0.2962
  131OSM    H4F14159   5.421   0.501   6.972  0.1465 -2.2513 -3.1951
  131OSM    H4G14160   5.561   0.611   6.986 -1.0964  0.6165 -1.6465
  131OSM    C5F14161   5.593   0.384   7.029  0.4707 -0.4468 -1.2150
  131OSM    H5F14162   5.700   0.372   6.999  0.5237 -0.8441 -0.8684
  131OSM    H5G14163   5.541   0.288   7.006  0.0310 -0.6264  0.4938
  131OSM    C6F14164   5.610   0.380   7.182 -0.6099  0.5374  0.3219
  131OSM    H6F14165   5.681   0.301   7.214 -0.4819  0.3004 -0.5350
  131OSM    H6G14166   5.514   0.361   7.235  0.6905  1.2828  3.0244
  131OSM    C7F14167   5.669   0.510   7.229 -0.2491  0.1009  0.0850
  131OSM    H7F14168   5.600   0.593   7.204  1.3311  0.9628 -1.4876
  131OSM    H7G14169   5.763   0.531   7.174 -0.4293 -0.7689 -0.5618
  131OSM    C8F14170   5.711   0.504   7.379 -0.5737  0.1130 -0.2809
  131OSM    H8F14171   5.772   0.595   7.396  2.2973 -2.1060  1.9118
  131OSM    H8G14172   5.776   0.416   7.399 -0.7613 -0.4557 -2.1261
  131OSM    C9F14173   5.593   0.502   7.469  0.0286  0.1762 -0.7208
  131OSM    H9F14174   5.507   0.561   7.434 -2.3892 -1.9249  1.4799
  131OSM   C10F14175   5.582   0.436   7.584 -0.5732  0.0792 -0.1113
  131OSM   H10F14176   5.478   0.427   7.619 -1.4433 -1.0978 -2.8838
  131OSM   C11F14177   5.679   0.347   7.651  0.0333  0.1624  0.1698
  131OSM   H11F14178   5.777   0.337   7.600 -0.3632  0.3212 -0.6306
  131OSM   H11G14179   5.636   0.244   7.643 -1.7967  0.8386  1.0610
  131OSM   C12F14180   5.715   0.384   7.793 -0.0234  0.2696 -0.3220
  131OSM   H12F14181   5.769   0.481   7.803 -2.0063  1.3121  0.4880
  131OSM   H12G14182   5.779   0.304   7.834  0.8381  0.8238 -0.5733
  131OSM   C13F14183   5.595   0.387   7.887 -0.1860 -0.3115 -0.5463
  131OSM   H13F14184   5.518   0.308   7.875 -1.6126  1.2119 -1.6127
  131OSM   H13G14185   5.551   0.485   7.861  3.3944  0.6213 -3.6661
  131OSM   C14F14186   5.625   0.384   8.041 -0.2560 -0.0528  0.5811
  131OSM   H14F14187   5.717   0.437   8.074  0.0923 -0.1326 -0.2373
  131OSM   H14G14188   5.628   0.277   8.069  0.8652  0.1158  1.1057
  131OSM   C15F14189   5.517   0.457   8.122  0.4072 -0.2063  0.3238
  131OSM   H15F14190   5.421   0.414   8.087  0.6618 -0.9541  0.5267
  131OSM   H15G14191   5.517   0.562   8.083 -1.1985 -0.2716  0.1063
  131OSM   C16F14192   5.533   0.448   8.270  0.0147  0.3359 -0.2101
  131OSM   H16F14193   5.642   0.463   8.282  0.9581 -4.1477 -2.2303
  131OSM   H16G14194   5.509   0.343   8.297 -0.5758 -0.0633 -2.2121
  131OSM   C17F14195   5.444   0.539   8.355  0.8595  0.3422 -0.2973
  131OSM   H17F14196   5.344   0.490   8.362  1.6692 -1.4597 -0.9899
  131OSM   H17G14197   5.422   0.630   8.295  1.7770 -0.7470 -2.3659
  131OSM   C18F14198   5.510   0.563   8.497 -0.2004 -0.2198  0.1126
  131OSM   H18F14199   5.428   0.592   8.567  0.2624 -0.0976  0.6141
  131OSM   H18G14200   5.577   0.651   8.507  0.0434 -0.2326 -1.3925
  131OSM   H18H14201   5.549   0.467   8.537  1.7423 -0.2525 -1.7491
  132OSM      N14202   0.827   1.427   6.251 -0.0508  0.0558 -0.1632
  132OSM    C1514203   0.806   1.490   6.120  0.2526 -0.0184 -0.1118
  132OSM   H15A14204   0.771   1.592   6.129  0.2220  0.0817 -1.3094
  132OSM   H15B14205   0.734   1.436   6.061 -0.1171 -1.7573  1.8570
  132OSM   H15C14206   0.902   1.494   6.071  0.9459 -1.0086  1.1210
  132OSM    C1414207   0.874   1.284   6.230 -0.1367  0.0941  0.0866
  132OSM   H14A14208   0.976   1.288   6.193  0.1958 -1.9194  0.7002
  132OSM   H14B14209   0.808   1.228   6.167 -1.2807  2.0884 -0.5231
  132OSM   H14C14210   0.875   1.226   6.321 -0.1605 -0.9847 -0.5896
  132OSM    C1314211   0.916   1.512   6.335 -0.5411 -0.1932 -0.1029
  132OSM   H13A14212   1.011   1.519   6.284  0.3401 -0.4185  1.4632
  132OSM   H13B14213   0.938   1.473   6.433 -2.6192  0.2163  0.5404
  132OSM   H13C14214   0.872   1.611   6.342 -1.0504 -0.5203  1.5056
  132OSM    C1214215   0.698   1.425   6.333 -0.3564 -0.5526  0.8017
  132OSM   H12A14216   0.621   1.374   6.276  2.8285 -2.2380 -2.1555
  132OSM   H12B14217   0.671   1.526   6.360 -0.1120 -0.0285 -0.8652
  132OSM    C1114218   0.701   1.343   6.460  0.4840  0.6859 -0.4907
  132OSM   H11A14219   0.613   1.374   6.520  0.4556 -1.1360  0.4151
  132OSM   H11B14220   0.793   1.362   6.520 -0.1193  2.6776 -0.1488
  132OSM      P14221   0.551   1.144   6.394  0.0525  0.0883 -0.3834
  132OSM    O1314222   0.495   1.223   6.282 -0.0408  0.4842 -0.1093
  132OSM    O1414223   0.568   0.998   6.369  0.6018  0.7257  0.1806
  132OSM    O1114224   0.459   1.168   6.514  0.5131 -0.2606 -0.4950
  132OSM    O1214225   0.695   1.200   6.441 -0.0882 -0.3286 -0.2314
  132OSM    C1S14226   0.453   1.093   6.627 -0.2274 -0.0209 -0.2629
  132OSM    H1S14227   0.488   0.989   6.609  1.1060  0.6748 -1.7994
  132OSM    H1T14228   0.346   1.080   6.652 -0.7503  0.9072 -1.9617
  132OSM     NF14229   0.539   1.062   6.866 -0.0318  0.0532 -0.3176
  132OSM    HNF14230   0.481   1.088   6.943  1.4793 -3.1438  1.9854
  132OSM    C2S14231   0.533   1.151   6.748  0.5593 -0.4404  0.3778
  132OSM    H2S14232   0.631   1.177   6.702 -0.8724 -0.6522 -2.9050
  132OSM    C3S14233   0.471   1.295   6.791 -0.1492 -0.3911  0.3154
  132OSM    H3S14234   0.372   1.269   6.834 -0.3580  1.2861  0.8683
  132OSM     O314235   0.452   1.396   6.691  0.2904  0.0448  0.2454
  132OSM    HO314236   0.471   1.352   6.608 -0.8037 -0.5402  0.2950
  132OSM    C4S14237   0.560   1.344   6.899 -0.0113  0.1956 -0.3119
  132OSM    H4S14238   0.517   1.319   6.997 -0.0041 -1.9528 -0.8160
  132OSM    C5S14239   0.671   1.421   6.892  0.8307  0.4529  0.4662
  132OSM    H5S14240   0.704   1.461   6.795  0.0584 -0.8695 -0.3666
  132OSM    C6S14241   0.744   1.471   7.010 -0.1225  0.1700  0.2337
  132OSM    H6S14242   0.729   1.579   6.990 -1.8425 -0.0216  0.3882
  132OSM    H6T14243   0.852   1.446   7.002 -0.1706  0.4607 -1.7497
  132OSM    C7S14244   0.698   1.429   7.150 -0.0109 -0.3694 -0.1820
  132OSM    H7S14245   0.693   1.318   7.143  1.1312 -0.4320 -0.0597
  132OSM    H7T14246   0.598   1.473   7.169  1.1369  1.8878  0.8122
  132OSM    C8S14247   0.798   1.447   7.261 -0.4624  0.1164  0.2592
  132OSM    H8S14248   0.832   1.552   7.267  1.7985 -0.5646  0.0986
  132OSM    H8T14249   0.880   1.371   7.258 -1.1444 -0.5845 -1.6587
  132OSM    C9S14250   0.722   1.401   7.393 -0.3233  0.0860  1.1170
  132OSM    H9S14251   0.693   1.296   7.370 -0.2031  0.2025  0.4174
  132OSM    H9T14252   0.625   1.454   7.400 -0.1843  0.6001 -0.5187
  132OSM   C10S14253   0.810   1.431   7.517  0.8130 -0.4929  0.2236
  132OSM   H10S14254   0.820   1.536   7.552  0.1653 -0.1437 -0.6446
  132OSM   H10T14255   0.911   1.389   7.499  0.7830 -0.7823  0.7135
  132OSM   C11S14256   0.750   1.357   7.638  0.0425 -0.6829  0.6846
  132OSM   H11S14257   0.752   1.247   7.619  2.7350 -0.5560 -0.0606
  132OSM   H11T14258   0.644   1.386   7.646 -0.4136 -1.2557 -2.6653
  132OSM   C12S14259   0.832   1.391   7.762 -0.7405 -0.2322 -0.6169
  132OSM   H12S14260   0.825   1.501   7.780  2.1559 -0.4361  2.2067
  132OSM   H12T14261   0.935   1.350   7.749 -0.3078  1.6204 -3.4607
  132OSM   C13S14262   0.769   1.326   7.884  0.1221 -0.4651  0.6035
  132OSM   H13S14263   0.773   1.215   7.881 -1.6034 -0.5394  0.0425
  132OSM   H13T14264   0.661   1.350   7.898 -0.0794 -0.3027 -1.1078
  132OSM   C14S14265   0.835   1.370   8.019  0.4435  0.0675  0.3442
  132OSM   H14S14266   0.835   1.481   8.029  2.5787  0.0229  0.9582
  132OSM   H14T14267   0.937   1.328   8.010  0.9807  1.8301 -2.5063
  132OSM   C15S14268   0.771   1.307   8.139  0.7510  0.0872 -0.0277
  132OSM   H15S14269   0.834   1.334   8.227  0.5478  0.8181 -0.1087
  132OSM   H15T14270   0.757   1.198   8.123 -0.9644  0.3623 -0.4728
  132OSM   C16S14271   0.637   1.353   8.187 -0.0012  0.3000  0.2753
  132OSM   H16S14272   0.575   1.370   8.097  1.1400  0.5810 -0.4746
  132OSM   H16T14273   0.646   1.446   8.246 -2.1679  0.1355  0.9028
  132OSM   C17S14274   0.578   1.242   8.270  0.7901  0.5385  0.3339
  132OSM   H17S14275   0.649   1.221   8.353  1.3584 -1.5167 -0.6193
  132OSM   H17T14276   0.548   1.155   8.207 -1.9396  1.0867  0.8116
  132OSM   C18S14277   0.450   1.293   8.346 -0.2171  0.0879 -0.1820
  132OSM   H18S14278   0.361   1.297   8.279 -0.7815 -1.1958  0.4776
  132OSM   H18T14279   0.453   1.397   8.385 -1.7787  0.4071 -0.8938
  132OSM   H18U14280   0.423   1.221   8.425  0.0160 -1.7320 -1.7194
  132OSM    C1F14281   0.611   0.950   6.868  0.3219  0.4829 -0.5530
  132OSM     OF14282   0.689   0.927   6.776  0.5957 -0.0093  0.2390
  132OSM    C2F14283   0.592   0.856   6.984 -0.4254  0.5851 -0.0671
  132OSM    H2F14284   0.591   0.749   6.951  1.1895 -0.5247  3.2491
  132OSM    H2G14285   0.494   0.881   7.032 -0.2280  0.3272  0.4798
  132OSM    C3F14286   0.706   0.871   7.082 -0.0634 -0.3709 -0.0823
  132OSM    H3F14287   0.694   0.971   7.129 -1.5530 -0.8802  0.6753
  132OSM    H3G14288   0.807   0.893   7.042  0.9122  1.3463  3.1419
  132OSM    C4F14289   0.716   0.749   7.183  0.1631  0.3203 -0.0786
  132OSM    H4F14290   0.790   0.785   7.257 -2.9143  3.3853  1.6737
  132OSM    H4G14291   0.766   0.663   7.133  0.9614  1.0911 -0.6067
  132OSM    C5F14292   0.591   0.726   7.258  0.2009  0.0324 -0.1214
  132OSM    H5F14293   0.520   0.675   7.190  0.9569 -2.1863  0.7040
  132OSM    H5G14294   0.556   0.828   7.284 -1.6851 -1.0161  1.5714
  132OSM    C6F14295   0.600   0.642   7.389 -0.3640  0.3965 -0.5294
  132OSM    H6F14296   0.677   0.697   7.449  0.1279  0.5944 -1.3361
  132OSM    H6G14297   0.629   0.536   7.372 -1.5990 -0.0962  0.3285
  132OSM    C7F14298   0.462   0.639   7.447 -0.3375 -0.4736 -0.5209
  132OSM    H7F14299   0.402   0.602   7.361  0.0915 -0.2556 -0.9164
  132OSM    H7G14300   0.426   0.742   7.471 -1.8594 -0.9855 -0.5202
  132OSM    C8F14301   0.446   0.553   7.566  0.3664 -0.5672 -0.9678
  132OSM    H8F14302   0.484   0.454   7.533 -0.5105 -0.5027 -2.2173
  132OSM    H8G14303   0.340   0.534   7.592 -0.0860  1.1883 -1.4186
  132OSM    C9F14304   0.535   0.579   7.685  0.1012  0.5957 -0.4541
  132OSM    H9F14305   0.640   0.609   7.673  0.9767 -2.2444 -0.0813
  132OSM   C10F14306   0.497   0.559   7.816 -0.0580 -0.1668  0.1746
  132OSM   H10F14307   0.568   0.585   7.896 -1.2553  0.5830  1.0161
  132OSM   C11F14308   0.361   0.511   7.862  0.7955  0.0791 -0.0832
  132OSM   H11F14309   0.374   0.432   7.939 -5.0344 -0.4132  0.6413
  132OSM   H11G14310   0.305   0.451   7.787 -1.3548  0.8884  0.8194
  132OSM   C12F14311   0.278   0.633   7.908  0.6204  0.2795 -0.1800
  132OSM   H12F14312   0.269   0.710   7.828 -0.0206  1.5676  1.1156
  132OSM   H12G14313   0.321   0.678   8.000 -0.9042 -2.6583  2.0449
  132OSM   C13F14314   0.137   0.588   7.948 -0.5438 -0.1905  0.2548
  132OSM   H13F14315   0.079   0.534   7.871  1.7764  0.5384 -2.0746
  132OSM   H13G14316   0.091   0.689   7.959 -1.2157 -0.4294 -0.3779
  132OSM   C14F14317   0.120   0.506   8.077 -0.3447  0.0040 -0.0205
  132OSM   H14F14318   0.165   0.571   8.155  0.6576 -1.3042  0.4970
  132OSM   H14G14319   0.185   0.417   8.070  0.1273  0.3428  0.0295
  132OSM   C15F14320  -0.029   0.489   8.102  0.1564  0.0626 -0.2844
  132OSM   H15F14321  -0.072   0.408   8.039 -0.4277  0.7560 -0.7900
  132OSM   H15G14322  -0.084   0.584   8.083 -1.4280 -0.3581  1.9784
  132OSM   C16F14323  -0.052   0.444   8.248  0.2898  0.0694 -0.6779
  132OSM   H16F14324  -0.003   0.516   8.317 -1.5451  1.7971 -1.1332
  132OSM   H16G14325  -0.009   0.342   8.262 -2.4528 -0.6536  3.3353
  132OSM   C17F14326  -0.186   0.441   8.310  0.6782 -0.7770 -0.0196
  132OSM   H17F14327  -0.224   0.545   8.312 -1.2100 -1.4206 -0.6216
  132OSM   H17G14328  -0.172   0.408   8.415 -0.0138 -1.5424 -0.1550
  132OSM   C18F14329  -0.282   0.347   8.229  0.2265  0.1258  0.2170
  132OSM   H18F14330  -0.380   0.331   8.276  0.8392 -1.6372  0.9026
  132OSM   H18G14331  -0.246   0.243   8.218 -0.2873  0.0662 -0.9660
  132OSM   H18H14332  -0.307   0.378   8.125  4.2021 -0.9833 -1.1701
  133OSM      N14333   1.240   0.920   5.919 -0.5325 -0.3108  0.2344
  133OSM    C1514334   1.147   0.818   5.860 -0.0565  0.3118 -0.1285
  133OSM   H15A14335   1.083   0.772   5.933 -3.1718  1.8015 -1.8148
  133OSM   H15B14336   1.207   0.737   5.821  1.2481 -0.6534  3.6515
  133OSM   H15C14337   1.085   0.853   5.779  1.1458  1.2297 -0.6858
  133OSM    C1414338   1.341   0.846   6.006  0.3422  0.0990  0.1479
  133OSM   H14A14339   1.402   0.778   5.948  0.9770  0.0223  0.8951
  133OSM   H14B14340   1.286   0.798   6.085  0.1207  1.3609  0.7780
  133OSM   H14C14341   1.408   0.919   6.050  0.8775  0.5475 -1.3977
  133OSM    C1314342   1.307   0.980   5.803 -0.1268  0.2609  0.4676
  133OSM   H13A14343   1.250   1.056   5.752 -0.4274  1.3446  2.3451
  133OSM   H13B14344   1.330   0.905   5.730  2.8873  1.2647  0.3235
  133OSM   H13C14345   1.400   1.025   5.835 -0.7732  1.9602  0.0219
  133OSM    C1214346   1.166   1.030   5.997  0.1222  0.7584  0.5428
  133OSM   H12A14347   1.095   1.082   5.935 -0.7125 -0.2692  0.6194
  133OSM   H12B14348   1.239   1.107   6.018 -0.2905  0.8258  1.7454
  133OSM    C1114349   1.105   0.987   6.125 -0.1931  1.1590 -0.3239
  133OSM   H11A14350   1.040   0.898   6.119  1.1434  0.2769 -2.1350
  133OSM   H11B14351   1.034   1.068   6.152 -0.1546  0.1397  3.0877
  133OSM      P14352   1.258   1.072   6.330  0.1716  0.4934  0.0911
  133OSM    O1314353   1.355   1.016   6.421 -0.6741  0.1442 -0.1244
  133OSM    O1414354   1.296   1.198   6.265 -0.1505  0.7579  0.0702
  133OSM    O1114355   1.136   1.113   6.421 -0.3561 -0.1999 -0.2077
  133OSM    O1214356   1.199   0.959   6.223 -0.7499  0.1796 -0.0471
  133OSM    C1S14357   1.038   1.023   6.482  0.6766 -0.3405  0.2060
  133OSM    H1S14358   1.027   0.931   6.421  0.7118 -0.7703  0.8477
  133OSM    H1T14359   0.940   1.075   6.483  0.1396 -1.2123 -2.9340
  133OSM     NF14360   0.977   0.898   6.683 -0.1233  0.0039  0.4418
  133OSM    HNF14361   0.894   0.918   6.735 -1.4643 -2.7067 -0.5304
  133OSM    C2S14362   1.064   1.000   6.629  0.0254  0.5992  0.6396
  133OSM    H2S14363   1.168   0.959   6.636  0.2077  0.5068 -2.0577
  133OSM    C3S14364   1.055   1.136   6.708 -0.9052 -0.0216 -0.7973
  133OSM    H3S14365   0.946   1.156   6.714 -1.3693 -2.8880  1.5300
  133OSM     O314366   1.112   1.253   6.653 -0.0429 -0.5541  0.1384
  133OSM    HO314367   1.143   1.223   6.567  0.7141 -1.7028  0.8035
  133OSM    C4S14368   1.102   1.115   6.850  0.4663  0.5165  0.1513
  133OSM    H4S14369   1.010   1.093   6.906 -0.3865 -1.1386 -1.8642
  133OSM    C5S14370   1.213   1.146   6.917 -0.0590 -0.3086  0.6784
  133OSM    H5S14371   1.285   1.211   6.865 -1.0943  0.5182  0.2543
  133OSM    C6S14372   1.227   1.126   7.071 -0.4348 -0.2417 -0.7372
  133OSM    H6S14373   1.264   1.219   7.119  0.7580 -0.3720 -1.3864
  133OSM    H6T14374   1.295   1.039   7.075 -1.7956 -1.2944  0.0047
  133OSM    C7S14375   1.101   1.083   7.145 -0.5859 -0.4875 -0.7011
  133OSM    H7S14376   1.065   0.983   7.111 -0.5478 -0.6174 -0.3650
  133OSM    H7T14377   1.023   1.160   7.125  0.3596 -0.1791 -3.3387
  133OSM    C8S14378   1.116   1.071   7.294 -0.2507 -0.5275  0.3799
  133OSM    H8S14379   1.142   1.175   7.324 -3.4416  0.4434 -0.0406
  133OSM    H8T14380   1.191   0.995   7.325 -0.2872  0.0614  1.9594
  133OSM    C9S14381   0.981   1.033   7.356 -0.1451 -0.0643 -0.8070
  133OSM    H9S14382   0.951   0.934   7.317  1.9026  0.0742 -2.8521
  133OSM    H9T14383   0.907   1.114   7.335 -3.0070 -2.3813  0.0605
  133OSM   C10S14384   0.980   1.026   7.510  1.0888 -0.8990 -0.8527
  133OSM   H10S14385   1.001   1.131   7.538 -1.0218 -0.5943 -0.3198
  133OSM   H10T14386   1.061   0.966   7.558  0.0558 -1.1121  0.6742
  133OSM   C11S14387   0.838   0.982   7.574  0.1194  0.1248  0.6127
  133OSM   H11S14388   0.814   0.885   7.524 -0.1249 -1.2503  3.2902
  133OSM   H11T14389   0.765   1.052   7.528 -0.5195  1.2743  3.2570
  133OSM   C12S14390   0.843   0.962   7.726  0.2644  0.1581 -0.3800
  133OSM   H12S14391   0.890   1.052   7.771 -1.4980  0.0339  1.7535
  133OSM   H12T14392   0.918   0.879   7.728  0.7719  0.5597 -2.0258
  133OSM   C13S14393   0.713   0.900   7.778 -0.7585 -0.2082  0.3414
  133OSM   H13S14394   0.653   0.834   7.712 -0.0612  0.7011 -1.2555
  133OSM   H13T14395   0.638   0.982   7.777 -2.5395 -1.7862 -1.9260
  133OSM   C14S14396   0.713   0.828   7.908 -0.0018  0.1310  0.0137
  133OSM   H14S14397   0.760   0.732   7.878  0.3884  1.0648 -2.4871
  133OSM   H14T14398   0.611   0.813   7.949  0.1133  2.4331  1.2294
  133OSM   C15S14399   0.782   0.904   8.020 -0.0749 -0.8801 -0.1190
  133OSM   H15S14400   0.743   1.008   8.024  0.5338 -0.6587  0.0935
  133OSM   H15T14401   0.889   0.919   7.993 -0.6612  0.1938 -1.9378
  133OSM   C16S14402   0.776   0.835   8.159 -0.2349 -0.5105  0.9303
  133OSM   H16S14403   0.831   0.901   8.230  0.0468 -1.9612  2.0935
  133OSM   H16T14404   0.834   0.740   8.164 -2.7847 -2.0939  1.3823
  133OSM   C17S14405   0.638   0.804   8.214 -0.8091 -1.2071 -0.6372
  133OSM   H17S14406   0.605   0.714   8.158 -0.7208 -1.8287  0.3080
  133OSM   H17T14407   0.556   0.876   8.191  1.6727  2.4388  1.3671
  133OSM   C18S14408   0.632   0.790   8.374 -0.3583 -0.1040  0.7390
  133OSM   H18S14409   0.524   0.795   8.398 -0.7889  0.4504 -1.2043
  133OSM   H18T14410   0.685   0.877   8.420 -0.8841 -0.1203  1.3795
  133OSM   H18U14411   0.672   0.695   8.414  0.1432 -0.0304  0.4200
  133OSM    C1F14412   1.000   0.767   6.667  0.0516  0.2071 -0.6919
  133OSM     OF14413   1.098   0.732   6.603  0.0680 -0.3198 -0.5301
  133OSM    C2F14414   0.918   0.673   6.752 -0.3722  0.3716  0.2968
  133OSM    H2F14415   0.811   0.683   6.722  0.4600  2.4527 -2.1657
  133OSM    H2G14416   0.937   0.699   6.858 -0.0019 -2.4966  0.9870
  133OSM    C3F14417   0.961   0.532   6.713 -0.0469 -0.2266  0.0120
  133OSM    H3F14418   1.071   0.519   6.711  0.0364  0.2106  1.4596
  133OSM    H3G14419   0.944   0.526   6.603 -2.0734 -1.7011  0.3733
  133OSM    C4F14420   0.886   0.425   6.799 -0.3007  0.0585  0.6732
  133OSM    H4F14421   0.930   0.325   6.784  0.7535  0.3928  1.4916
  133OSM    H4G14422   0.781   0.419   6.761  0.1839  1.6219 -0.9992
  133OSM    C5F14423   0.887   0.461   6.947 -0.0607  0.2831  0.9727
  133OSM    H5F14424   0.816   0.544   6.965 -1.4179 -0.0277 -2.6130
  133OSM    H5G14425   0.991   0.493   6.969 -0.4930  2.0224  0.5636
  133OSM    C6F14426   0.852   0.345   7.040  0.3724 -0.0727 -0.1194
  133OSM    H6F14427   0.942   0.281   7.048 -0.6765 -1.6491 -0.7819
  133OSM    H6G14428   0.776   0.285   6.987  0.8705 -1.3184  0.5513
  133OSM    C7F14429   0.795   0.406   7.173  0.1514 -0.2832 -0.2449
  133OSM    H7F14430   0.695   0.448   7.150 -1.6588 -3.3186  1.6748
  133OSM    H7G14431   0.870   0.478   7.213 -0.0538  0.6977 -1.6228
  133OSM    C8F14432   0.779   0.302   7.277  0.4019  0.2998 -0.5040
  133OSM    H8F14433   0.715   0.343   7.359 -1.6771 -1.6645 -1.1173
  133OSM    H8G14434   0.883   0.289   7.314  0.3224  0.6162 -0.1618
  133OSM    C9F14435   0.727   0.167   7.237  0.2664  0.4538 -0.6505
  133OSM    H9F14436   0.720   0.154   7.128 -0.8030  1.0572 -0.6543
  133OSM   C10F14437   0.712   0.058   7.310  0.1821 -0.1465  0.0472
  133OSM   H10F14438   0.675  -0.034   7.261 -0.1515  0.6930 -1.2836
  133OSM   C11F14439   0.740   0.053   7.458 -0.0206 -0.0853 -0.0180
  133OSM   H11F14440   0.807   0.133   7.497  0.1884 -1.5812  2.8269
  133OSM   H11G14441   0.799  -0.039   7.481 -1.4090 -1.0647 -0.3059
  133OSM   C12F14442   0.605   0.070   7.528  0.2103  0.7831 -0.0669
  133OSM   H12F14443   0.533  -0.005   7.490 -0.6697  1.4194  0.3295
  133OSM   H12G14444   0.573   0.173   7.500  0.2425  0.9716  0.5725
  133OSM   C13F14445   0.608   0.064   7.684  0.0565 -0.0725 -0.5504
  133OSM   H13F14446   0.679   0.138   7.727  0.2589 -0.4840 -0.1688
  133OSM   H13G14447   0.644  -0.035   7.719 -3.6963 -1.5136 -0.5741
  133OSM   C14F14448   0.472   0.102   7.741  0.4053 -0.0366  0.1243
  133OSM   H14F14449   0.397   0.022   7.724  1.0258 -0.7365  0.6606
  133OSM   H14G14450   0.443   0.199   7.695 -2.7086 -0.8496  0.2704
  133OSM   C15F14451   0.464   0.124   7.890  0.2914 -0.3110  0.0073
  133OSM   H15F14452   0.362   0.161   7.911  0.8988  1.1895  0.3812
  133OSM   H15G14453   0.542   0.200   7.915 -0.7081  0.2704  1.3899
  133OSM   C16F14454   0.495  -0.001   7.978 -0.5380 -0.0955  1.0755
  133OSM   H16F14455   0.587  -0.049   7.938 -2.0454 -1.5780 -0.7605
  133OSM   H16G14456   0.417  -0.078   7.957 -1.5368  1.5829 -1.7586
  133OSM   C17F14457   0.499   0.042   8.123  0.9891 -0.2157  0.4563
  133OSM   H17F14458   0.398   0.080   8.148  0.9770 -0.5857  0.9836
  133OSM   H17G14459   0.574   0.120   8.146 -0.8739  1.1215  2.2929
  133OSM   C18F14460   0.521  -0.082   8.216  0.6368 -0.3094 -0.2437
  133OSM   H18F14461   0.436  -0.153   8.212 -0.9643  1.3142  2.8658
  133OSM   H18G14462   0.513  -0.048   8.321 -0.2876 -4.3933  1.0761
  133OSM   H18H14463   0.617  -0.135   8.206  1.5954  1.3443  0.0490
  134OSM      N14464   2.224   3.911   6.117  0.1428 -0.2072 -0.1694
  134OSM    C1514465   2.223   3.837   6.244  0.1521 -0.2657  0.2098
  134OSM   H15A14466   2.227   3.730   6.231  0.8436 -0.3150  0.8053
  134OSM   H15B14467   2.134   3.860   6.302 -0.5808  0.9126 -1.3575
  134OSM   H15C14468   2.310   3.866   6.301  0.6170  1.5697 -1.3917
  134OSM    C1414469   2.362   3.901   6.056  0.6873 -0.3918 -0.1036
  134OSM   H14A14470   2.376   3.794   6.049 -0.6814 -0.6826  1.3240
  134OSM   H14B14471   2.437   3.948   6.118  2.0018 -1.2701 -0.9987
  134OSM   H14C14472   2.371   3.946   5.958 -0.1024  0.1549  0.0733
  134OSM    C1314473   2.131   3.849   6.014  0.1649 -0.2284 -0.4527
  134OSM   H13A14474   2.166   3.754   5.976  1.6761  0.3377 -0.4983
  134OSM   H13B14475   2.102   3.912   5.931 -3.3296  0.3721  1.1158
  134OSM   H13C14476   2.037   3.825   6.061 -1.2649  1.2113 -2.4719
  134OSM    C1214477   2.199   4.058   6.136  0.2730  0.7133  0.4097
  134OSM   H12A14478   2.213   4.107   6.041 -2.0702 -0.8706 -0.8072
  134OSM   H12B14479   2.273   4.092   6.207  0.1109  1.5773  0.1621
  134OSM    C1114480   2.057   4.090   6.194 -0.4085 -0.1544 -0.3728
  134OSM   H11A14481   1.975   4.046   6.134  0.9134 -1.5374 -1.2254
  134OSM   H11B14482   2.051   4.201   6.190  0.6898  0.1867  4.1813
  134OSM      P14483   1.924   4.065   6.417  0.1419  0.0192 -0.0625
  134OSM    O1314484   1.949   4.164   6.524  0.3432 -0.6523  0.8371
  134OSM    O1414485   1.806   4.090   6.330  0.0813 -0.5501  0.3872
  134OSM    O1114486   1.922   3.918   6.477 -0.1489 -0.7411 -0.0782
  134OSM    O1214487   2.055   4.052   6.336 -0.5515  0.3060 -0.0636
  134OSM    C1S14488   2.010   3.892   6.585 -0.2312 -0.5330  0.0991
  134OSM    H1S14489   1.995   3.957   6.673  4.2195  1.6256 -0.5959
  134OSM    H1T14490   2.119   3.907   6.567 -0.5254  1.5606 -0.0454
  134OSM     NF14491   2.050   3.728   6.771  0.2616  0.5128  0.4452
  134OSM    HNF14492   2.132   3.672   6.782 -0.8526 -1.0855  0.8956
  134OSM    C2S14493   2.007   3.747   6.631  0.2098 -0.0998  0.0496
  134OSM    H2S14494   1.904   3.707   6.619 -0.8632  1.9392  1.9835
  134OSM    C3S14495   2.087   3.660   6.530  0.8785  0.1569 -0.4050
  134OSM    H3S14496   2.181   3.715   6.510  0.2168  0.9770 -1.2897
  134OSM     O314497   2.020   3.655   6.403 -0.7972 -0.2030 -0.1047
  134OSM    HO314498   1.952   3.721   6.418 -0.5302  0.0459  0.0250
  134OSM    C4S14499   2.115   3.517   6.569 -0.2492  0.1574 -0.3444
  134OSM    H4S14500   2.197   3.505   6.641  0.4915  1.7785 -0.9061
  134OSM    C5S14501   2.052   3.402   6.543 -0.5952  0.0259  0.5951
  134OSM    H5S14502   1.965   3.400   6.476 -0.6644  2.0609  0.5888
  134OSM    C6S14503   2.090   3.261   6.586  0.1567 -0.1904 -0.3085
  134OSM    H6S14504   2.107   3.204   6.492  0.1959 -0.3540 -0.2020
  134OSM    H6T14505   2.004   3.211   6.636  1.2690 -0.5828  1.2352
  134OSM    C7S14506   2.206   3.247   6.682  0.3212 -0.5568 -0.0709
  134OSM    H7S14507   2.294   3.294   6.633  0.2830 -0.8879 -0.4654
  134OSM    H7T14508   2.215   3.136   6.683  1.8248 -0.4658 -1.1092
  134OSM    C8S14509   2.184   3.299   6.829 -0.2272  0.3251  0.2996
  134OSM    H8S14510   2.082   3.273   6.865 -0.5886  1.3289  0.0334
  134OSM    H8T14511   2.180   3.410   6.822 -1.2829  0.2202 -1.0737
  134OSM    C9S14512   2.294   3.255   6.926  0.1782  0.0635  0.3918
  134OSM    H9S14513   2.392   3.295   6.892 -0.7983 -0.2922 -2.9890
  134OSM    H9T14514   2.310   3.145   6.926 -2.4542 -0.3691 -1.5334
  134OSM   C10S14515   2.256   3.286   7.073 -0.2946 -0.0509 -0.2301
  134OSM   H10S14516   2.148   3.263   7.082  0.3964 -2.4386  3.0436
  134OSM   H10T14517   2.262   3.396   7.089  0.5308  0.0546 -1.2275
  134OSM   C11S14518   2.341   3.221   7.176  0.4005 -0.2986 -0.3500
  134OSM   H11S14519   2.447   3.256   7.172  1.6108 -3.8504 -1.1191
  134OSM   H11T14520   2.346   3.112   7.155  1.3888  0.1937 -2.7851
  134OSM   C12S14521   2.292   3.237   7.319 -0.1946  0.0755  0.3175
  134OSM   H12S14522   2.189   3.200   7.335 -0.2510  0.7510  1.6450
  134OSM   H12T14523   2.298   3.344   7.350 -2.2238 -0.4696  2.7229
  134OSM   C13S14524   2.381   3.161   7.418 -0.0728 -0.9481 -0.7845
  134OSM   H13S14525   2.484   3.203   7.415 -0.2715 -0.4725 -1.2105
  134OSM   H13T14526   2.386   3.056   7.383  0.4617 -1.1703 -0.0519
  134OSM   C14S14527   2.335   3.185   7.561  0.1148  1.0274 -0.0658
  134OSM   H14S14528   2.237   3.134   7.575 -0.6368  3.4762  5.1258
  134OSM   H14T14529   2.310   3.293   7.578 -1.2997  0.6505  0.3576
  134OSM   C15S14530   2.430   3.126   7.662 -0.5562 -0.9052  0.0387
  134OSM   H15S14531   2.510   3.201   7.683 -1.3507  0.3718 -1.3857
  134OSM   H15T14532   2.461   3.025   7.628  1.0507  0.0930 -1.6111
  134OSM   C16S14533   2.359   3.098   7.802  0.5367  0.5335 -0.1632
  134OSM   H16S14534   2.313   2.997   7.788 -0.9247  0.7890  2.5572
  134OSM   H16T14535   2.277   3.171   7.817  0.7722  0.6856  0.4013
  134OSM   C17S14536   2.459   3.112   7.919  0.1123 -0.6421 -0.3936
  134OSM   H17S14537   2.480   3.220   7.930 -1.7829 -0.1558 -1.4531
  134OSM   H17T14538   2.550   3.054   7.893  1.2276  0.3314  1.2210
  134OSM   C18S14539   2.405   3.054   8.050  0.4318 -0.2501 -0.3338
  134OSM   H18S14540   2.387   2.945   8.035  0.3066 -0.1504 -0.9306
  134OSM   H18T14541   2.309   3.099   8.084  0.1580 -2.8372  2.6309
  134OSM   H18U14542   2.473   3.059   8.138 -0.1878  2.8815  0.0264
  134OSM    C1F14543   1.993   3.777   6.880  0.3246 -0.4597 -0.3841
  134OSM     OF14544   1.880   3.829   6.876  0.1774 -0.8507  0.0557
  134OSM    C2F14545   2.069   3.750   7.009 -0.0951  0.1621  0.2911
  134OSM    H2F14546   2.172   3.789   7.000  0.5407 -1.7240 -0.9538
  134OSM    H2G14547   2.074   3.640   7.023 -1.8304  0.0533  0.2338
  134OSM    C3F14548   1.988   3.812   7.126  0.7448 -0.3040 -0.2290
  134OSM    H3F14549   1.889   3.763   7.126  0.1083  0.9661 -0.3503
  134OSM    H3G14550   1.973   3.920   7.108  1.3955 -0.1873 -0.1023
  134OSM    C4F14551   2.039   3.793   7.267 -0.1973  0.4188 -0.5042
  134OSM    H4F14552   2.139   3.841   7.272  0.0327 -0.1422  0.3988
  134OSM    H4G14553   2.050   3.684   7.286  0.1820  0.7469  1.3035
  134OSM    C5F14554   1.931   3.856   7.363  0.0056 -0.5597 -0.9548
  134OSM    H5F14555   1.839   3.796   7.342  1.2266 -2.2753 -1.4702
  134OSM    H5G14556   1.918   3.961   7.330  2.7851 -0.6318 -2.3705
  134OSM    C6F14557   1.970   3.866   7.515 -0.5280  0.1342  0.0609
  134OSM    H6F14558   1.958   3.765   7.560 -0.3694  0.2115  0.2733
  134OSM    H6G14559   1.893   3.928   7.566 -2.4393 -1.0145 -1.3763
  134OSM    C7F14560   2.109   3.917   7.553  0.5332 -0.3827 -0.0650
  134OSM    H7F14561   2.108   4.025   7.528  0.9548 -0.4040 -0.1823
  134OSM    H7G14562   2.179   3.864   7.485  3.1407  0.5629  1.8120
  134OSM    C8F14563   2.146   3.890   7.698  0.5782 -0.1978 -0.0426
  134OSM    H8F14564   2.256   3.903   7.701  0.6430  0.5706 -3.4969
  134OSM    H8G14565   2.122   3.783   7.717  1.6263 -0.0406  2.2861
  134OSM    C9F14566   2.085   3.997   7.794  0.1524 -0.3098  0.8423
  134OSM    H9F14567   1.990   4.039   7.759 -0.7416 -2.3973  0.7017
  134OSM   C10F14568   2.148   4.046   7.905  0.4552  0.0904  0.0245
  134OSM   H10F14569   2.095   4.119   7.968  0.2691  0.7766 -0.9167
  134OSM   C11F14570   2.281   4.023   7.960 -0.5116  1.1093 -0.1361
  134OSM   H11F14571   2.331   4.122   7.963 -0.8364  1.3418 -1.8716
  134OSM   H11G14572   2.342   3.949   7.903 -0.4305 -0.0466  1.4300
  134OSM   C12F14573   2.280   3.963   8.105 -0.0291 -0.2891  0.2471
  134OSM   H12F14574   2.242   3.858   8.098  0.3582 -0.3170 -1.5919
  134OSM   H12G14575   2.207   4.014   8.171  0.4831  2.6192 -1.3748
  134OSM   C13F14576   2.415   3.952   8.169  0.3791 -0.7720 -0.3864
  134OSM   H13F14577   2.469   4.044   8.137  2.4277 -1.9487 -0.3810
  134OSM   H13G14578   2.478   3.879   8.114  0.1264 -0.9388 -0.4569
  134OSM   C14F14579   2.409   3.928   8.323 -0.2114 -0.3765  0.0529
  134OSM   H14F14580   2.346   3.840   8.347  0.4304 -0.5562  1.0977
  134OSM   H14G14581   2.367   4.009   8.386  0.4053 -2.4355  3.2476
  134OSM   C15F14582   2.544   3.910   8.393  0.1088 -0.0439 -0.3812
  134OSM   H15F14583   2.595   4.003   8.362  0.3067  0.2052  0.6932
  134OSM   H15G14584   2.600   3.823   8.353 -2.1839 -2.0093  0.5629
  134OSM   C16F14585   2.549   3.887   8.547  0.9066  0.4106  0.5344
  134OSM   H16F14586   2.523   3.782   8.570  1.5757  0.5125  1.8338
  134OSM   H16G14587   2.470   3.956   8.584  1.4057  0.7741  0.9237
  134OSM   C17F14588   2.683   3.922   8.609  0.0030  0.3374 -0.1546
  134OSM   H17F14589   2.712   4.024   8.577  0.7467  0.6309  1.4242
  134OSM   H17G14590   2.759   3.865   8.551 -0.9117 -0.6734 -0.3951
  134OSM   C18F14591   2.717   3.902   8.757  0.2009  0.3893 -0.4658
  134OSM   H18F14592   2.715   3.792   8.776  0.2364  0.5625  0.5515
  134OSM   H18G14593   2.645   3.953   8.825  0.0986 -0.0777 -0.2197
  134OSM   H18H14594   2.818   3.932   8.791 -0.3896  2.2106 -0.2503
  135OSM      N14595   1.664   3.750   6.055 -0.5518  0.9003 -0.5380
  135OSM    C1514596   1.616   3.612   6.043  0.1286 -0.2917 -0.2709
  135OSM   H15A14597   1.587   3.597   5.940 -1.0777  0.8367 -0.0977
  135OSM   H15B14598   1.551   3.591   6.127  1.2921  2.4112  1.3802
  135OSM   H15C14599   1.701   3.546   6.055  0.5710  0.1222 -1.1348
  135OSM    C1414600   1.734   3.764   6.183  0.0696  0.1310 -0.1336
  135OSM   H14A14601   1.658   3.754   6.259 -0.0014 -0.6812 -0.3110
  135OSM   H14B14602   1.783   3.857   6.208  0.9955 -0.6416  0.9260
  135OSM   H14C14603   1.808   3.691   6.210 -1.7194 -1.4439  0.6331
  135OSM    C1314604   1.768   3.770   5.949 -0.1377  1.7091 -0.2595
  135OSM   H13A14605   1.731   3.738   5.853  0.4876 -1.1696  0.4051
  135OSM   H13B14606   1.854   3.706   5.967 -1.9467 -0.4530  0.8836
  135OSM   H13C14607   1.797   3.874   5.944  1.8056  1.3006  1.6843
  135OSM    C1214608   1.558   3.860   6.032 -0.8502  0.1645 -1.0155
  135OSM   H12A14609   1.529   3.858   5.928 -2.1302 -0.2705 -0.6600
  135OSM   H12B14610   1.590   3.961   6.054  0.9122 -0.5984 -0.0018
  135OSM    C1114611   1.430   3.845   6.113 -0.0167 -0.8435 -0.4849
  135OSM   H11A14612   1.392   3.742   6.093 -0.7659 -0.9593  1.4201
  135OSM   H11B14613   1.355   3.922   6.084  0.5607 -0.1034 -0.0367
  135OSM      P14614   1.388   3.799   6.365  0.3835  0.4427  0.5751
  135OSM    O1314615   1.299   3.892   6.442 -0.3820 -0.2853 -0.2795
  135OSM    O1414616   1.319   3.678   6.312 -0.0879  0.7144 -0.5470
  135OSM    O1114617   1.504   3.754   6.462  0.1308  0.0738  0.1661
  135OSM    O1214618   1.459   3.873   6.250 -0.2105  0.3422  0.0497
  135OSM    C1S14619   1.574   3.854   6.539 -0.4234  0.6580  0.5910
  135OSM    H1S14620   1.574   3.958   6.501  0.7330  0.9665  1.4018
  135OSM    H1T14621   1.680   3.820   6.539 -0.5421  0.2348 -1.0184
  135OSM     NF14622   1.635   3.953   6.759  0.2733  0.2455  0.4574
  135OSM    HNF14623   1.709   3.908   6.808  0.6321 -0.2622 -0.5502
  135OSM    C2S14624   1.541   3.867   6.688  0.0983  0.8235 -0.5043
  135OSM    H2S14625   1.441   3.915   6.698 -1.0437 -1.8012  1.2935
  135OSM    C3S14626   1.526   3.726   6.754 -0.4762  0.3070 -0.2882
  135OSM    H3S14627   1.618   3.664   6.751 -0.3485  0.5120 -0.7417
  135OSM     O314628   1.434   3.636   6.691 -0.1542 -0.7160  0.0503
  135OSM    HO314629   1.438   3.675   6.603 -0.1207 -2.1620 -0.5980
  135OSM    C4S14630   1.482   3.733   6.894 -0.3496  0.2972 -0.3542
  135OSM    H4S14631   1.374   3.750   6.910 -1.0606 -0.9756 -3.5069
  135OSM    C5S14632   1.562   3.715   7.000 -0.1545  0.5526 -0.5272
  135OSM    H5S14633   1.669   3.699   6.980 -0.1321 -0.1834  0.1762
  135OSM    C6S14634   1.527   3.713   7.143 -0.5600  0.0199 -0.1227
  135OSM    H6S14635   1.586   3.637   7.198 -0.6349 -0.9034 -1.2875
  135OSM    H6T14636   1.424   3.673   7.151 -1.1990  1.8477  1.1968
  135OSM    C7S14637   1.537   3.851   7.211 -0.4918 -0.1091  0.5189
  135OSM    H7S14638   1.468   3.912   7.148  1.0700  2.0360  0.8335
  135OSM    H7T14639   1.639   3.894   7.212  0.1471 -1.5953  0.4854
  135OSM    C8S14640   1.464   3.855   7.346  0.4547  0.1541  0.2972
  135OSM    H8S14641   1.356   3.827   7.341  0.6222 -0.2397 -1.3342
  135OSM    H8T14642   1.474   3.963   7.369  0.7397  0.7734 -2.4687
  135OSM    C9S14643   1.533   3.777   7.459 -0.3231  0.2715 -0.1407
  135OSM    H9S14644   1.642   3.788   7.439  0.0676 -1.8150  0.7389
  135OSM    H9T14645   1.513   3.668   7.451  1.4078  0.0249 -1.4782
  135OSM   C10S14646   1.502   3.818   7.605  0.5134  0.6976  0.3892
  135OSM   H10S14647   1.394   3.814   7.629  0.7895 -0.1439  1.5932
  135OSM   H10T14648   1.534   3.924   7.616 -0.3526  0.8329  1.6726
  135OSM   C11S14649   1.566   3.738   7.726 -0.1105 -0.3236  0.1634
  135OSM   H11S14650   1.534   3.632   7.712 -2.1467  0.1625  0.9453
  135OSM   H11T14651   1.526   3.742   7.829  3.8335 -3.6156  1.9680
  135OSM   C12S14652   1.718   3.764   7.736  0.8090  0.5524  0.4024
  135OSM   H12S14653   1.742   3.872   7.749 -2.4001  1.4598 -0.6327
  135OSM   H12T14654   1.764   3.744   7.637  0.4819  2.0889 -0.0716
  135OSM   C13S14655   1.794   3.683   7.844 -0.0510 -0.8808  0.2817
  135OSM   H13S14656   1.905   3.680   7.839 -0.0848 -1.8471  0.1193
  135OSM   H13T14657   1.754   3.580   7.844  1.1665 -1.4131 -3.4174
  135OSM   C14S14658   1.785   3.745   7.993 -0.1431 -0.1350 -0.2944
  135OSM   H14S14659   1.684   3.793   7.996 -0.2637  0.1096 -4.6848
  135OSM   H14T14660   1.864   3.823   7.994  1.9843 -2.2625  0.0504
  135OSM   C15S14661   1.811   3.637   8.098  0.3420 -0.6137 -0.8170
  135OSM   H15S14662   1.903   3.578   8.078  1.0316  0.2513 -0.2260
  135OSM   H15T14663   1.734   3.564   8.065  0.4738 -1.7437  1.3058
  135OSM   C16S14664   1.798   3.686   8.243 -0.5654  0.1256 -0.0239
  135OSM   H16S14665   1.791   3.598   8.311  1.8066 -1.1082 -1.2768
  135OSM   H16T14666   1.703   3.738   8.262 -0.6025 -1.2332  4.0427
  135OSM   C17S14667   1.911   3.779   8.300 -0.2260 -0.0202 -0.3710
  135OSM   H17S14668   1.899   3.873   8.241 -3.1170 -0.5408 -0.6956
  135OSM   H17T14669   2.008   3.725   8.292 -2.0615 -3.5605  0.6265
  135OSM   C18S14670   1.871   3.821   8.441 -0.0075  0.1117 -0.2320
  135OSM   H18S14671   1.905   3.751   8.521  4.3407  0.6036 -1.5111
  135OSM   H18T14672   1.763   3.834   8.463 -0.0034 -1.3935  0.7147
  135OSM   H18U14673   1.923   3.915   8.472 -0.0953  0.2046 -0.3652
  135OSM    C1F14674   1.621   4.086   6.746 -0.0519  0.0058  0.7284
  135OSM     OF14675   1.518   4.128   6.694 -0.1291 -0.2477  0.2429
  135OSM    C2F14676   1.733   4.172   6.778  0.6600  0.3571 -1.2088
  135OSM    H2F14677   1.762   4.240   6.695 -0.4333  2.8881  0.4385
  135OSM    H2G14678   1.817   4.107   6.813 -2.4335 -2.7073  0.7718
  135OSM    C3F14679   1.703   4.252   6.909  0.0353 -0.5725 -0.1929
  135OSM    H3F14680   1.614   4.318   6.904  0.0914 -0.3374  1.6924
  135OSM    H3G14681   1.782   4.325   6.934  0.5044  0.3374 -4.0333
  135OSM    C4F14682   1.672   4.161   7.027  0.0394 -0.5346  0.3549
  135OSM    H4F14683   1.756   4.088   7.030 -1.2085 -2.1329 -1.7988
  135OSM    H4G14684   1.576   4.106   7.023  0.2911 -1.0015  0.7288
  135OSM    C5F14685   1.675   4.248   7.151 -0.0705  0.0938  0.0144
  135OSM    H5F14686   1.579   4.304   7.152  0.7441  1.5164  1.1376
  135OSM    H5G14687   1.760   4.320   7.155 -0.8138  1.0051 -0.2379
  135OSM    C6F14688   1.678   4.173   7.292 -0.3249  0.0147 -0.1558
  135OSM    H6F14689   1.752   4.090   7.294  0.4236  0.5934 -2.2191
  135OSM    H6G14690   1.579   4.126   7.311  0.4365 -1.3965  0.4089
  135OSM    C7F14691   1.697   4.272   7.408  0.3078 -0.6050 -0.0043
  135OSM    H7F14692   1.600   4.324   7.423  0.1368 -1.2939  1.3077
  135OSM    H7G14693   1.773   4.347   7.374  0.9327 -2.3880 -2.7166
  135OSM    C8F14694   1.746   4.203   7.541  0.9244  0.1281  0.2914
  135OSM    H8F14695   1.843   4.148   7.531  0.8830 -0.5421  3.0627
  135OSM    H8G14696   1.671   4.124   7.561  1.9716 -1.1233 -0.6256
  135OSM    C9F14697   1.757   4.307   7.652 -0.1638  1.0115  0.6619
  135OSM    H9F14698   1.847   4.370   7.640  1.1621 -0.8046  0.8102
  135OSM   C10F14699   1.686   4.310   7.766 -0.3813  0.3963  0.4583
  135OSM   H10F14700   1.716   4.385   7.841  5.3861 -2.3200  1.1377
  135OSM   C11F14701   1.569   4.225   7.804  0.7641  0.2989  0.5130
  135OSM   H11F14702   1.515   4.199   7.711  1.5586 -0.9380  0.3863
  135OSM   H11G14703   1.494   4.281   7.864 -0.6002 -0.4238 -0.4751
  135OSM   C12F14704   1.605   4.098   7.876 -0.2375 -0.2596 -0.3949
  135OSM   H12F14705   1.698   4.059   7.830 -0.0268  0.8796 -0.9414
  135OSM   H12G14706   1.542   4.018   7.832  0.6619 -1.2290  0.0419
  135OSM   C13F14707   1.602   4.099   8.033 -0.2595 -0.1444  0.1111
  135OSM   H13F14708   1.631   3.997   8.067 -1.0609 -0.4255 -0.0541
  135OSM   H13G14709   1.504   4.131   8.072  0.7720  0.7499  2.0551
  135OSM   C14F14710   1.722   4.183   8.088 -0.2975 -0.3118  0.2451
  135OSM   H14F14711   1.705   4.290   8.063 -0.4909 -0.7091 -1.3808
  135OSM   H14G14712   1.820   4.156   8.045 -0.4393  0.2262 -0.4123
  135OSM   C15F14713   1.725   4.179   8.241 -0.0699  0.5715  0.3703
  135OSM   H15F14714   1.770   4.083   8.275 -0.8527  0.3788  0.8845
  135OSM   H15G14715   1.622   4.187   8.281 -0.1609 -0.6479  0.4197
  135OSM   C16F14716   1.794   4.304   8.299 -0.4236 -0.3501 -0.4950
  135OSM   H16F14717   1.781   4.297   8.409  0.0954 -0.0797 -0.4201
  135OSM   H16G14718   1.739   4.397   8.271 -1.3828 -1.4731 -2.4780
  135OSM   C17F14719   1.951   4.309   8.266  0.5943 -0.0271 -0.7659
  135OSM   H17F14720   1.992   4.406   8.303 -0.3643  0.0850  0.0126
  135OSM   H17G14721   1.965   4.299   8.156  0.0310  0.1487 -0.8536
  135OSM   C18F14722   2.025   4.199   8.332  0.5792  0.4847 -0.3356
  135OSM   H18F14723   1.989   4.176   8.435  1.7485 -1.4408 -0.3397
  135OSM   H18G14724   2.132   4.220   8.352  0.9275 -0.6787 -0.9352
  135OSM   H18H14725   2.012   4.103   8.279 -0.5871  0.6628 -0.3883
  136OSM      N14726   6.584   3.665   6.013  0.3043 -0.0808  0.1089
  136OSM    C1514727   6.447   3.681   6.067 -0.3573 -0.2845 -0.0143
  136OSM   H15A14728   6.446   3.660   6.173  1.0538 -2.5280 -0.4170
  136OSM   H15B14729   6.369   3.621   6.023 -1.7090  1.1895  0.3383
  136OSM   H15C14730   6.419   3.785   6.074 -2.3626 -0.7965 -0.1456
  136OSM    C1414731   6.623   3.529   6.006  0.5261  0.4247  0.2092
  136OSM   H14A14732   6.577   3.470   5.928  1.4340 -0.5358  0.3959
  136OSM   H14B14733   6.610   3.488   6.105  1.8935 -0.9270 -0.1659
  136OSM   H14C14734   6.724   3.520   5.970  0.9888  0.5381  1.4612
  136OSM    C1314735   6.566   3.728   5.875  0.3922 -0.0594 -0.1555
  136OSM   H13A14736   6.542   3.833   5.882 -1.6432 -0.2944 -2.9333
  136OSM   H13B14737   6.490   3.684   5.812  1.2384  0.0146 -1.2405
  136OSM   H13C14738   6.658   3.715   5.820  1.0326 -0.5342  1.0228
  136OSM    C1214739   6.690   3.747   6.081  0.0983 -0.0295 -0.1984
  136OSM   H12A14740   6.766   3.749   6.004  1.3967  1.8123  1.1015
  136OSM   H12B14741   6.728   3.696   6.167  1.4531  0.9477 -0.2016
  136OSM    C1114742   6.657   3.889   6.127 -0.1541  0.3046  0.2783
  136OSM   H11A14743   6.738   3.922   6.195  1.8597 -1.0718 -1.3985
  136OSM   H11B14744   6.565   3.881   6.189 -2.0171 -0.4217 -2.4537
  136OSM      P14745   6.752   4.057   5.949 -0.0096 -0.1335 -0.2630
  136OSM    O1314746   6.867   3.965   5.909  0.3766  0.5263  0.0239
  136OSM    O1414747   6.689   4.127   5.840 -0.2676  0.3769  0.3521
  136OSM    O1114748   6.802   4.152   6.060 -0.6247  0.1377  0.0543
  136OSM    O1214749   6.632   3.974   6.014 -0.1337 -0.5522 -0.0649
  136OSM    C1S14750   6.709   4.229   6.136  0.0489  0.8778  0.0697
  136OSM    H1S14751   6.637   4.167   6.194  1.3846  0.8781  1.7632
  136OSM    H1T14752   6.660   4.297   6.064 -2.0025  0.3684  0.9452
  136OSM     NF14753   6.680   4.392   6.317  0.1944  0.2785  0.3004
  136OSM    HNF14754   6.622   4.462   6.277 -2.9194 -0.8833  2.5625
  136OSM    C2S14755   6.778   4.332   6.229  0.4129 -0.0867 -0.1578
  136OSM    H2S14756   6.847   4.276   6.296 -0.1408 -0.9317 -0.2771
  136OSM    C3S14757   6.856   4.441   6.142 -0.5546  0.5134 -0.1171
  136OSM    H3S14758   6.775   4.498   6.091 -0.8153  1.0039  0.8295
  136OSM     O314759   6.953   4.393   6.048  0.4614 -0.0414 -0.0886
  136OSM    HO314760   6.925   4.301   6.051 -0.7911  0.3354  0.1172
  136OSM    C4S14761   6.929   4.535   6.243 -0.6440  0.4343 -0.5379
  136OSM    H4S14762   7.027   4.503   6.280 -1.0237  1.2517  1.2623
  136OSM    C5S14763   6.859   4.642   6.296 -0.8530 -0.0389  0.0022
  136OSM    H5S14764   6.760   4.672   6.259 -1.6896 -2.2260  0.4464
  136OSM    C6S14765   6.942   4.747   6.375  1.1226  0.8253 -0.0512
  136OSM    H6S14766   6.872   4.832   6.389  1.3507  1.3853 -2.1360
  136OSM    H6T14767   7.037   4.772   6.324  1.4398 -1.5540 -0.6892
  136OSM    C7S14768   6.987   4.688   6.513 -0.0465  0.0479 -0.7071
  136OSM    H7S14769   7.042   4.769   6.566 -1.8242  0.4501  0.5604
  136OSM    H7T14770   7.051   4.598   6.499 -0.2044  0.1317 -1.9831
  136OSM    C8S14771   6.876   4.644   6.612 -0.0067  0.6338  0.0057
  136OSM    H8S14772   6.909   4.593   6.705  0.7898  0.4774 -0.3598
  136OSM    H8T14773   6.817   4.555   6.579  0.5625 -0.3947  1.6915
  136OSM    C9S14774   6.776   4.761   6.651  0.4248 -0.5631  0.3004
  136OSM    H9S14775   6.722   4.789   6.558  0.8686 -0.0165  0.2030
  136OSM    H9T14776   6.832   4.852   6.684 -2.4305  1.5775 -0.5646
  136OSM   C10S14777   6.674   4.718   6.765 -0.0594  0.5678 -0.3882
  136OSM   H10S14778   6.717   4.629   6.817  2.1734  0.8737 -1.6099
  136OSM   H10T14779   6.568   4.703   6.735  0.0032 -0.0261 -0.3273
  136OSM   C11S14780   6.660   4.826   6.871  0.0628 -0.3358 -0.4497
  136OSM   H11S14781   6.610   4.912   6.821 -0.1469 -0.6973 -0.8614
  136OSM   H11T14782   6.759   4.869   6.897 -0.2969 -0.3247  0.9344
  136OSM   C12S14783   6.572   4.794   6.991 -0.5122 -0.0425  0.6187
  136OSM   H12S14784   6.625   4.704   7.029  3.2007  1.3877 -0.8658
  136OSM   H12T14785   6.465   4.780   6.966 -0.0050 -1.7780 -0.6723
  136OSM   C13S14786   6.568   4.910   7.086 -0.6181 -0.6111 -0.7344
  136OSM   H13S14787   6.509   4.996   7.047  1.0456  0.1457 -1.6238
  136OSM   H13T14788   6.673   4.948   7.089 -0.2713 -1.6404  1.0605
  136OSM   C14S14789   6.513   4.864   7.217  0.2411  0.2456  0.6506
  136OSM   H14S14790   6.571   4.774   7.247  1.1051 -0.7111 -3.5312
  136OSM   H14T14791   6.407   4.829   7.227 -0.0206  0.8708  0.0901
  136OSM   C15S14792   6.535   4.968   7.328 -0.7385  0.5186 -0.7417
  136OSM   H15S14793   6.496   5.064   7.288  0.8553  1.9917  1.1228
  136OSM   H15T14794   6.642   4.988   7.350 -0.5756 -0.1529 -0.8967
  136OSM   C16S14795   6.468   4.928   7.457  0.6014 -0.2005 -0.6274
  136OSM   H16S14796   6.516   4.839   7.503  1.0073  0.7154  0.7202
  136OSM   H16T14797   6.361   4.899   7.459  0.6011 -0.1184  2.5765
  136OSM   C17S14798   6.469   5.039   7.564 -0.2676  1.3590  0.1606
  136OSM   H17S14799   6.397   5.116   7.528 -0.6800  0.3066 -1.3656
  136OSM   H17T14800   6.569   5.087   7.557 -0.6368  2.3971  1.8789
  136OSM   C18S14801   6.456   4.994   7.712 -0.2502  0.0255  0.2342
  136OSM   H18S14802   6.349   4.970   7.733  0.4526 -2.0055  1.6442
  136OSM   H18T14803   6.476   5.085   7.772  3.3050  1.9115 -3.5764
  136OSM   H18U14804   6.531   4.915   7.736  1.5972  1.4052 -0.8944
  136OSM    C1F14805   6.634   4.341   6.430  0.8427 -0.3943 -0.1432
  136OSM     OF14806   6.692   4.248   6.480 -0.4548  0.0156  0.2740
  136OSM    C2F14807   6.513   4.404   6.493  0.1386 -0.0156  0.4027
  136OSM    H2F14808   6.430   4.404   6.419  0.2446  1.3971  0.2710
  136OSM    H2G14809   6.544   4.509   6.514 -1.1150  0.5898 -0.7209
  136OSM    C3F14810   6.453   4.346   6.626 -0.1303  0.2652 -0.3700
  136OSM    H3F14811   6.534   4.344   6.702 -1.2677 -0.8080  0.8417
  136OSM    H3G14812   6.416   4.242   6.612 -1.1802  0.5976 -0.1233
  136OSM    C4F14813   6.339   4.426   6.686  0.0846 -0.3461 -0.1648
  136OSM    H4F14814   6.243   4.404   6.635 -0.6614  1.3774  0.4760
  136OSM    H4G14815   6.360   4.532   6.660 -0.2915  0.1649  1.6033
  136OSM    C5F14816   6.328   4.424   6.838 -0.9190  0.0263  0.5396
  136OSM    H5F14817   6.432   4.432   6.876 -0.2953 -1.3472 -0.8016
  136OSM    H5G14818   6.295   4.322   6.868  1.9800 -0.9672  0.5688
  136OSM    C6F14819   6.246   4.541   6.905 -0.4734  0.6834 -0.1127
  136OSM    H6F14820   6.136   4.531   6.916 -0.6601  0.4999 -2.0496
  136OSM    H6G14821   6.269   4.634   6.848 -1.9389  0.4759 -1.0404
  136OSM    C7F14822   6.303   4.565   7.053  0.1560 -0.5189 -0.5064
  136OSM    H7F14823   6.260   4.660   7.089  0.0936 -1.1034  0.9911
  136OSM    H7G14824   6.412   4.581   7.036 -0.0132 -1.0316 -2.1575
  136OSM    C8F14825   6.270   4.447   7.147 -0.3320  0.3375  0.0337
  136OSM    H8F14826   6.307   4.352   7.103 -2.2891 -0.5828  0.3047
  136OSM    H8G14827   6.160   4.439   7.159 -0.0544 -1.0569  1.8581
  136OSM    C9F14828   6.350   4.470   7.275 -0.1598  0.3697  0.0735
  136OSM    H9F14829   6.459   4.468   7.265 -0.1432 -1.8591  0.5147
  136OSM   C10F14830   6.293   4.497   7.394  0.0125 -0.0393  0.2219
  136OSM   H10F14831   6.361   4.531   7.473  0.6587 -0.6761 -0.0500
  136OSM   C11F14832   6.147   4.491   7.421 -0.2355 -0.2116 -0.6230
  136OSM   H11F14833   6.109   4.386   7.427  0.0494 -0.2416  0.7249
  136OSM   H11G14834   6.097   4.542   7.336  0.7124 -0.7021 -1.4873
  136OSM   C12F14835   6.094   4.573   7.545 -0.5039 -0.1267  0.7830
  136OSM   H12F14836   5.983   4.577   7.542 -0.5089 -0.7973 -1.9466
  136OSM   H12G14837   6.124   4.680   7.542  0.7786 -0.5207 -1.5213
  136OSM   C13F14838   6.124   4.514   7.683  0.1520 -0.2944 -0.0691
  136OSM   H13F14839   6.225   4.549   7.713  0.9374 -0.9273 -1.9098
  136OSM   H13G14840   6.125   4.403   7.686  2.3356 -0.2843  0.3641
  136OSM   C14F14841   6.019   4.576   7.775 -0.2521 -0.2316  0.2459
  136OSM   H14F14842   5.914   4.549   7.750 -0.5774 -3.2967  4.3733
  136OSM   H14G14843   6.031   4.685   7.760 -0.1730  0.0294  2.0813
  136OSM   C15F14844   6.037   4.540   7.921  0.4218 -0.1728 -0.6333
  136OSM   H15F14845   5.965   4.596   7.984 -0.5456 -1.3902 -0.6226
  136OSM   H15G14846   6.142   4.566   7.944  0.9000 -1.5853 -1.1787
  136OSM   C16F14847   6.011   4.387   7.941  0.0452 -0.5226 -0.4961
  136OSM   H16F14848   6.085   4.336   7.876  0.2343 -1.1205  0.1870
  136OSM   H16G14849   5.911   4.354   7.904 -0.4104 -1.0214  1.1148
  136OSM   C17F14850   6.027   4.336   8.084 -0.2882 -0.6121 -0.6691
  136OSM   H17F14851   5.954   4.398   8.141  0.1212  0.6319 -1.4699
  136OSM   H17G14852   6.131   4.364   8.112  0.2359 -0.3888 -2.7087
  136OSM   C18F14853   6.001   4.191   8.102  0.4995  0.1721  0.2569
  136OSM   H18F14854   6.000   4.169   8.211  0.2241 -1.1868 -0.0175
  136OSM   H18G14855   6.072   4.128   8.045  0.6414 -0.1264  0.7586
  136OSM   H18H14856   5.901   4.166   8.062  2.1752  0.3441 -4.3634
  137OSM      N14857   3.021   3.565   6.365 -0.7166  0.7144 -0.3729
  137OSM    C1514858   3.044   3.708   6.329  0.8016 -0.3765 -0.4098
  137OSM   H15A14859   3.076   3.728   6.228 -3.7727 -2.2769 -2.3798
  137OSM   H15B14860   3.113   3.763   6.392  1.0364 -1.3628  0.1950
  137OSM   H15C14861   2.951   3.761   6.342 -1.2933 -3.4992 -1.9407
  137OSM    C1414862   2.968   3.543   6.501  0.1303 -0.3128 -0.3681
  137OSM   H14A14863   2.917   3.448   6.498  0.7586 -0.7573  2.0892
  137OSM   H14B14864   2.899   3.623   6.524  1.1981  0.4815  0.1393
  137OSM   H14C14865   3.046   3.540   6.575 -0.8795 -2.5219  0.6488
  137OSM    C1314866   2.931   3.507   6.255  0.1054  0.0858  0.1672
  137OSM   H13A14867   2.835   3.554   6.241  0.4032  0.9895  1.1342
  137OSM   H13B14868   2.907   3.404   6.277 -0.4661 -0.1411 -1.4180
  137OSM   H13C14869   2.989   3.503   6.164  0.1633 -0.2705  0.2188
  137OSM    C1214870   3.152   3.490   6.346 -0.2268 -0.3441  0.2770
  137OSM   H12A14871   3.220   3.535   6.417  0.7920  0.0802 -0.9388
  137OSM   H12B14872   3.189   3.528   6.252 -0.8124  0.2777  0.2937
  137OSM    C1114873   3.164   3.331   6.356 -0.6956 -0.2507 -0.2440
  137OSM   H11A14874   3.264   3.285   6.342 -0.3787  0.0706  0.9079
  137OSM   H11B14875   3.117   3.290   6.264  4.2366 -2.1843 -2.0408
  137OSM      P14876   3.122   3.132   6.514 -0.1463  0.4463  0.1086
  137OSM    O1314877   3.001   3.069   6.558 -0.2837 -0.3545 -0.0913
  137OSM    O1414878   3.205   3.064   6.408  0.5990 -0.1092 -0.0948
  137OSM    O1114879   3.213   3.149   6.648  0.0156 -0.1187  0.0646
  137OSM    O1214880   3.099   3.286   6.475 -0.4645  0.6095  0.1253
  137OSM    C1S14881   3.183   3.241   6.751 -0.1064 -0.8721  0.2948
  137OSM    H1S14882   3.105   3.312   6.716  3.7808  2.0292 -3.0075
  137OSM    H1T14883   3.273   3.303   6.773 -0.3149 -0.2000 -0.7648
  137OSM     NF14884   3.158   3.287   6.994  0.2200  0.5690  0.4808
  137OSM    HNF14885   3.207   3.257   7.075 -1.5514 -1.1181  0.9609
  137OSM    C2S14886   3.148   3.184   6.889  0.0521 -0.1411  0.1510
  137OSM    H2S14887   3.039   3.166   6.880  0.2380 -0.5910 -1.2912
  137OSM    C3S14888   3.227   3.052   6.922  0.7064 -0.5694  0.2990
  137OSM    H3S14889   3.336   3.070   6.932  0.6758 -0.8578  1.1109
  137OSM     O314890   3.195   2.954   6.815 -0.2960 -0.1601  0.0217
  137OSM    HO314891   3.159   3.005   6.742 -1.5759  2.2537  2.2067
  137OSM    C4S14892   3.181   3.000   7.061 -0.8123  0.6648 -0.1358
  137OSM    H4S14893   3.237   3.040   7.148  0.2818 -1.6061  0.2404
  137OSM    C5S14894   3.083   2.902   7.078 -0.5985 -0.4386 -0.4022
  137OSM    H5S14895   3.044   2.857   6.986  0.4777 -1.1392 -0.5173
  137OSM    C6S14896   3.038   2.839   7.211 -0.5736  0.3185  0.4875
  137OSM    H6S14897   3.055   2.729   7.210 -1.7747  0.1133  1.1896
  137OSM    H6T14898   2.929   2.848   7.231 -0.4550  1.2817  0.7081
  137OSM    C7S14899   3.106   2.886   7.340  0.7092 -0.4213  0.1712
  137OSM    H7S14900   3.092   2.996   7.346 -1.6137 -0.7846  1.9982
  137OSM    H7T14901   3.215   2.869   7.325  1.2977  1.2894  2.2680
  137OSM    C8S14902   3.057   2.824   7.470  0.3551  0.1721  0.3001
  137OSM    H8S14903   3.079   2.715   7.465  0.6257  0.2406 -0.0491
  137OSM    H8T14904   2.946   2.822   7.470  0.3547 -0.4733 -1.2737
  137OSM    C9S14905   3.116   2.881   7.601  0.8506 -0.4592 -0.0268
  137OSM    H9S14906   3.097   2.989   7.621  1.6437 -0.2332 -0.4594
  137OSM    H9T14907   3.227   2.883   7.590  0.9368 -0.6676  0.7207
  137OSM   C10S14908   3.075   2.814   7.734 -0.2723  0.7997  0.1071
  137OSM   H10S14909   3.074   2.703   7.725 -2.2657  0.8761 -1.0111
  137OSM   H10T14910   2.972   2.846   7.763 -0.3936 -0.0293  0.6067
  137OSM   C11S14911   3.176   2.842   7.847 -0.4284  0.7495 -0.0043
  137OSM   H11S14912   3.181   2.951   7.869  2.5640  0.5782  0.4174
  137OSM   H11T14913   3.278   2.806   7.820  0.6793  3.0521  0.9743
  137OSM   C12S14914   3.140   2.774   7.981  0.0381 -0.0523 -0.2438
  137OSM   H12S14915   3.165   2.667   7.963  1.3478  0.1541  0.2358
  137OSM   H12T14916   3.033   2.785   8.008  0.0796  1.4288 -0.5999
  137OSM   C13S14917   3.225   2.825   8.099  0.2278 -1.0884 -0.6188
  137OSM   H13S14918   3.208   2.935   8.105  1.8804 -0.8803  0.7586
  137OSM   H13T14919   3.332   2.809   8.073  0.2396  0.5302 -1.6687
  137OSM   C14S14920   3.192   2.748   8.223 -0.3453  0.2986  0.4179
  137OSM   H14S14921   3.214   2.641   8.205  1.4266  0.3243  2.1554
  137OSM   H14T14922   3.083   2.755   8.243 -0.0783  0.4901  1.8930
  137OSM   C15S14923   3.257   2.804   8.350 -0.3779 -1.2076  0.1892
  137OSM   H15S14924   3.363   2.828   8.330 -1.0542 -0.1605 -2.2467
  137OSM   H15T14925   3.250   2.741   8.442 -1.2547  0.2571  1.1481
  137OSM   C16S14926   3.185   2.936   8.401 -0.0565  0.2068 -0.2979
  137OSM   H16S14927   3.087   2.893   8.430 -0.4736  1.0303 -0.4751
  137OSM   H16T14928   3.176   3.006   8.316  0.2567  0.2917 -0.2623
  137OSM   C17S14929   3.251   3.009   8.513 -0.2105 -0.2861 -0.0329
  137OSM   H17S14930   3.349   3.052   8.484 -0.0979 -2.0593 -2.5213
  137OSM   H17T14931   3.275   2.944   8.600 -0.2432 -0.7784 -0.3880
  137OSM   C18S14932   3.167   3.137   8.560 -0.4135 -0.2266  0.1745
  137OSM   H18S14933   3.169   3.213   8.479  2.0432 -0.6302 -0.1951
  137OSM   H18T14934   3.224   3.183   8.644  3.1821 -0.9021 -1.8076
  137OSM   H18U14935   3.061   3.118   8.586 -0.4829 -0.3330 -0.1833
  137OSM    C1F14936   3.107   3.413   6.988 -0.3417  0.0060 -0.4940
  137OSM     OF14937   3.047   3.454   6.888  0.1881  0.6513  0.1196
  137OSM    C2F14938   3.134   3.496   7.111 -0.1262 -0.1056  0.0054
  137OSM    H2F14939   3.239   3.534   7.100 -0.8777  1.4468 -2.5290
  137OSM    H2G14940   3.113   3.426   7.194  0.7618 -0.3198  0.0537
  137OSM    C3F14941   3.043   3.620   7.104  0.3059  0.3422 -0.7119
  137OSM    H3F14942   2.940   3.580   7.095  0.5970 -0.3918 -0.8136
  137OSM    H3G14943   3.057   3.689   7.018  1.8597  3.6049  2.0418
  137OSM    C4F14944   3.062   3.716   7.225  0.5928 -0.3125  0.1575
  137OSM    H4F14945   3.027   3.816   7.193 -0.9594 -0.1012  2.3734
  137OSM    H4G14946   3.166   3.701   7.261  0.4063 -2.0367  0.0609
  137OSM    C5F14947   2.963   3.675   7.332 -0.5082 -0.7149  0.5705
  137OSM    H5F14948   2.968   3.566   7.350 -2.2405 -1.0813 -1.0272
  137OSM    H5G14949   2.865   3.694   7.283 -0.8411  0.0775  1.5149
  137OSM    C6F14950   2.972   3.752   7.460 -0.0633  0.1187 -0.1425
  137OSM    H6F14951   2.875   3.785   7.501  0.6588  0.5859  1.2416
  137OSM    H6G14952   3.043   3.836   7.442  0.5677 -0.0528  1.4468
  137OSM    C7F14953   3.028   3.664   7.575  0.7418  0.5912  0.6995
  137OSM    H7F14954   3.120   3.613   7.537  0.5841 -0.5994  1.8775
  137OSM    H7G14955   2.957   3.583   7.602  2.0446 -1.2601 -1.2310
  137OSM    C8F14956   3.044   3.743   7.706  0.4319 -0.3392  0.4357
  137OSM    H8F14957   2.947   3.773   7.752 -0.5598 -1.4627 -0.8870
  137OSM    H8G14958   3.079   3.845   7.679  1.5746 -1.2754 -1.7240
  137OSM    C9F14959   3.140   3.679   7.810  0.4775 -0.8839  0.3338
  137OSM    H9F14960   3.244   3.673   7.776  1.1969 -0.7699  2.4939
  137OSM   C10F14961   3.107   3.630   7.930 -0.3580 -0.0121  1.2868
  137OSM   H10F14962   3.188   3.595   7.996  1.1829 -0.7674 -0.9551
  137OSM   C11F14963   2.966   3.623   7.993 -0.2131  0.6079  0.3321
  137OSM   H11F14964   2.957   3.518   8.030  1.5307  0.7550  1.2170
  137OSM   H11G14965   2.884   3.654   7.924 -1.2134 -1.4405  0.5693
  137OSM   C12F14966   2.959   3.712   8.114 -1.5758 -1.1960 -0.2784
  137OSM   H12F14967   2.970   3.820   8.091 -2.3849 -0.6806  1.7250
  137OSM   H12G14968   3.048   3.677   8.170 -1.1159 -1.3686 -1.1063
  137OSM   C13F14969   2.826   3.701   8.202  0.0374  0.0034  0.2174
  137OSM   H13F14970   2.732   3.708   8.144  0.5297 -0.7962 -0.6962
  137OSM   H13G14971   2.837   3.790   8.268 -1.2790  0.4092 -0.0929
  137OSM   C14F14972   2.820   3.573   8.288  0.2527  0.2430  0.3941
  137OSM   H14F14973   2.836   3.481   8.228 -0.5025 -1.0219  2.0933
  137OSM   H14G14974   2.715   3.563   8.323  0.4292  0.4216  0.9927
  137OSM   C15F14975   2.923   3.563   8.396  0.4810 -0.2017 -0.3334
  137OSM   H15F14976   2.923   3.660   8.451  1.9891 -1.0607  1.2454
  137OSM   H15G14977   3.024   3.530   8.363  0.6154  0.1331 -0.2555
  137OSM   C16F14978   2.890   3.451   8.496  0.3273 -0.1525 -0.8961
  137OSM   H16F14979   2.893   3.357   8.437  1.3312  0.1155 -1.2853
  137OSM   H16G14980   2.790   3.461   8.541  0.9595  1.6027  0.1638
  137OSM   C17F14981   3.001   3.444   8.609  0.1604 -0.6308  0.1450
  137OSM   H17F14982   3.099   3.419   8.562 -0.4056 -0.4408 -1.1481
  137OSM   H17G14983   2.968   3.361   8.675 -2.2186 -0.0603 -0.2821
  137OSM   C18F14984   3.032   3.568   8.688  0.3570  0.8984  0.2735
  137OSM   H18F14985   2.939   3.587   8.746  0.0546 -0.7295  0.3279
  137OSM   H18G14986   3.056   3.659   8.627  3.9930  0.5736  1.0864
  137OSM   H18H14987   3.121   3.547   8.751 -0.2474 -1.5550  0.3312
  138OSM      N14988   3.041   6.153   6.233 -0.0328 -0.0193  0.7346
  138OSM    C1514989   2.987   6.083   6.347 -0.1607 -0.5440  0.1188
  138OSM   H15A14990   2.947   5.985   6.324 -2.6374  0.7826 -1.4320
  138OSM   H15B14991   2.907   6.145   6.386 -2.1317 -1.7437 -1.8857
  138OSM   H15C14992   3.063   6.080   6.424  2.0478  0.8586 -1.9505
  138OSM    C1414993   2.931   6.170   6.124  0.1035  0.0720  0.0543
  138OSM   H14A14994   2.875   6.258   6.152  0.6540  0.9008 -1.3903
  138OSM   H14B14995   2.870   6.080   6.120  1.3413 -0.8071  0.6936
  138OSM   H14C14996   2.973   6.187   6.026  0.8994  1.2865  0.5991
  138OSM    C1314997   3.087   6.288   6.278 -0.2903  0.0025  0.1465
  138OSM   H13A14998   3.142   6.335   6.198  2.2984 -2.5621  0.3276
  138OSM   H13B14999   3.156   6.280   6.361  0.2660 -1.7168 -0.4616
  138OSM   H13C15000   3.007   6.351   6.314  1.7525  3.2972 -0.9326
  138OSM    C1215001   3.162   6.067   6.185  0.4318 -0.4806  0.5455
  138OSM   H12A15002   3.242   6.058   6.257  1.1174  0.2169 -0.1113
  138OSM   H12B15003   3.219   6.123   6.113  1.6731 -0.8957  1.1909
  138OSM    C1115004   3.130   5.926   6.144  0.1032 -0.6338 -0.3702
  138OSM   H11A15005   3.044   5.933   6.074  0.5061  0.3964 -0.7856
  138OSM   H11B15006   3.100   5.871   6.235  0.1388 -0.9247 -0.5339
  138OSM      P15007   3.358   5.780   6.118  0.0641 -0.6228 -0.0124
  138OSM    O1315008   3.346   5.643   6.057  0.3511  0.3530  0.3162
  138OSM    O1415009   3.477   5.864   6.085  0.7576  0.0273  0.6492
  138OSM    O1115010   3.349   5.763   6.276 -0.0187  0.1456 -0.1774
  138OSM    O1215011   3.235   5.865   6.072  0.2411 -0.0393  0.2635
  138OSM    C1S15012   3.284   5.652   6.334  0.2545  0.0703 -0.4721
  138OSM    H1S15013   3.358   5.569   6.328  0.9014  0.5380  0.8282
  138OSM    H1T15014   3.191   5.624   6.279  0.0800 -0.6079  0.1496
  138OSM     NF15015   3.206   5.528   6.544 -0.0752 -0.3071  0.9843
  138OSM    HNF15016   3.107   5.515   6.536  0.0306 -1.1003  0.8745
  138OSM    C2S15017   3.252   5.658   6.483 -0.8684  0.7952  0.2138
  138OSM    H2S15018   3.344   5.682   6.540  0.8679 -1.3761 -1.5914
  138OSM    C3S15019   3.161   5.780   6.516  0.3247 -0.2030 -0.0949
  138OSM    H3S15020   3.057   5.774   6.478 -0.6503 -2.0965  2.8085
  138OSM     O315021   3.194   5.903   6.460 -0.1977 -0.4720 -0.0647
  138OSM    HO315022   3.233   5.879   6.376 -0.1852  2.4291 -0.9389
  138OSM    C4S15023   3.153   5.795   6.667  0.0221  1.1572 -0.3541
  138OSM    H4S15024   3.054   5.772   6.710 -0.3204 -0.6185 -2.0233
  138OSM    C5S15025   3.253   5.822   6.750  0.8846 -0.4896  0.0814
  138OSM    H5S15026   3.353   5.826   6.704 -0.5281  1.2141 -3.0233
  138OSM    C6S15027   3.245   5.826   6.900 -0.2154 -0.5595 -0.4850
  138OSM    H6S15028   3.314   5.759   6.955  1.2027 -1.4173 -3.2323
  138OSM    H6T15029   3.143   5.795   6.930  0.8029 -2.0325  1.5856
  138OSM    C7S15030   3.271   5.971   6.954 -0.7744 -0.3323 -0.2103
  138OSM    H7S15031   3.200   6.034   6.896  0.4951  2.3634  1.0828
  138OSM    H7T15032   3.374   6.010   6.937 -0.2867 -0.7005  1.7646
  138OSM    C8S15033   3.241   5.967   7.110 -0.0087  0.1210 -0.7255
  138OSM    H8S15034   3.298   5.886   7.158 -0.4838 -0.6127 -1.3872
  138OSM    H8T15035   3.131   5.947   7.109  0.0403 -0.0969 -1.8209
  138OSM    C9S15036   3.274   6.099   7.179 -0.3430 -0.2150  0.5655
  138OSM    H9S15037   3.202   6.174   7.140 -1.5097 -1.4422  0.3144
  138OSM    H9T15038   3.372   6.139   7.143  0.0492 -1.0267  0.7321
  138OSM   C10S15039   3.274   6.103   7.332 -0.1428 -0.7098 -0.7836
  138OSM   H10S15040   3.175   6.059   7.357 -1.9255  1.7903 -3.0815
  138OSM   H10T15041   3.282   6.201   7.383 -4.3159 -1.1976  0.9811
  138OSM   C11S15042   3.388   6.033   7.404 -1.0025 -0.4954  0.2299
  138OSM   H11S15043   3.476   6.095   7.377 -1.7960  0.7110  0.4002
  138OSM   H11T15044   3.404   5.927   7.374 -0.8014  0.2343 -2.3254
  138OSM   C12S15045   3.373   6.044   7.555 -0.0235 -0.2264 -0.1894
  138OSM   H12S15046   3.281   5.989   7.584 -3.0411  2.8963 -3.4383
  138OSM   H12T15047   3.373   6.154   7.570  0.8736 -0.4309  1.4377
  138OSM   C13S15048   3.505   5.995   7.625 -0.1067 -0.1608 -0.4453
  138OSM   H13S15049   3.581   6.052   7.568 -0.4386  0.6943 -0.0484
  138OSM   H13T15050   3.505   5.885   7.619 -0.1326 -0.1477 -0.6612
  138OSM   C14S15051   3.521   6.044   7.775 -0.8001  0.6464 -0.3723
  138OSM   H14S15052   3.434   5.994   7.822 -1.5959  1.2139 -1.2117
  138OSM   H14T15053   3.522   6.154   7.790 -0.2175  0.4554  1.0436
  138OSM   C15S15054   3.656   5.981   7.831  0.1703  0.8784  0.7224
  138OSM   H15S15055   3.746   6.021   7.778 -0.0584 -0.0496 -0.3810
  138OSM   H15T15056   3.653   5.872   7.810  0.4218  0.5510  2.3137
  138OSM   C16S15057   3.666   6.006   7.980  0.4825  0.2314  0.0128
  138OSM   H16S15058   3.755   5.959   8.028 -1.0787  0.2105  3.0603
  138OSM   H16T15059   3.574   5.953   8.013  0.4928  1.0113  1.3698
  138OSM   C17S15060   3.649   6.150   8.030 -0.2511  0.8105 -0.6099
  138OSM   H17S15061   3.540   6.172   8.031 -0.8111 -1.7825 -1.5326
  138OSM   H17T15062   3.693   6.230   7.967  2.4057  0.6786  0.9812
  138OSM   C18S15063   3.693   6.162   8.175  0.1358 -0.6135  0.1099
  138OSM   H18S15064   3.668   6.074   8.236  0.0616  0.0735  1.0816
  138OSM   H18T15065   3.660   6.260   8.215  1.9270  0.0317  0.0680
  138OSM   H18U15066   3.804   6.174   8.181 -0.0157 -0.0866  2.2865
  138OSM    C1F15067   3.295   5.428   6.545  0.1458 -0.0815 -0.4862
  138OSM     OF15068   3.412   5.452   6.505 -0.3541 -0.1464  0.4543
  138OSM    C2F15069   3.236   5.288   6.572 -0.1560  0.1735  0.1349
  138OSM    H2F15070   3.306   5.205   6.547 -0.8245 -0.8032  1.4608
  138OSM    H2G15071   3.156   5.280   6.495 -0.2594  1.1025  0.1465
  138OSM    C3F15072   3.186   5.268   6.721 -0.4790  0.6326  0.6259
  138OSM    H3F15073   3.154   5.164   6.741 -2.6180  1.4477  1.5871
  138OSM    H3G15074   3.098   5.329   6.751 -0.8938  0.1548  0.3987
  138OSM    C4F15075   3.300   5.292   6.821 -0.7070 -0.4281  0.1738
  138OSM    H4F15076   3.328   5.399   6.815  2.2409 -1.0942  0.9390
  138OSM    H4G15077   3.386   5.226   6.795  0.2585  0.5939  0.7239
  138OSM    C5F15078   3.261   5.250   6.960 -0.7807 -0.3936  0.0483
  138OSM    H5F15079   3.355   5.234   7.018 -1.3567 -0.8975  0.8380
  138OSM    H5G15080   3.200   5.158   6.952 -0.4778 -0.5772 -0.1824
  138OSM    C6F15081   3.180   5.347   7.040  0.0049 -0.2866  0.2790
  138OSM    H6F15082   3.069   5.345   7.028  0.1493  1.9403 -1.6253
  138OSM    H6G15083   3.205   5.449   7.004  2.3877 -0.5696  1.0454
  138OSM    C7F15084   3.205   5.331   7.200 -0.3030  0.1969  0.3461
  138OSM    H7F15085   3.199   5.221   7.213 -0.7239  0.0822 -0.7645
  138OSM    H7G15086   3.118   5.381   7.248 -1.0752  1.1829 -2.0437
  138OSM    C8F15087   3.343   5.386   7.248  0.2153  1.0956 -0.3341
  138OSM    H8F15088   3.420   5.377   7.169 -0.4392  0.1896 -0.8866
  138OSM    H8G15089   3.375   5.327   7.337 -1.8069  0.8097  0.2469
  138OSM    C9F15090   3.333   5.529   7.277  0.4109  0.0595  0.0800
  138OSM    H9F15091   3.280   5.594   7.206 -0.3696  0.3768  0.9442
  138OSM   C10F15092   3.384   5.581   7.392 -0.5207 -1.4727 -0.2536
  138OSM   H10F15093   3.402   5.690   7.387 -0.3514 -1.5872 -2.9811
  138OSM   C11F15094   3.457   5.520   7.512 -0.7371 -0.1094  0.6948
  138OSM   H11F15095   3.566   5.533   7.496 -0.9107 -0.0068 -0.4650
  138OSM   H11G15096   3.434   5.411   7.509 -1.9679  0.1928 -2.9896
  138OSM   C12F15097   3.435   5.582   7.644 -0.2102 -0.2462 -0.3108
  138OSM   H12F15098   3.483   5.681   7.659 -2.9923  1.0527  0.4321
  138OSM   H12G15099   3.488   5.514   7.714 -1.3709 -0.7986  0.0607
  138OSM   C13F15100   3.293   5.600   7.694  0.4879  0.0024 -0.1770
  138OSM   H13F15101   3.250   5.499   7.712  1.3693 -0.2535  0.5385
  138OSM   H13G15102   3.231   5.660   7.624 -0.6610  0.2766  1.0370
  138OSM   C14F15103   3.288   5.671   7.833 -0.2440  0.3062 -0.4295
  138OSM   H14F15104   3.186   5.684   7.875 -1.0256  0.0562 -2.2308
  138OSM   H14G15105   3.342   5.768   7.823  3.0929 -1.7112 -2.9977
  138OSM   C15F15106   3.370   5.599   7.946  0.4501  0.2035 -0.1542
  138OSM   H15F15107   3.476   5.585   7.914  1.0919 -2.6126  2.9139
  138OSM   H15G15108   3.321   5.499   7.952  0.5566  0.2221  1.1994
  138OSM   C16F15109   3.353   5.659   8.085  0.6998  0.2092 -0.6939
  138OSM   H16F15110   3.246   5.676   8.108  0.2879 -1.8788 -0.9794
  138OSM   H16G15111   3.400   5.760   8.083 -0.7652  1.0190  2.2918
  138OSM   C17F15112   3.418   5.577   8.191 -0.8403 -0.3390 -1.2194
  138OSM   H17F15113   3.386   5.612   8.291 -2.6255 -1.1035 -1.4930
  138OSM   H17G15114   3.526   5.597   8.174 -0.0406 -1.5487  2.0963
  138OSM   C18F15115   3.381   5.432   8.198 -0.2380  0.3980  0.6439
  138OSM   H18F15116   3.418   5.370   8.113 -0.6456 -0.5734  1.1642
  138OSM   H18G15117   3.273   5.412   8.217 -0.1811  0.1239  0.6901
  138OSM   H18H15118   3.428   5.388   8.289  1.2300 -0.3012 -0.4334
  139OSM      N15119   2.585   6.639   5.909  0.7504 -0.1632 -0.4032
  139OSM    C1515120   2.441   6.690   5.926 -0.4334  0.4300 -0.8010
  139OSM   H15A15121   2.432   6.788   5.881  0.8485 -0.5643 -3.2971
  139OSM   H15B15122   2.417   6.683   6.031  0.0508 -2.2651 -0.8396
  139OSM   H15C15123   2.371   6.626   5.875 -0.1531 -0.1330 -0.4807
  139OSM    C1415124   2.613   6.608   5.769 -0.0532  0.3610  0.4173
  139OSM   H14A15125   2.536   6.553   5.717  0.5005  1.0402 -1.1644
  139OSM   H14B15126   2.710   6.565   5.749  0.0755  0.7433  0.2076
  139OSM   H14C15127   2.614   6.697   5.707 -0.3458 -1.7211 -2.7181
  139OSM    C1315128   2.677   6.749   5.952 -0.1557 -0.2704  0.2682
  139OSM   H13A15129   2.778   6.714   5.935  0.3243  1.9368 -1.7871
  139OSM   H13B15130   2.664   6.779   6.055  0.1030 -0.3039  0.3113
  139OSM   H13C15131   2.656   6.835   5.889  1.9287  1.6862  2.1733
  139OSM    C1215132   2.587   6.510   6.000 -0.2545  0.5035  0.5291
  139OSM   H12A15133   2.682   6.466   5.975  0.3980  1.9678  0.3912
  139OSM   H12B15134   2.514   6.445   5.955  1.6875 -1.0166 -0.4909
  139OSM    C1115135   2.566   6.528   6.155 -0.7988 -0.2875  0.5835
  139OSM   H11A15136   2.565   6.424   6.194 -2.2117 -0.7469 -0.6476
  139OSM   H11B15137   2.466   6.570   6.177 -0.3590  1.0887  0.0335
  139OSM      P15138   2.826   6.575   6.208  0.1663 -0.2241  0.4132
  139OSM    O1315139   2.869   6.500   6.088  0.2606  0.3135  0.4176
  139OSM    O1415140   2.894   6.701   6.246 -0.4585  0.0974 -0.0759
  139OSM    O1115141   2.835   6.479   6.332  0.2679  0.2006  0.0674
  139OSM    O1215142   2.671   6.609   6.208 -0.3005  0.1720 -0.5466
  139OSM    C1S15143   2.890   6.519   6.462 -0.0664  0.7364  0.6922
  139OSM    H1S15144   2.869   6.628   6.474  0.1331  1.0499 -1.5813
  139OSM    H1T15145   2.999   6.503   6.468  0.4270  2.4573 -2.5972
  139OSM     NF15146   2.888   6.485   6.708  0.0479  0.6488  0.0341
  139OSM    HNF15147   2.945   6.407   6.730  0.5851  1.3618  1.2021
  139OSM    C2S15148   2.820   6.460   6.587 -0.2356 -0.0669  0.5945
  139OSM    H2S15149   2.718   6.504   6.592  0.1307  0.8388  0.3134
  139OSM    C3S15150   2.783   6.312   6.564  0.3621  0.0204  0.6632
  139OSM    H3S15151   2.875   6.251   6.548 -0.2441 -0.5999 -0.6101
  139OSM     O315152   2.720   6.293   6.439  0.0341  0.6194 -0.5895
  139OSM    HO315153   2.747   6.376   6.398  2.3189 -0.4174 -1.2418
  139OSM    C4S15154   2.700   6.252   6.677 -0.0006  0.0795  0.2624
  139OSM    H4S15155   2.763   6.210   6.756 -1.7044 -0.9380  1.0952
  139OSM    C5S15156   2.564   6.242   6.690 -0.4306 -0.8583 -0.4008
  139OSM    H5S15157   2.503   6.294   6.615  2.1225 -0.7509 -2.5119
  139OSM    C6S15158   2.499   6.183   6.810 -0.1850  0.8205  0.2471
  139OSM    H6S15159   2.563   6.111   6.867 -2.9329 -0.8679  1.2851
  139OSM    H6T15160   2.412   6.121   6.781 -0.3254  1.0468  0.1832
  139OSM    C7S15161   2.441   6.299   6.890 -0.1983  0.4743 -0.2242
  139OSM    H7S15162   2.363   6.352   6.832  0.3862  0.0002 -1.4540
  139OSM    H7T15163   2.525   6.366   6.918  1.5079 -0.0840 -3.7242
  139OSM    C8S15164   2.371   6.264   7.026  0.5597 -0.0304  0.8605
  139OSM    H8S15165   2.455   6.230   7.090  1.3336  0.7563  0.2768
  139OSM    H8T15166   2.293   6.185   7.023  1.3370 -0.8070  0.7018
  139OSM    C9S15167   2.305   6.391   7.087 -0.3261  0.5833 -0.4282
  139OSM    H9S15168   2.222   6.432   7.025 -0.2593  0.0776 -0.8620
  139OSM    H9T15169   2.372   6.480   7.089 -2.5479  2.3126 -0.9746
  139OSM   C10S15170   2.257   6.357   7.230  0.4150  0.2191  1.0128
  139OSM   H10S15171   2.346   6.345   7.295  1.8938 -1.5422 -1.2775
  139OSM   H10T15172   2.198   6.263   7.232 -0.0094  0.4329 -0.5686
  139OSM   C11S15173   2.172   6.467   7.289 -0.9278 -0.6015  0.3775
  139OSM   H11S15174   2.071   6.469   7.242  0.0949  1.0731 -1.8580
  139OSM   H11T15175   2.222   6.566   7.279 -0.0314 -1.3199 -2.8840
  139OSM   C12S15176   2.149   6.454   7.442  0.4509  0.4404  0.5569
  139OSM   H12S15177   2.244   6.452   7.500 -0.1060 -0.9762  1.4672
  139OSM   H12T15178   2.107   6.357   7.477  0.0995  0.6645  0.7658
  139OSM   C13S15179   2.055   6.567   7.497 -0.1750  0.2109  0.9449
  139OSM   H13S15180   2.014   6.608   7.402 -1.0363  1.4632  1.8553
  139OSM   H13T15181   2.122   6.637   7.551 -0.8282  1.4647  0.1573
  139OSM   C14S15182   1.945   6.520   7.590 -0.5563 -0.4873  0.2063
  139OSM   H14S15183   1.984   6.480   7.686 -2.1597  1.0752  1.5367
  139OSM   H14T15184   1.885   6.439   7.545 -0.4106  0.4956 -1.8172
  139OSM   C15S15185   1.847   6.636   7.625  0.3144  0.3343 -0.5062
  139OSM   H15S15186   1.742   6.598   7.624  0.3362  0.1944  1.2104
  139OSM   H15T15187   1.854   6.710   7.543  1.5179  1.1273  0.2983
  139OSM   C16S15188   1.885   6.697   7.761 -0.0841  0.4324 -0.1695
  139OSM   H16S15189   1.837   6.796   7.774  0.3896  0.5400  0.7939
  139OSM   H16T15190   1.995   6.714   7.767  0.1205 -0.2292 -1.7585
  139OSM   C17S15191   1.857   6.607   7.882  0.5523  0.4848 -0.6388
  139OSM   H17S15192   1.903   6.506   7.870 -1.9440 -0.6542 -0.8637
  139OSM   H17T15193   1.748   6.587   7.889  0.4912  0.8976 -0.3948
  139OSM   C18S15194   1.910   6.661   8.015 -0.5415  0.0196 -0.5059
  139OSM   H18S15195   2.020   6.665   8.005 -0.6628 -0.1819 -2.0400
  139OSM   H18T15196   1.891   6.590   8.098 -1.0292  0.4988 -0.2014
  139OSM   H18U15197   1.866   6.759   8.044 -0.7617 -0.0357 -0.6438
  139OSM    C1F15198   2.913   6.603   6.754 -0.7478 -0.2233  0.0234
  139OSM     OF15199   2.875   6.705   6.706  0.0479 -0.4237 -0.4061
  139OSM    C2F15200   3.003   6.621   6.874 -0.3095  0.0696  0.5081
  139OSM    H2F15201   3.105   6.623   6.832 -0.3329 -0.6133  0.4193
  139OSM    H2G15202   3.007   6.538   6.948 -0.9740 -0.9183 -0.5402
  139OSM    C3F15203   2.995   6.763   6.943  0.7344 -0.9632 -0.5207
  139OSM    H3F15204   2.970   6.839   6.866  0.3743  0.5904  1.1021
  139OSM    H3G15205   3.089   6.788   6.995  0.1358  1.0417 -0.3524
  139OSM    C4F15206   2.884   6.765   7.053  0.2014 -0.6744 -0.4817
  139OSM    H4F15207   2.905   6.673   7.113 -1.7298 -0.4277  0.5966
  139OSM    H4G15208   2.787   6.742   7.004  1.3534 -2.1276 -2.1388
  139OSM    C5F15209   2.887   6.883   7.152  0.2369 -0.0985  0.5819
  139OSM    H5F15210   2.848   6.975   7.103  0.2472 -0.7821 -0.7581
  139OSM    H5G15211   2.993   6.898   7.184  0.1734 -0.2703  0.8755
  139OSM    C6F15212   2.814   6.864   7.284  0.4047  0.5231  0.0545
  139OSM    H6F15213   2.861   6.777   7.334  0.3223  0.9262  0.8393
  139OSM    H6G15214   2.709   6.844   7.256  0.2538  1.0114  0.2573
  139OSM    C7F15215   2.821   6.978   7.382 -0.7428 -0.6555 -0.2778
  139OSM    H7F15216   2.736   6.989   7.453  1.2658  1.0181  1.9576
  139OSM    H7G15217   2.807   7.063   7.312 -0.4190 -0.8775 -0.6136
  139OSM    C8F15218   2.955   6.983   7.463  0.1452 -0.1298 -0.1944
  139OSM    H8F15219   3.039   6.984   7.390  1.0098  2.5072  0.8088
  139OSM    H8G15220   2.959   6.890   7.524  0.0408 -0.9080 -1.3392
  139OSM    C9F15221   2.972   7.105   7.553  0.0028  0.8842 -0.3910
  139OSM    H9F15222   3.028   7.190   7.511  2.6106 -0.0483  1.0849
  139OSM   C10F15223   2.929   7.107   7.675  0.1135  0.0619  0.0105
  139OSM   H10F15224   2.944   7.199   7.734  1.4074 -1.2500  1.7780
  139OSM   C11F15225   2.861   6.990   7.748  0.1827 -0.0042 -0.5552
  139OSM   H11F15226   2.806   6.937   7.667 -1.3662 -0.6836  0.9208
  139OSM   H11G15227   2.784   7.021   7.822  0.5227 -0.5625  0.0351
  139OSM   C12F15228   2.961   6.894   7.805 -0.1101  0.5439 -0.2019
  139OSM   H12F15229   3.041   6.874   7.731 -1.5820  0.0736 -1.6893
  139OSM   H12G15230   2.914   6.796   7.830 -2.0466  1.5556  0.2239
  139OSM   C13F15231   3.021   6.944   7.938  0.2699  0.1396 -0.3917
  139OSM   H13F15232   2.951   6.932   8.022  0.1456  0.1411 -0.4948
  139OSM   H13G15233   3.054   7.050   7.936 -3.6958  1.4499  0.1670
  139OSM   C14F15234   3.152   6.871   7.986 -0.1133 -0.1745 -0.1647
  139OSM   H14F15235   3.219   6.866   7.897 -1.9422  0.6707 -1.6136
  139OSM   H14G15236   3.132   6.767   8.021  1.2222  0.7482  3.6066
  139OSM   C15F15237   3.235   6.944   8.092 -0.8261  0.1640 -0.1344
  139OSM   H15F15238   3.159   6.966   8.170  0.9031 -0.4206  1.7353
  139OSM   H15G15239   3.263   7.045   8.055  0.4504 -0.6453 -1.4254
  139OSM   C16F15240   3.345   6.861   8.147  0.1171  0.1313 -0.3391
  139OSM   H16F15241   3.391   6.913   8.233 -1.8731  0.3520  0.6279
  139OSM   H16G15242   3.423   6.861   8.068  0.3985  0.9408 -0.0632
  139OSM   C17F15243   3.311   6.716   8.168  0.0488  0.8486  0.4300
  139OSM   H17F15244   3.311   6.665   8.070 -1.4363 -1.5360  1.6089
  139OSM   H17G15245   3.211   6.697   8.214 -1.0901  2.4564 -1.3033
  139OSM   C18F15246   3.420   6.647   8.249 -0.3836  0.1542 -0.5552
  139OSM   H18F15247   3.426   6.676   8.356 -1.9055  1.0500 -0.7009
  139OSM   H18G15248   3.516   6.669   8.198  0.2826 -0.3021  0.4844
  139OSM   H18H15249   3.410   6.537   8.255  1.3106  0.0733  1.6593
  140OSM      N15250   3.125   0.652   6.192 -0.0405 -0.5405 -0.8570
  140OSM    C1515251   3.198   0.524   6.215  0.4916  0.1669  0.0228
  140OSM   H15A15252   3.121   0.449   6.227 -0.3829  0.6807 -2.1039
  140OSM   H15B15253   3.257   0.537   6.304  0.2632  1.6864 -0.0317
  140OSM   H15C15254   3.263   0.498   6.132 -0.3102 -1.4894 -0.1058
  140OSM    C1415255   3.217   0.762   6.158  0.0527  0.0074 -0.1131
  140OSM   H14A15256   3.297   0.780   6.228  1.0325 -0.2913 -1.1404
  140OSM   H14B15257   3.163   0.852   6.130 -1.0174 -0.4491  0.4343
  140OSM   H14C15258   3.256   0.745   6.059  1.0914  3.0131 -0.2875
  140OSM    C1315259   3.036   0.630   6.069  0.1367  0.4099  0.0440
  140OSM   H13A15260   3.093   0.606   5.980  0.7269 -1.8159  0.9953
  140OSM   H13B15261   2.983   0.722   6.047 -0.1947  0.2584  0.2042
  140OSM   H13C15262   2.960   0.555   6.086  1.0120 -0.9662 -1.9422
  140OSM    C1215263   3.035   0.703   6.308  0.2862 -0.4507  0.3002
  140OSM   H12A15264   3.100   0.719   6.393 -1.3526 -4.7762  2.5080
  140OSM   H12B15265   2.960   0.627   6.323  0.0877 -0.1517  0.8645
  140OSM    C1115266   2.963   0.838   6.281 -0.1081 -0.7385 -0.5075
  140OSM   H11A15267   2.866   0.828   6.335 -0.7417  0.6770 -1.3300
  140OSM   H11B15268   2.938   0.850   6.173  2.1409 -0.3646 -1.0022
  140OSM      P15269   3.010   1.094   6.313 -0.1132 -0.3704  0.0411
  140OSM    O1315270   3.115   1.172   6.379 -0.0290 -0.2659 -0.2673
  140OSM    O1415271   2.977   1.127   6.176 -0.6653 -0.2907  0.1171
  140OSM    O1115272   2.877   1.107   6.399 -0.1126  0.0247  0.1740
  140OSM    O1215273   3.046   0.945   6.308 -0.2823 -0.8010  0.0331
  140OSM    C1S15274   2.883   1.046   6.533 -0.1144 -0.1825  0.0672
  140OSM    H1S15275   2.961   1.095   6.596  0.5100 -0.5466 -0.4131
  140OSM    H1T15276   2.905   0.938   6.517 -1.6665 -0.7622  1.7307
  140OSM     NF15277   2.774   0.990   6.750  0.0832 -0.5994  0.3352
  140OSM    HNF15278   2.744   0.896   6.766 -0.1347 -0.6753 -0.4929
  140OSM    C2S15279   2.752   1.044   6.617  0.1184 -0.5813  1.1589
  140OSM    H2S15280   2.721   1.151   6.621 -1.2100 -0.8815 -0.8173
  140OSM    C3S15281   2.647   0.956   6.546  0.4942  0.1671  0.3224
  140OSM    H3S15282   2.690   0.854   6.541  1.2032  0.4562  0.5565
  140OSM     O315283   2.628   0.998   6.408 -0.1782  0.0175  0.0686
  140OSM    HO315284   2.707   1.043   6.379 -0.7531 -0.1639 -1.8885
  140OSM    C4S15285   2.509   0.963   6.615 -0.7216  0.2897 -0.6423
  140OSM    H4S15286   2.473   1.066   6.626  0.3055  0.5128  0.8095
  140OSM    C5S15287   2.452   0.861   6.669  0.0410 -0.1316 -0.2596
  140OSM    H5S15288   2.504   0.765   6.660 -1.8607 -1.2494  0.2374
  140OSM    C6S15289   2.321   0.859   6.743 -0.8670  0.4327 -0.2990
  140OSM    H6S15290   2.284   0.755   6.733 -0.9470  0.2568  1.6826
  140OSM    H6T15291   2.236   0.909   6.692 -1.8272 -2.1128 -1.2640
  140OSM    C7S15292   2.330   0.895   6.898 -0.6085 -0.3664  0.0595
  140OSM    H7S15293   2.373   0.997   6.908 -0.1687 -0.7721  2.8378
  140OSM    H7T15294   2.411   0.830   6.937 -1.3457 -0.4916  1.3972
  140OSM    C8S15295   2.198   0.881   6.980 -0.0356 -0.8784 -0.0043
  140OSM    H8S15296   2.217   0.782   7.026  1.5801 -0.5979 -0.0394
  140OSM    H8T15297   2.105   0.873   6.920 -0.7664 -0.0610  1.0113
  140OSM    C9S15298   2.196   0.996   7.085 -0.1171 -0.2341 -0.7317
  140OSM    H9S15299   2.165   1.093   7.039 -1.7869 -0.4710 -0.1317
  140OSM    H9T15300   2.303   0.999   7.112 -0.4842 -0.2879  0.7263
  140OSM   C10S15301   2.106   0.976   7.205  0.4831 -0.8894 -0.3491
  140OSM   H10S15302   2.116   0.871   7.242 -0.7702  0.3283  3.6775
  140OSM   H10T15303   2.001   0.998   7.174  1.3058  0.2355 -2.4106
  140OSM   C11S15304   2.134   1.057   7.324 -0.1628  0.3383  0.2225
  140OSM   H11S15305   2.109   1.165   7.322 -0.6706  0.2282  0.5725
  140OSM   H11T15306   2.242   1.049   7.351 -0.5007 -1.5622  1.1036
  140OSM   C12S15307   2.049   1.004   7.441 -0.0329  0.3965  0.6464
  140OSM   H12S15308   2.081   0.899   7.463  1.1267  0.4071 -0.9231
  140OSM   H12T15309   1.942   1.003   7.414 -0.3530  2.5261  1.7791
  140OSM   C13S15310   2.078   1.078   7.572 -0.4461 -0.2633  0.4144
  140OSM   H13S15311   2.038   1.180   7.552  2.3547  1.3721  2.7942
  140OSM   H13T15312   2.189   1.087   7.573 -0.3227 -1.4398 -0.8485
  140OSM   C14S15313   2.020   1.016   7.694  0.5991 -0.3610  0.1575
  140OSM   H14S15314   2.045   0.908   7.696  3.3480  0.2419  2.6400
  140OSM   H14T15315   1.910   1.027   7.689  0.8556  2.6417 -0.1544
  140OSM   C15S15316   2.078   1.066   7.827 -0.1291 -0.8041  0.6608
  140OSM   H15S15317   2.067   1.177   7.828  4.6091 -0.2132  1.1693
  140OSM   H15T15318   2.186   1.050   7.807 -0.3179  1.8694 -3.0707
  140OSM   C16S15319   2.019   0.990   7.945  0.0274 -0.8486  0.1644
  140OSM   H16S15320   2.039   0.881   7.949 -0.6905 -1.0452 -1.2726
  140OSM   H16T15321   1.910   1.008   7.931  0.9299  2.3899 -3.6724
  140OSM   C17S15322   2.051   1.043   8.079 -0.4594  0.5240 -0.3464
  140OSM   H17S15323   2.014   0.974   8.158  2.0445 -2.5234 -1.7153
  140OSM   H17T15324   1.994   1.136   8.097 -1.1198 -0.0056  0.3531
  140OSM   C18S15325   2.199   1.076   8.106 -0.2712 -0.4394  0.5260
  140OSM   H18S15326   2.205   1.109   8.212 -0.2678 -0.8903  0.6667
  140OSM   H18T15327   2.244   1.150   8.037 -0.3226 -1.6303 -0.7834
  140OSM   H18U15328   2.250   0.978   8.108 -1.7061 -1.1900  1.0901
  140OSM    C1F15329   2.839   1.054   6.843 -1.0844 -0.0685  0.7766
  140OSM     OF15330   2.893   1.165   6.818 -0.0510  0.1784 -0.2293
  140OSM    C2F15331   2.846   0.985   6.976 -0.0494  0.5965 -0.1061
  140OSM    H2F15332   2.944   0.986   7.027  0.9052 -1.1491 -1.8575
  140OSM    H2G15333   2.824   0.878   6.959 -1.6357  1.0798 -1.2239
  140OSM    C3F15334   2.743   1.027   7.078  0.0339 -0.2203  0.1910
  140OSM    H3F15335   2.635   1.023   7.052  0.5132 -1.3698 -1.7132
  140OSM    H3G15336   2.764   1.135   7.096 -0.8103 -0.5455  3.4013
  140OSM    C4F15337   2.760   0.958   7.208  0.1879 -0.1081  0.9546
  140OSM    H4F15338   2.860   0.973   7.255  0.9318 -1.3853 -0.2087
  140OSM    H4G15339   2.747   0.848   7.199  0.1920 -0.0100 -0.3757
  140OSM    C5F15340   2.661   1.016   7.315 -0.6045  0.0393 -0.9069
  140OSM    H5F15341   2.567   0.959   7.298 -1.6136  1.5644 -0.5296
  140OSM    H5G15342   2.635   1.122   7.295 -0.8629 -0.1721 -1.7199
  140OSM    C6F15343   2.711   1.002   7.454 -0.1733  0.2853  0.3554
  140OSM    H6F15344   2.805   1.058   7.473 -0.8821  1.3766  0.7028
  140OSM    H6G15345   2.751   0.900   7.475 -0.5896  0.2479  0.9631
  140OSM    C7F15346   2.597   1.035   7.553 -0.2189  0.0286 -0.5341
  140OSM    H7F15347   2.520   0.956   7.538  0.0684 -0.5492  0.9351
  140OSM    H7G15348   2.550   1.134   7.532 -1.6016 -0.0482  1.9752
  140OSM    C8F15349   2.626   1.028   7.699 -0.0454  0.4143 -0.0070
  140OSM    H8F15350   2.663   0.930   7.737  0.2834 -0.1141 -1.6572
  140OSM    H8G15351   2.528   1.043   7.748  0.5429  2.9922  0.4260
  140OSM    C9F15352   2.719   1.137   7.756  0.9757  0.2646 -1.0322
  140OSM    H9F15353   2.782   1.186   7.680  1.0601  2.1757  0.2294
  140OSM   C10F15354   2.738   1.174   7.884  0.0128 -0.0964  0.0417
  140OSM   H10F15355   2.811   1.255   7.900  0.5701 -0.5036 -0.4281
  140OSM   C11F15356   2.661   1.113   7.998 -0.5076 -0.4600  0.1164
  140OSM   H11F15357   2.730   1.044   8.051  0.1591  0.2212  0.1398
  140OSM   H11G15358   2.574   1.051   7.967 -0.0547 -0.8448 -0.3950
  140OSM   C12F15359   2.598   1.217   8.102  0.0953  0.3746  0.0999
  140OSM   H12F15360   2.547   1.172   8.189  1.3551 -0.6252  0.3367
  140OSM   H12G15361   2.514   1.263   8.046 -0.1959 -0.9967 -0.6439
  140OSM   C13F15362   2.698   1.317   8.151 -0.2972 -0.0810  0.0411
  140OSM   H13F15363   2.764   1.371   8.080 -2.9742  0.7366 -1.9042
  140OSM   H13G15364   2.762   1.280   8.234  2.1711  1.3967 -1.1440
  140OSM   C14F15365   2.624   1.430   8.229  0.2993  0.4396  0.1224
  140OSM   H14F15366   2.564   1.390   8.313 -0.0222 -0.8631 -0.7148
  140OSM   H14G15367   2.554   1.482   8.160 -1.0953 -1.6582 -0.0912
  140OSM   C15F15368   2.727   1.527   8.281  0.0780 -0.0275 -0.5647
  140OSM   H15F15369   2.673   1.617   8.319 -0.0698 -1.0435  1.7192
  140OSM   H15G15370   2.784   1.569   8.195  2.9792 -1.9418  0.3426
  140OSM   C16F15371   2.826   1.479   8.390  0.3673 -0.2872 -0.6648
  140OSM   H16F15372   2.894   1.399   8.356  0.9270 -1.4115  2.8551
  140OSM   H16G15373   2.768   1.435   8.475 -0.8186 -0.2991 -1.4640
  140OSM   C17F15374   2.907   1.600   8.440 -0.1437 -0.4549  0.4391
  140OSM   H17F15375   2.842   1.674   8.490  1.3801  0.3481  1.2324
  140OSM   H17G15376   2.948   1.656   8.353 -0.4269  1.0126  1.2414
  140OSM   C18F15377   3.030   1.558   8.525  0.2252 -0.1721 -0.2356
  140OSM   H18F15378   3.111   1.634   8.529 -0.0085 -0.0106  2.3595
  140OSM   H18G15379   3.074   1.460   8.495  2.5951  1.4691 -2.3779
  140OSM   H18H15380   3.005   1.539   8.631 -1.3496 -0.9791 -0.7284
  141OSM      N15381   2.343   3.092   6.056 -0.3539  0.2052  0.3222
  141OSM    C1515382   2.350   3.074   5.907  0.0802 -0.4100 -0.0221
  141OSM   H15A15383   2.396   2.980   5.882  0.2813  0.0855 -1.5917
  141OSM   H15B15384   2.412   3.145   5.855 -0.4706 -1.0719 -1.5932
  141OSM   H15C15385   2.250   3.090   5.869 -0.1278 -2.5004 -0.3960
  141OSM    C1415386   2.477   3.046   6.113 -0.0875 -0.2422  0.0950
  141OSM   H14A15387   2.558   3.116   6.094  0.2148 -0.3571  0.9461
  141OSM   H14B15388   2.504   2.946   6.082  0.4882 -0.3433  0.9214
  141OSM   H14C15389   2.464   3.055   6.219 -1.6976  1.3974 -0.2121
  141OSM    C1315390   2.320   3.230   6.098  0.0194 -0.5136 -0.0705
  141OSM   H13A15391   2.294   3.238   6.202  2.9722 -0.2935  0.6808
  141OSM   H13B15392   2.228   3.260   6.050 -0.1607 -1.1166 -0.1050
  141OSM   H13C15393   2.404   3.294   6.077  0.9797 -1.6515  0.2442
  141OSM    C1215394   2.227   2.996   6.110  0.0297 -0.1621  1.2446
  141OSM   H12A15395   2.233   2.904   6.054 -0.4793 -1.1239  2.7635
  141OSM   H12B15396   2.138   3.038   6.068  0.1059 -1.0516  0.1738
  141OSM    C1115397   2.202   2.980   6.265 -0.2982 -0.1176  0.4000
  141OSM   H11A15398   2.110   2.921   6.286  0.6994 -1.6698  0.4528
  141OSM   H11B15399   2.188   3.083   6.303  0.4283  0.5084 -0.9980
  141OSM      P15400   2.324   2.752   6.321  0.1762 -0.1426 -0.2124
  141OSM    O1315401   2.208   2.693   6.251  0.0137  0.0828  0.0859
  141OSM    O1415402   2.452   2.700   6.280 -0.0476 -0.3429 -0.0673
  141OSM    O1115403   2.295   2.720   6.473 -0.2577  0.0141 -0.1452
  141OSM    O1215404   2.316   2.914   6.321 -0.1759  0.3006  0.1868
  141OSM    C1S15405   2.380   2.772   6.575  0.2559 -1.1964 -0.5052
  141OSM    H1S15406   2.450   2.851   6.542 -0.1049 -1.1063 -1.0623
  141OSM    H1T15407   2.442   2.689   6.614  2.2859  1.5730  2.4504
  141OSM     NF15408   2.397   2.855   6.802 -0.0102 -0.0824 -0.1711
  141OSM    HNF15409   2.386   2.792   6.879 -2.5302  0.6795  0.1539
  141OSM    C2S15410   2.299   2.830   6.697 -0.2399 -0.3557  0.1504
  141OSM    H2S15411   2.256   2.930   6.675  1.3319 -0.0466 -1.6583
  141OSM    C3S15412   2.173   2.748   6.741  0.2140  0.2521  0.4330
  141OSM    H3S15413   2.204   2.646   6.775  0.6658  0.2840  0.1208
  141OSM     O315414   2.082   2.736   6.634 -0.0373  0.2613  0.2456
  141OSM    HO315415   2.150   2.736   6.566  1.2026  0.3900  1.4548
  141OSM    C4S15416   2.109   2.806   6.866  0.1836  0.1651  0.0562
  141OSM    H4S15417   2.116   2.740   6.954 -1.9946  0.0696  0.1731
  141OSM    C5S15418   2.045   2.927   6.886 -0.4373  0.1796 -0.0845
  141OSM    H5S15419   2.031   2.999   6.803  2.2695  0.2147 -0.5439
  141OSM    C6S15420   1.988   2.964   7.025 -0.3693 -0.0488 -0.3543
  141OSM    H6S15421   1.877   2.954   7.020 -0.1997 -1.3179 -1.8892
  141OSM    H6T15422   2.001   3.073   7.041  3.0649 -0.3950 -0.5337
  141OSM    C7S15423   2.039   2.893   7.155  0.2284 -0.0024 -0.6406
  141OSM    H7S15424   2.143   2.927   7.171  0.2910  0.3683 -1.7447
  141OSM    H7T15425   2.031   2.783   7.147  1.8435 -0.2265  0.6687
  141OSM    C8S15426   1.954   2.941   7.282  0.4369  0.1571  0.2943
  141OSM    H8S15427   1.848   2.925   7.253  0.0629  0.6423  1.4093
  141OSM    H8T15428   1.967   3.050   7.296 -1.1133  0.1490  1.9327
  141OSM    C9S15429   2.006   2.873   7.406 -0.0296 -0.3211 -0.2229
  141OSM    H9S15430   2.116   2.886   7.398 -0.1989  0.5836 -1.1698
  141OSM    H9T15431   1.973   2.767   7.394  0.3192 -0.6730  1.7644
  141OSM   C10S15432   1.956   2.925   7.541  0.0252 -0.0354 -0.2588
  141OSM   H10S15433   1.850   2.896   7.556 -0.8951  0.9519 -4.4124
  141OSM   H10T15434   1.968   3.035   7.545 -0.6628  0.0640 -0.8805
  141OSM   C11S15435   2.039   2.872   7.657 -0.5317  0.6216 -0.2122
  141OSM   H11S15436   2.132   2.932   7.658  0.8390 -1.4532 -0.0963
  141OSM   H11T15437   2.071   2.769   7.632  2.6933  1.4213  0.3982
  141OSM   C12S15438   1.961   2.875   7.793 -0.4935  0.2421  0.0840
  141OSM   H12S15439   1.877   2.803   7.802 -1.0216  1.1240  2.5276
  141OSM   H12T15440   1.909   2.973   7.799 -0.1223  0.2836  3.1509
  141OSM   C13S15441   2.051   2.852   7.913  0.6667 -0.7330  0.5673
  141OSM   H13S15442   2.154   2.886   7.888 -0.4887  1.4316 -1.3689
  141OSM   H13T15443   2.072   2.744   7.931 -2.7989 -1.8129 -1.4723
  141OSM   C14S15444   2.006   2.925   8.042  0.1841  1.1417  0.4585
  141OSM   H14S15445   2.016   3.035   8.030 -2.0245  1.3919  0.7301
  141OSM   H14T15446   2.072   2.887   8.123  0.3295 -1.5575 -0.8577
  141OSM   C15S15447   1.856   2.892   8.084  1.3259 -1.1633  0.2148
  141OSM   H15S15448   1.839   2.783   8.071 -0.5197 -1.1054  1.8882
  141OSM   H15T15449   1.774   2.940   8.027  0.5734  0.7963  2.8137
  141OSM   C16S15450   1.839   2.930   8.238 -0.0356  0.3465  0.2979
  141OSM   H16S15451   1.830   3.040   8.247 -0.8106  0.3164 -0.1347
  141OSM   H16T15452   1.930   2.894   8.290  0.7689 -0.1466 -1.4251
  141OSM   C17S15453   1.710   2.866   8.294  0.1206 -1.2374 -0.7448
  141OSM   H17S15454   1.713   2.757   8.276  2.4567 -1.1669 -1.0047
  141OSM   H17T15455   1.623   2.918   8.248  1.2930  0.8304 -0.7241
  141OSM   C18S15456   1.685   2.891   8.445 -0.4369 -0.0639  0.6563
  141OSM   H18S15457   1.714   2.995   8.473 -2.9008  0.9017 -0.1980
  141OSM   H18T15458   1.740   2.814   8.503  0.6374  0.5256  0.4301
  141OSM   H18U15459   1.580   2.877   8.478 -1.2635  0.5535 -1.5962
  141OSM    C1F15460   2.504   2.934   6.814 -0.4950 -0.1090  0.6429
  141OSM     OF15461   2.537   3.015   6.729  0.6124 -0.5728 -0.0598
  141OSM    C2F15462   2.581   2.927   6.939 -0.2674  0.2937 -0.0497
  141OSM    H2F15463   2.646   2.837   6.940  2.3003  2.0946 -0.6625
  141OSM    H2G15464   2.506   2.908   7.019 -1.4130 -0.5694 -1.2982
  141OSM    C3F15465   2.664   3.060   6.971 -0.2794  0.8386 -1.1540
  141OSM    H3F15466   2.607   3.155   6.963 -1.8458  0.1876  1.6623
  141OSM    H3G15467   2.746   3.052   6.896  0.1921  0.8488 -0.6380
  141OSM    C4F15468   2.726   3.069   7.114  1.0788 -0.6203 -0.7647
  141OSM    H4F15469   2.799   2.988   7.138 -0.9000 -2.2903 -0.2467
  141OSM    H4G15470   2.635   3.059   7.176  0.4889 -1.8374 -1.8191
  141OSM    C5F15471   2.789   3.210   7.145 -0.9326 -0.9196 -0.4596
  141OSM    H5F15472   2.715   3.293   7.154  1.4618  1.3471 -0.9977
  141OSM    H5G15473   2.845   3.239   7.054 -0.3052 -2.7472 -0.6818
  141OSM    C6F15474   2.881   3.210   7.268  0.3756  0.3764 -0.2733
  141OSM    H6F15475   2.922   3.312   7.280 -0.8898  0.7739  0.8406
  141OSM    H6G15476   2.970   3.145   7.255  0.5216  0.8444 -1.7237
  141OSM    C7F15477   2.799   3.176   7.398  0.0365  0.0763 -0.3399
  141OSM    H7F15478   2.736   3.087   7.381 -1.2537  1.0276 -0.6273
  141OSM    H7G15479   2.718   3.249   7.418 -0.5942 -1.2598  2.1843
  141OSM    C8F15480   2.875   3.156   7.529 -0.1478 -0.1999  0.3462
  141OSM    H8F15481   2.982   3.135   7.508  0.0237  0.9480  0.0476
  141OSM    H8G15482   2.822   3.068   7.571 -0.7990 -0.7826 -1.6266
  141OSM    C9F15483   2.880   3.278   7.622  0.5663  0.5550  0.0424
  141OSM    H9F15484   2.888   3.372   7.566  0.0168 -0.3567 -1.6165
  141OSM   C10F15485   2.880   3.282   7.755  0.7729  0.7098  0.7520
  141OSM   H10F15486   2.906   3.372   7.813  0.3175  2.4794 -1.7215
  141OSM   C11F15487   2.871   3.149   7.834 -0.2964  0.1053 -0.8499
  141OSM   H11F15488   2.957   3.081   7.816 -1.3910 -2.2008  2.2879
  141OSM   H11G15489   2.778   3.094   7.806  1.3521 -3.3171  0.1186
  141OSM   C12F15490   2.870   3.178   7.981 -0.0809  0.4593 -0.3984
  141OSM   H12F15491   2.779   3.231   8.016 -1.7117 -2.6374  0.3083
  141OSM   H12G15492   2.961   3.239   7.995 -0.7206  1.7858 -1.9300
  141OSM   C13F15493   2.869   3.042   8.063  0.0522 -0.0591  0.2857
  141OSM   H13F15494   2.964   2.986   8.050 -0.5452 -0.6184 -2.0028
  141OSM   H13G15495   2.786   2.982   8.020 -0.5912  1.7926 -1.1449
  141OSM   C14F15496   2.850   3.065   8.213  0.0466 -0.0329  0.1067
  141OSM   H14F15497   2.781   3.151   8.230  0.1398  0.4524 -1.7870
  141OSM   H14G15498   2.944   3.093   8.264 -0.5899  1.8227  0.3386
  141OSM   C15F15499   2.800   2.938   8.286 -0.9897 -0.2835  0.0286
  141OSM   H15F15500   2.874   2.857   8.265 -0.7694 -0.0421 -0.1231
  141OSM   H15G15501   2.701   2.912   8.242 -1.4351 -2.1705  2.0255
  141OSM   C16F15502   2.776   2.958   8.439 -0.6906 -0.0890  0.4288
  141OSM   H16F15503   2.869   2.967   8.499  0.6598 -1.2273 -1.4446
  141OSM   H16G15504   2.723   2.865   8.467  0.7483 -1.1284 -0.2123
  141OSM   C17F15505   2.685   3.071   8.466  0.0419  0.0258 -0.3370
  141OSM   H17F15506   2.595   3.060   8.402  0.0250  2.0812 -0.6987
  141OSM   H17G15507   2.738   3.165   8.437 -0.9666  0.5254 -0.5648
  141OSM   C18F15508   2.637   3.096   8.614 -0.1951 -0.7374  0.1304
  141OSM   H18F15509   2.599   2.999   8.653  2.4355 -1.3978  1.1577
  141OSM   H18G15510   2.556   3.172   8.607  1.1860  1.1551  3.7033
  141OSM   H18H15511   2.720   3.141   8.672  2.7297  0.2323 -4.5944
  142OSM      N15512   2.594   4.943   5.808  0.1016  0.1182 -0.2566
  142OSM    C1515513   2.447   4.960   5.827  0.0689  0.2572  0.4119
  142OSM   H15A15514   2.429   5.061   5.860  1.3446  0.6901 -0.2310
  142OSM   H15B15515   2.406   4.884   5.892  0.4343  0.0109  0.3576
  142OSM   H15C15516   2.392   4.942   5.736 -0.6415 -1.7741  1.2168
  142OSM    C1415517   2.616   4.803   5.764  0.3671  0.0479 -0.1850
  142OSM   H14A15518   2.570   4.774   5.670  1.6107 -1.1774 -0.4258
  142OSM   H14B15519   2.582   4.735   5.841 -2.7919 -0.0003 -1.5406
  142OSM   H14C15520   2.722   4.785   5.757  0.1248 -1.3660 -0.2725
  142OSM    C1315521   2.646   5.036   5.699 -0.5880  0.1646  0.4000
  142OSM   H13A15522   2.616   5.004   5.600  0.4478  1.9368 -0.5077
  142OSM   H13B15523   2.753   5.021   5.700 -0.6473 -0.3758 -0.3404
  142OSM   H13C15524   2.617   5.130   5.744  0.7860  0.5480  0.5134
  142OSM    C1215525   2.672   4.955   5.942  0.5326 -0.7085  0.5407
  142OSM   H12A15526   2.775   4.927   5.923  0.8209  0.4708  0.3046
  142OSM   H12B15527   2.633   4.884   6.012  1.0105  1.0974  2.6966
  142OSM    C1115528   2.683   5.088   6.016  0.0560  0.4411  0.9618
  142OSM   H11A15529   2.721   5.162   5.942 -2.1319 -1.3691 -2.0902
  142OSM   H11B15530   2.751   5.077   6.103  2.8656  2.1583 -0.9254
  142OSM      P15531   2.495   5.102   6.204  0.1128 -0.3191  0.2159
  142OSM    O1315532   2.475   5.234   6.262  0.3432 -0.3609 -0.0683
  142OSM    O1415533   2.382   5.019   6.196 -0.5389  0.1212  0.1654
  142OSM    O1115534   2.604   5.020   6.288  0.7948 -0.5987  0.8951
  142OSM    O1215535   2.557   5.123   6.062 -0.1442 -0.5002 -0.0471
  142OSM    C1S15536   2.610   5.033   6.434 -0.6127 -0.9840  0.4030
  142OSM    H1S15537   2.612   5.138   6.471 -0.2690 -1.0583  0.5987
  142OSM    H1T15538   2.701   4.977   6.464  0.3749  1.2659  1.7578
  142OSM     NF15539   2.519   4.975   6.660  0.0829 -0.3990  0.0998
  142OSM    HNF15540   2.552   4.901   6.718  1.5147  2.0259  2.5458
  142OSM    C2S15541   2.496   4.960   6.518 -0.4383  0.1513  0.3744
  142OSM    H2S15542   2.400   5.000   6.478 -1.3140 -3.5386 -1.4497
  142OSM    C3S15543   2.488   4.809   6.480  0.2446  0.3277  0.7691
  142OSM    H3S15544   2.576   4.754   6.520 -0.4795 -1.3027  0.1688
  142OSM     O315545   2.470   4.774   6.347  0.0076  0.4284 -0.2206
  142OSM    HO315546   2.452   4.859   6.308  0.5264  1.5733  1.9276
  142OSM    C4S15547   2.358   4.753   6.541 -0.3320  0.0232 -0.6096
  142OSM    H4S15548   2.265   4.778   6.488  1.3131  1.9488 -2.7035
  142OSM    C5S15549   2.351   4.692   6.663 -0.2672 -0.6177 -0.4738
  142OSM    H5S15550   2.435   4.652   6.722 -0.0784  0.1226 -0.2336
  142OSM    C6S15551   2.223   4.643   6.723 -0.2081 -0.0125  0.4124
  142OSM    H6S15552   2.198   4.552   6.664 -0.7656  1.4926 -1.7308
  142OSM    H6T15553   2.137   4.711   6.708 -1.2701 -1.4380 -0.0477
  142OSM    C7S15554   2.248   4.607   6.872  0.6221  0.4030 -0.3665
  142OSM    H7S15555   2.325   4.527   6.863  0.6668  0.5179 -1.0353
  142OSM    H7T15556   2.154   4.558   6.907  1.1520 -0.9991 -0.8532
  142OSM    C8S15557   2.281   4.724   6.960  0.5467  0.7760  0.7550
  142OSM    H8S15558   2.201   4.799   6.940 -0.7288 -1.3010 -2.2327
  142OSM    H8T15559   2.373   4.777   6.928 -1.2597  2.9956 -1.0050
  142OSM    C9S15560   2.281   4.699   7.113 -0.8411 -0.2840 -0.8283
  142OSM    H9S15561   2.320   4.595   7.127 -0.8531  0.1090  2.7544
  142OSM    H9T15562   2.172   4.703   7.137 -0.9089  2.8621 -1.5357
  142OSM   C10S15563   2.353   4.800   7.197  0.2177 -0.1926 -0.4319
  142OSM   H10S15564   2.290   4.823   7.286  1.5720 -2.2981  1.0984
  142OSM   H10T15565   2.360   4.891   7.133  1.8545  1.1931  1.6433
  142OSM   C11S15566   2.494   4.774   7.242 -0.1879  0.1079  0.3284
  142OSM   H11S15567   2.549   4.735   7.154 -0.0252  0.1383  0.4173
  142OSM   H11T15568   2.497   4.694   7.319  0.5672 -0.8446 -0.6845
  142OSM   C12S15569   2.571   4.897   7.302 -0.1254  0.1213  0.5914
  142OSM   H12S15570   2.557   4.974   7.224 -2.2876 -2.6524 -1.8466
  142OSM   H12T15571   2.680   4.881   7.319 -0.3907 -1.9002  0.5402
  142OSM   C13S15572   2.507   4.959   7.428 -0.3593 -0.7679 -0.7829
  142OSM   H13S15573   2.397   4.974   7.417 -0.4360  1.0308  1.8887
  142OSM   H13T15574   2.557   5.057   7.441  1.1015 -1.6278  0.3162
  142OSM   C14S15575   2.543   4.883   7.553  0.4436  0.0048 -0.7915
  142OSM   H14S15576   2.653   4.870   7.566  0.4459  2.2323  1.8202
  142OSM   H14T15577   2.497   4.783   7.544  0.3743 -0.2770  2.1972
  142OSM   C15S15578   2.490   4.952   7.685 -0.0380  0.1503 -0.0056
  142OSM   H15S15579   2.386   4.990   7.680  0.3884  1.3717  0.2809
  142OSM   H15T15580   2.547   5.045   7.703  0.0595  0.1483 -0.2977
  142OSM   C16S15581   2.517   4.872   7.818  0.0375 -0.2823 -0.6454
  142OSM   H16S15582   2.623   4.840   7.818  0.2744  0.4660  1.5145
  142OSM   H16T15583   2.448   4.785   7.818  0.9160 -1.0010  1.1233
  142OSM   C17S15584   2.489   4.955   7.944  0.5035 -0.7461  0.5444
  142OSM   H17S15585   2.470   4.885   8.028 -0.4829 -0.0544  0.9080
  142OSM   H17T15586   2.398   5.016   7.924  1.4487  0.1709 -1.0925
  142OSM   C18S15587   2.617   5.042   7.968 -0.1014  0.1814 -0.1548
  142OSM   H18S15588   2.711   4.983   7.960  0.7843  1.5265  0.1883
  142OSM   H18T15589   2.605   5.102   8.061 -0.4588 -0.8172  0.4536
  142OSM   H18U15590   2.616   5.117   7.886  0.5825  0.8621  0.4545
  142OSM    C1F15591   2.504   5.092   6.718 -0.9473 -1.0201  0.2853
  142OSM     OF15592   2.459   5.183   6.656  0.2852  0.1078  0.6060
  142OSM    C2F15593   2.541   5.113   6.866  0.6429 -0.0361  0.2122
  142OSM    H2F15594   2.643   5.157   6.871  1.1725 -0.6269 -3.7784
  142OSM    H2G15595   2.536   5.012   6.911 -3.5454  0.0325  0.0900
  142OSM    C3F15596   2.445   5.212   6.928 -0.4928  0.3536  0.0911
  142OSM    H3F15597   2.336   5.197   6.912 -0.3047  0.3583 -1.2316
  142OSM    H3G15598   2.478   5.312   6.893 -0.9785 -0.4735 -2.8394
  142OSM    C4F15599   2.459   5.228   7.081 -0.1994  0.1729 -0.7821
  142OSM    H4F15600   2.567   5.228   7.106 -0.4171  0.0059  0.2124
  142OSM    H4G15601   2.420   5.135   7.128 -0.4403  1.6972  2.1410
  142OSM    C5F15602   2.403   5.361   7.129  0.6686  0.7518 -0.4909
  142OSM    H5F15603   2.306   5.363   7.075  0.8541 -0.5208 -0.9086
  142OSM    H5G15604   2.466   5.444   7.093 -0.0859  1.2011 -0.7801
  142OSM    C6F15605   2.393   5.381   7.275 -0.8777  0.0776 -0.3626
  142OSM    H6F15606   2.493   5.383   7.323 -1.1343  0.2119  0.1616
  142OSM    H6G15607   2.347   5.285   7.308 -1.3764  0.5254  0.2592
  142OSM    C7F15608   2.316   5.510   7.322 -0.3703 -0.2115 -0.7082
  142OSM    H7F15609   2.214   5.503   7.279  0.1070  0.1664 -1.9089
  142OSM    H7G15610   2.356   5.599   7.269 -1.6782 -0.6113 -2.4048
  142OSM    C8F15611   2.338   5.531   7.473  0.5057  0.1011 -0.2455
  142OSM    H8F15612   2.308   5.442   7.531 -0.2890 -0.4230 -1.4377
  142OSM    H8G15613   2.270   5.614   7.500  0.3811  0.2211 -0.9199
  142OSM    C9F15614   2.482   5.565   7.515  0.7027  0.7175 -0.3122
  142OSM    H9F15615   2.516   5.660   7.471  0.7625 -0.1823 -2.2870
  142OSM   C10F15616   2.555   5.488   7.599 -0.1094 -0.0139  0.0628
  142OSM   H10F15617   2.662   5.513   7.607 -0.3062  2.0296 -3.0613
  142OSM   C11F15618   2.517   5.362   7.675  0.3581 -0.1034 -0.1371
  142OSM   H11F15619   2.609   5.315   7.715  1.1612  1.1446 -0.5048
  142OSM   H11G15620   2.462   5.283   7.619  2.3209 -0.5643 -1.4767
  142OSM   C12F15621   2.436   5.416   7.795  0.2631 -1.1661 -0.0378
  142OSM   H12F15622   2.340   5.461   7.761 -0.7626 -2.3247  1.2812
  142OSM   H12G15623   2.487   5.506   7.835  1.2533 -1.8273  0.1958
  142OSM   C13F15624   2.416   5.315   7.915  0.2129 -0.4409  0.5107
  142OSM   H13F15625   2.518   5.296   7.954  0.3462  0.2342  0.4969
  142OSM   H13G15626   2.381   5.219   7.871 -0.5306 -1.4835  3.2513
  142OSM   C14F15627   2.310   5.356   8.021  0.5683  0.1734 -0.0104
  142OSM   H14F15628   2.209   5.377   7.980  1.0319  1.8948 -0.3102
  142OSM   H14G15629   2.332   5.455   8.067  0.4006  0.1200  0.1814
  142OSM   C15F15630   2.299   5.248   8.136 -0.1174  0.1087  0.0783
  142OSM   H15F15631   2.299   5.146   8.092  0.7409  0.2335 -0.2305
  142OSM   H15G15632   2.203   5.248   8.192 -0.4729  0.4778 -0.5265
  142OSM   C16F15633   2.416   5.261   8.232 -0.5354 -0.7039 -0.5255
  142OSM   H16F15634   2.404   5.352   8.295 -1.8927 -0.2876 -1.3697
  142OSM   H16G15635   2.515   5.270   8.182 -0.9461  0.0705 -1.2000
  142OSM   C17F15636   2.410   5.131   8.326 -0.4085  0.0140 -0.3664
  142OSM   H17F15637   2.436   5.033   8.281  2.3012  0.5106  0.0531
  142OSM   H17G15638   2.306   5.131   8.364  0.0741 -0.5189  0.9781
  142OSM   C18F15639   2.497   5.147   8.455 -0.4232 -0.1873 -0.1235
  142OSM   H18F15640   2.468   5.072   8.532 -0.0700 -1.0740 -0.8434
  142OSM   H18G15641   2.479   5.252   8.486  0.1042 -0.5360  1.3666
  142OSM   H18H15642   2.598   5.128   8.413  0.1443  0.2832  1.0225
  143OSM      N15643   4.449   0.055   5.989 -0.2892  0.0487  0.0711
  143OSM    C1515644   4.416   0.141   5.870  0.4701  0.6898 -0.6473
  143OSM   H15A15645   4.401   0.240   5.913 -2.1054  0.6615 -1.4065
  143OSM   H15B15646   4.335   0.121   5.801  1.7293 -1.7933 -1.4456
  143OSM   H15C15647   4.505   0.149   5.810  0.7653 -2.2279 -0.6567
  143OSM    C1415648   4.510  -0.072   5.950 -0.1814 -0.3671  0.6488
  143OSM   H14A15649   4.460  -0.124   5.868  1.8169 -1.2456 -0.0439
  143OSM   H14B15650   4.517  -0.139   6.035  0.4844  1.8498  2.3657
  143OSM   H14C15651   4.613  -0.056   5.922 -0.7991  0.4509 -1.2228
  143OSM    C1315652   4.539   0.134   6.080  0.4041 -0.0346 -0.5129
  143OSM   H13A15653   4.506   0.227   6.125  2.0195 -0.1575  0.9900
  143OSM   H13B15654   4.634   0.151   6.031  1.9148 -2.4180  1.4755
  143OSM   H13C15655   4.571   0.067   6.158 -0.9030 -0.9224 -0.7266
  143OSM    C1215656   4.317   0.037   6.062 -0.1733 -0.2512 -0.7872
  143OSM   H12A15657   4.249  -0.029   6.009 -0.9244 -0.5588  0.5226
  143OSM   H12B15658   4.264   0.131   6.063  1.1328  0.4991 -0.6290
  143OSM    C1115659   4.325  -0.028   6.198  0.0808 -0.7697  0.5163
  143OSM   H11A15660   4.227  -0.005   6.246  0.3485  2.5075 -0.3848
  143OSM   H11B15661   4.403   0.014   6.264 -0.1703  0.7753 -0.1454
  143OSM      P15662   4.280  -0.283   6.132 -0.0512  0.5406  0.0201
  143OSM    O1315663   4.151  -0.234   6.074 -0.1309  0.0289  0.4336
  143OSM    O1415664   4.380  -0.350   6.046 -0.3153  0.0645 -0.3368
  143OSM    O1115665   4.248  -0.377   6.253 -0.2605  0.5874 -0.2081
  143OSM    O1215666   4.359  -0.164   6.198  0.1869 -0.0362 -0.1933
  143OSM    C1S15667   4.344  -0.410   6.351  0.0015  0.8519 -0.4087
  143OSM    H1S15668   4.446  -0.403   6.307  1.0738  0.0718  1.9024
  143OSM    H1T15669   4.325  -0.514   6.386  0.5828 -0.0650 -2.6802
  143OSM     NF15670   4.448  -0.367   6.568  0.2158  0.5978  0.3213
  143OSM    HNF15671   4.412  -0.427   6.639  0.4741 -2.5430 -2.0646
  143OSM    C2S15672   4.344  -0.316   6.477  0.3314  0.2148  0.1114
  143OSM    H2S15673   4.362  -0.213   6.439  2.9106 -0.5863 -0.9333
  143OSM    C3S15674   4.205  -0.313   6.534  1.1323 -0.5938  0.0421
  143OSM    H3S15675   4.174  -0.416   6.562 -1.8445  0.3539  0.4318
  143OSM     O315676   4.102  -0.275   6.444 -0.4317 -0.2527 -0.5170
  143OSM    HO315677   4.145  -0.286   6.359  0.3219 -2.4275  0.1138
  143OSM    C4S15678   4.202  -0.231   6.657 -0.3461 -0.9404 -0.2187
  143OSM    H4S15679   4.218  -0.122   6.647 -2.6835 -0.3560  1.6886
  143OSM    C5S15680   4.172  -0.276   6.785 -0.3121  1.0117 -0.3774
  143OSM    H5S15681   4.156  -0.381   6.810 -3.3589  2.1204  2.7964
  143OSM    C6S15682   4.172  -0.190   6.908 -0.0530  0.4208 -0.9070
  143OSM    H6S15683   4.065  -0.171   6.934  0.3236  2.3936 -0.6766
  143OSM    H6T15684   4.221  -0.091   6.893  2.3557 -0.2994  1.8391
  143OSM    C7S15685   4.254  -0.265   7.014 -0.1293  0.0490 -1.0581
  143OSM    H7S15686   4.364  -0.275   7.007 -0.1099  0.1077 -0.8188
  143OSM    H7T15687   4.226  -0.372   7.022  1.7666 -0.5012 -1.5352
  143OSM    C8S15688   4.225  -0.193   7.149  0.3829  0.6093 -0.2797
  143OSM    H8S15689   4.126  -0.213   7.194  0.3422  1.6666  0.1128
  143OSM    H8T15690   4.234  -0.083   7.132 -2.2445  0.6036 -1.9704
  143OSM    C9S15691   4.318  -0.235   7.254 -0.5866 -0.4363  0.3366
  143OSM    H9S15692   4.421  -0.238   7.214 -0.6717  2.0822 -0.1312
  143OSM    H9T15693   4.295  -0.342   7.276 -1.0816 -0.5021 -0.4775
  143OSM   C10S15694   4.305  -0.149   7.380 -0.0108 -0.0048  0.4795
  143OSM   H10S15695   4.197  -0.128   7.394 -0.3322 -1.7890  0.8091
  143OSM   H10T15696   4.363  -0.056   7.361 -0.9493  0.0083 -2.6363
  143OSM   C11S15697   4.349  -0.220   7.510  0.1270 -0.3485  0.3200
  143OSM   H11S15698   4.460  -0.221   7.506  0.2259  4.1815 -2.1806
  143OSM   H11T15699   4.306  -0.322   7.513 -1.1224  0.1437 -0.3818
  143OSM   C12S15700   4.308  -0.143   7.641  0.1744 -0.1180  0.1807
  143OSM   H12S15701   4.197  -0.136   7.641  0.1707 -0.1496 -0.9723
  143OSM   H12T15702   4.365  -0.047   7.644  1.6676 -0.9951  0.5623
  143OSM   C13S15703   4.363  -0.211   7.769 -0.0774  0.2600 -0.4232
  143OSM   H13S15704   4.472  -0.227   7.760 -0.1998  0.6636 -2.8380
  143OSM   H13T15705   4.314  -0.311   7.759  1.3758 -0.3484 -1.6147
  143OSM   C14S15706   4.331  -0.129   7.902 -0.3184 -0.5031  0.4670
  143OSM   H14S15707   4.335  -0.206   7.982 -1.2105 -2.9660 -1.7494
  143OSM   H14T15708   4.227  -0.096   7.883 -0.6582 -2.2740 -0.8973
  143OSM   C15S15709   4.438  -0.028   7.937  0.2480 -0.1007 -0.5810
  143OSM   H15S15710   4.452   0.047   7.856 -0.5396 -0.9468 -1.5222
  143OSM   H15T15711   4.534  -0.083   7.952  0.1822 -0.3971 -1.2233
  143OSM   C16S15712   4.400   0.057   8.056 -0.1273  0.3783 -0.0271
  143OSM   H16S15713   4.470   0.044   8.141 -0.6610 -1.0360  0.2211
  143OSM   H16T15714   4.296   0.038   8.090 -1.0873  2.0194 -1.9081
  143OSM   C17S15715   4.372   0.208   8.022  0.3468 -0.9967 -0.3777
  143OSM   H17S15716   4.308   0.211   7.931 -0.0974  1.9359 -0.0085
  143OSM   H17T15717   4.466   0.257   7.988  1.1950  0.4533  3.7970
  143OSM   C18S15718   4.307   0.294   8.132 -0.0706  0.6533  0.2220
  143OSM   H18S15719   4.364   0.305   8.228  0.2457 -0.2564  0.1393
  143OSM   H18T15720   4.212   0.247   8.164  0.8536 -0.1791  1.8491
  143OSM   H18U15721   4.276   0.393   8.092 -2.4485 -0.4953 -0.8302
  143OSM    C1F15722   4.578  -0.338   6.548 -0.3778  0.0768  0.1543
  143OSM     OF15723   4.610  -0.269   6.452 -0.5283 -0.6382  0.1505
  143OSM    C2F15724   4.668  -0.405   6.646  0.4543 -1.0199  0.9101
  143OSM    H2F15725   4.773  -0.394   6.613 -0.0450  0.0556 -0.3792
  143OSM    H2G15726   4.636  -0.511   6.652 -1.9305 -0.3926  0.1294
  143OSM    C3F15727   4.667  -0.328   6.784  0.3706  1.1560 -0.2951
  143OSM    H3F15728   4.562  -0.296   6.802 -0.0732 -1.2035  1.7104
  143OSM    H3G15729   4.729  -0.237   6.778 -1.8285  2.7402  0.1766
  143OSM    C4F15730   4.715  -0.420   6.898  0.0181 -0.8034  0.1445
  143OSM    H4F15731   4.824  -0.435   6.887  0.1211 -0.3725  0.5981
  143OSM    H4G15732   4.658  -0.514   6.884 -0.8299 -0.5065  1.4832
  143OSM    C5F15733   4.705  -0.358   7.040 -0.5013 -0.4333  0.0136
  143OSM    H5F15734   4.595  -0.347   7.055 -1.0055 -1.2857 -2.7298
  143OSM    H5G15735   4.764  -0.264   7.040  0.2394 -0.8718  1.6599
  143OSM    C6F15736   4.766  -0.445   7.148  0.4248 -0.0351 -0.3980
  143OSM    H6F15737   4.876  -0.458   7.144  0.5426 -0.0297  2.2062
  143OSM    H6G15738   4.729  -0.549   7.139 -1.1236  0.3691  1.0451
  143OSM    C7F15739   4.736  -0.399   7.292  0.1806  0.4572 -0.1974
  143OSM    H7F15740   4.626  -0.414   7.303  0.3268 -0.0868  0.5999
  143OSM    H7G15741   4.761  -0.291   7.297 -2.4779  1.0176  1.9976
  143OSM    C8F15742   4.811  -0.464   7.416  0.5046  0.6143 -0.1473
  143OSM    H8F15743   4.777  -0.398   7.498  1.4427  2.2873 -1.0990
  143OSM    H8G15744   4.921  -0.454   7.411  0.3871  1.0136 -2.1394
  143OSM    C9F15745   4.786  -0.612   7.449 -0.0196  0.0307  0.3107
  143OSM    H9F15746   4.846  -0.668   7.376  0.2290  2.2308 -1.2226
  143OSM   C10F15747   4.720  -0.664   7.555 -0.3970  0.3225  0.0277
  143OSM   H10F15748   4.714  -0.772   7.574 -0.4932  0.6174  1.7763
  143OSM   C11F15749   4.652  -0.578   7.662 -0.3584 -0.9221  0.1821
  143OSM   H11F15750   4.546  -0.614   7.663  0.0759 -2.2546 -0.4172
  143OSM   H11G15751   4.643  -0.472   7.632  3.5146 -0.6135 -0.0498
  143OSM   C12F15752   4.719  -0.601   7.802  0.0190  0.4473 -0.1474
  143OSM   H12F15753   4.825  -0.571   7.787  0.4429 -0.8395  0.2629
  143OSM   H12G15754   4.715  -0.707   7.833  1.2380  0.4648  0.0926
  143OSM   C13F15755   4.645  -0.512   7.906  0.3000  0.0026 -0.6351
  143OSM   H13F15756   4.535  -0.515   7.889 -0.0692 -2.6022  1.7957
  143OSM   H13G15757   4.670  -0.404   7.904  4.0454 -0.7231  1.8631
  143OSM   C14F15758   4.660  -0.556   8.058  0.5025  0.4731  0.6619
  143OSM   H14F15759   4.761  -0.597   8.078  1.7813  3.3728  0.4770
  143OSM   H14G15760   4.590  -0.640   8.075  1.1824 -0.3664 -0.5655
  143OSM   C15F15761   4.634  -0.444   8.150  0.5400 -0.2488 -0.2594
  143OSM   H15F15762   4.650  -0.487   8.251  0.7471  0.2982 -0.0527
  143OSM   H15G15763   4.525  -0.426   8.138  0.8016  0.3872 -1.7086
  143OSM   C16F15764   4.716  -0.319   8.135  0.4643 -0.5621  0.7798
  143OSM   H16F15765   4.684  -0.263   8.045  0.8877  0.5066  1.2909
  143OSM   H16G15766   4.824  -0.345   8.128  0.0622 -2.5438  1.5811
  143OSM   C17F15767   4.698  -0.217   8.255  0.3659 -0.0408  0.3814
  143OSM   H17F15768   4.731  -0.114   8.228  0.6112 -0.5736 -1.4751
  143OSM   H17G15769   4.773  -0.252   8.328 -2.1033  0.3340  3.1942
  143OSM   C18F15770   4.555  -0.210   8.314 -0.0688 -0.2093  0.1252
  143OSM   H18F15771   4.544  -0.127   8.387 -1.9524 -0.2815 -0.0446
  143OSM   H18G15772   4.508  -0.294   8.369 -1.2798 -1.1521 -2.3147
  143OSM   H18H15773   4.489  -0.171   8.234 -0.7452 -0.6942  0.4343
  144OSM      N15774   3.846   6.207   6.179  0.0286  0.1690 -0.6267
  144OSM    C1515775   3.745   6.189   6.072 -0.3015  0.6604  0.1609
  144OSM   H15A15776   3.765   6.248   5.983  1.2683 -1.0679 -0.6588
  144OSM   H15B15777   3.651   6.224   6.111 -1.5335 -2.5470  0.1950
  144OSM   H15C15778   3.735   6.084   6.050 -0.3430  0.3817  1.5015
  144OSM    C1415779   3.949   6.099   6.170  0.1859 -0.5380  0.4993
  144OSM   H14A15780   3.996   6.102   6.073  0.1056  1.1863  0.5003
  144OSM   H14B15781   3.908   6.001   6.188 -1.5823  0.5782  2.9330
  144OSM   H14C15782   4.022   6.111   6.249 -0.7830  0.8824  1.2006
  144OSM    C1315783   3.911   6.335   6.175  0.0873  0.3342 -0.0662
  144OSM   H13A15784   3.974   6.342   6.263 -0.7516 -1.7161  0.7209
  144OSM   H13B15785   3.828   6.403   6.184 -1.8650 -2.2967  2.9231
  144OSM   H13C15786   3.974   6.347   6.089 -0.8312  1.6121 -0.5670
  144OSM    C1215787   3.763   6.198   6.315 -0.2781 -0.4157 -0.4005
  144OSM   H12A15788   3.836   6.184   6.394 -1.9289  1.0736  1.4202
  144OSM   H12B15789   3.698   6.112   6.317 -0.3587 -0.3515 -0.2952
  144OSM    C1115790   3.677   6.322   6.349  0.3882  0.7694 -0.4345
  144OSM   H11A15791   3.743   6.396   6.398 -0.7056  0.5318  1.4622
  144OSM   H11B15792   3.605   6.295   6.430 -1.2634  1.8496 -1.5011
  144OSM      P15793   3.449   6.354   6.223  0.2510 -0.2942 -0.7263
  144OSM    O1315794   3.385   6.450   6.129 -0.8966  0.3714  0.9287
  144OSM    O1415795   3.427   6.211   6.198 -0.4415 -0.0927 -0.3172
  144OSM    O1115796   3.395   6.381   6.366  0.1397  0.1034 -0.7669
  144OSM    O1215797   3.608   6.381   6.240  0.5467 -0.4813 -0.6044
  144OSM    C1S15798   3.429   6.511   6.427  0.1498 -0.3817  0.1565
  144OSM    H1S15799   3.385   6.598   6.374  2.0622  1.0996  0.9427
  144OSM    H1T15800   3.539   6.524   6.440  0.1746 -1.7139  1.5102
  144OSM     NF15801   3.395   6.662   6.620  0.9201  0.6258 -0.5749
  144OSM    HNF15802   3.485   6.671   6.662 -0.1004  0.1725  1.8170
  144OSM    C2S15803   3.362   6.529   6.571  0.6825 -0.4014  1.2736
  144OSM    H2S15804   3.253   6.527   6.546  1.0388 -0.4404 -0.3259
  144OSM    C3S15805   3.406   6.415   6.659  0.2838 -0.3237  0.2972
  144OSM    H3S15806   3.515   6.428   6.677  0.3830 -1.6170  0.6688
  144OSM     O315807   3.399   6.283   6.602 -0.6049  0.4670 -0.1170
  144OSM    HO315808   3.393   6.307   6.509 -0.9116  1.3860  0.1322
  144OSM    C4S15809   3.333   6.436   6.792  0.5095  0.3832  0.1011
  144OSM    H4S15810   3.228   6.404   6.798  0.6361 -0.1496 -0.4747
  144OSM    C5S15811   3.392   6.457   6.911 -0.1716 -0.7139  0.3390
  144OSM    H5S15812   3.502   6.468   6.910 -0.0541 -1.9023  0.4354
  144OSM    C6S15813   3.313   6.472   7.041 -0.3669 -0.2436  0.5235
  144OSM    H6S15814   3.339   6.389   7.110 -1.3947 -0.7643  0.3004
  144OSM    H6T15815   3.202   6.469   7.038 -0.3709 -1.1065  1.1930
  144OSM    C7S15816   3.367   6.595   7.116  0.4117  0.9954  0.2230
  144OSM    H7S15817   3.353   6.685   7.053 -0.1858  0.8422  0.1312
  144OSM    H7T15818   3.472   6.592   7.154  1.4330  1.8918 -2.4461
  144OSM    C8S15819   3.273   6.599   7.240 -0.1669  0.0579 -0.2577
  144OSM    H8S15820   3.165   6.597   7.212  0.0459  0.4001 -1.1068
  144OSM    H8T15821   3.289   6.702   7.278 -0.3936  0.2902 -0.7794
  144OSM    C9S15822   3.311   6.492   7.351 -0.4459 -0.3739 -0.4084
  144OSM    H9S15823   3.418   6.488   7.381 -0.5634 -3.2129 -0.1967
  144OSM    H9T15824   3.266   6.393   7.329  1.3914 -1.4423  0.5543
  144OSM   C10S15825   3.252   6.542   7.483  0.0355  0.1713  0.4451
  144OSM   H10S15826   3.144   6.568   7.475 -0.1539 -1.1682 -1.9433
  144OSM   H10T15827   3.298   6.641   7.504 -1.3006  1.3132 -1.7840
  144OSM   C11S15828   3.272   6.449   7.604  0.6869  0.1860 -0.3993
  144OSM   H11S15829   3.382   6.444   7.621  0.6321  2.4987  0.8516
  144OSM   H11T15830   3.235   6.347   7.581 -2.0646  1.1807 -0.5096
  144OSM   C12S15831   3.200   6.491   7.729 -0.6722  0.7964  0.1626
  144OSM   H12S15832   3.091   6.496   7.709 -0.4421 -2.3171 -2.1698
  144OSM   H12T15833   3.241   6.585   7.772 -1.0605  1.9039 -1.8683
  144OSM   C13S15834   3.221   6.384   7.846 -0.1335 -0.6825 -0.0950
  144OSM   H13S15835   3.193   6.442   7.937 -0.0090 -1.2601  0.3113
  144OSM   H13T15836   3.325   6.348   7.859 -0.3695 -1.0244  0.8381
  144OSM   C14S15837   3.115   6.271   7.835  0.0156 -0.1027 -0.3048
  144OSM   H14S15838   3.100   6.238   7.730 -0.5289 -0.5233 -0.0969
  144OSM   H14T15839   3.021   6.305   7.883  0.2313 -0.4481  0.3686
  144OSM   C15S15840   3.157   6.141   7.902 -0.0443  0.3373 -0.7002
  144OSM   H15S15841   3.244   6.098   7.847 -0.5866  0.6416 -1.8172
  144OSM   H15T15842   3.078   6.066   7.878 -0.2478  0.2165  0.3090
  144OSM   C16S15843   3.174   6.151   8.057  0.8100  0.1298  0.6747
  144OSM   H16S15844   3.081   6.201   8.093  0.7610  2.1672 -2.1685
  144OSM   H16T15845   3.255   6.224   8.080  1.1749 -0.0141 -0.1479
  144OSM   C17S15846   3.194   6.018   8.122 -0.0847  0.4804  0.1810
  144OSM   H17S15847   3.262   5.956   8.060 -0.4419 -0.2674  0.5444
  144OSM   H17T15848   3.090   5.980   8.110 -0.5089  1.0951  1.7656
  144OSM   C18S15849   3.235   6.031   8.267  0.4519  0.0914 -0.0006
  144OSM   H18S15850   3.326   6.092   8.284  0.9405 -0.6152 -0.0449
  144OSM   H18T15851   3.253   5.928   8.305 -1.8309 -1.1419 -2.0662
  144OSM   H18U15852   3.148   6.073   8.322  0.0477 -1.7356  0.7899
  144OSM    C1F15853   3.332   6.768   6.580  0.5001 -0.2332  0.4242
  144OSM     OF15854   3.230   6.759   6.514  0.5691 -0.2200 -0.0629
  144OSM    C2F15855   3.386   6.906   6.624 -0.0890 -0.3591 -0.3242
  144OSM    H2F15856   3.334   6.996   6.584 -0.6341  0.6503  2.5371
  144OSM    H2G15857   3.491   6.922   6.590 -0.8885  3.4755 -1.2892
  144OSM    C3F15858   3.404   6.916   6.782 -0.3327 -0.4021 -0.4628
  144OSM    H3F15859   3.491   6.980   6.810 -0.6863 -0.7468  1.4483
  144OSM    H3G15860   3.408   6.814   6.826 -0.6781 -1.3076 -2.4945
  144OSM    C4F15861   3.284   6.998   6.822 -0.7673 -0.1044 -0.6402
  144OSM    H4F15862   3.184   6.956   6.798 -0.3556 -1.6841  0.3560
  144OSM    H4G15863   3.295   7.099   6.776  0.4568  0.3707  0.6661
  144OSM    C5F15864   3.284   7.011   6.976 -0.4285 -0.7647  0.1597
  144OSM    H5F15865   3.379   7.061   7.005  0.0039 -0.9904 -0.8616
  144OSM    H5G15866   3.273   6.910   7.021 -0.8806 -0.2469  1.2184
  144OSM    C6F15867   3.174   7.105   7.013  0.0351  0.3313  0.3009
  144OSM    H6F15868   3.074   7.070   6.979  0.5278 -1.3819  0.5789
  144OSM    H6G15869   3.188   7.200   6.957 -0.8756  0.4004  0.1798
  144OSM    C7F15870   3.167   7.122   7.160 -0.2415  0.2254 -0.3203
  144OSM    H7F15871   3.266   7.150   7.204 -0.6511  1.1842  0.0114
  144OSM    H7G15872   3.143   7.025   7.208  1.6884 -0.0637  0.1359
  144OSM    C8F15873   3.058   7.222   7.201  0.0026 -0.2754 -0.1107
  144OSM    H8F15874   3.032   7.191   7.305  1.2051 -1.6577 -0.2034
  144OSM    H8G15875   2.964   7.195   7.148  0.4314 -1.5720 -0.2257
  144OSM    C9F15876   3.095   7.363   7.176 -0.1740 -0.1821 -0.6445
  144OSM    H9F15877   3.155   7.380   7.085  3.3110  0.2316  1.6083
  144OSM   C10F15878   3.067   7.469   7.249  0.2002 -1.2110  0.1669
  144OSM   H10F15879   3.103   7.570   7.224  0.6367 -1.4636 -0.2300
  144OSM   C11F15880   2.986   7.470   7.374  0.1720  0.0189  0.4271
  144OSM   H11F15881   2.935   7.373   7.391  0.4572 -0.2751 -0.3366
  144OSM   H11G15882   2.897   7.536   7.369  0.0594 -0.2478 -1.8403
  144OSM   C12F15883   3.072   7.501   7.497  0.1254 -0.0230 -0.1048
  144OSM   H12F15884   3.127   7.597   7.480  0.7241 -1.0187 -4.4803
  144OSM   H12G15885   3.145   7.419   7.514  1.2753  1.2105  1.0595
  144OSM   C13F15886   2.985   7.531   7.622  0.1522 -0.0274  0.0192
  144OSM   H13F15887   2.912   7.448   7.631 -1.8504  1.5278 -1.3586
  144OSM   H13G15888   2.928   7.627   7.619 -1.5719 -1.0716 -1.6007
  144OSM   C14F15889   3.080   7.531   7.748  0.0429 -0.3109 -0.1409
  144OSM   H14F15890   3.155   7.610   7.726  1.5513 -1.4849  0.7085
  144OSM   H14G15891   3.135   7.434   7.745  0.6287 -0.0003  0.2720
  144OSM   C15F15892   2.996   7.558   7.869  0.9591  0.2152  0.0230
  144OSM   H15F15893   2.925   7.476   7.891  1.8153  0.2398  2.9484
  144OSM   H15G15894   2.939   7.649   7.837 -0.0496 -0.1017  0.8950
  144OSM   C16F15895   3.078   7.607   7.991 -0.1578  0.0143  0.3729
  144OSM   H16F15896   3.133   7.699   7.961  0.2201 -0.7105 -1.2305
  144OSM   H16G15897   3.143   7.541   8.051 -0.1365  1.5596  2.0798
  144OSM   C17F15898   2.998   7.668   8.108 -0.8066  0.4851  0.3168
  144OSM   H17F15899   2.948   7.753   8.056  1.3434  2.5001  1.4577
  144OSM   H17G15900   3.071   7.710   8.180 -0.2478  0.8646 -0.4548
  144OSM   C18F15901   2.900   7.567   8.174  0.2065  0.3075 -0.3836
  144OSM   H18F15902   2.815   7.544   8.107  0.1978 -0.6814 -0.0436
  144OSM   H18G15903   2.862   7.612   8.269  1.4571 -1.5355  1.0349
  144OSM   H18H15904   2.961   7.480   8.207 -0.7868 -1.1122 -2.1782
  145SAPE     N15905   1.432   0.978  10.802  0.7368  0.2162 -0.0953
  145SAPE   HN115906   1.380   1.048  10.858  1.2287  0.0308  0.5947
  145SAPE   HN215907   1.517   0.954  10.857  0.1970 -1.2195  0.1312
  145SAPE   HN315908   1.475   1.033  10.725 -0.0767 -0.1410 -0.8160
  145SAPE   C1215909   1.338   0.868  10.754 -0.2466 -0.1982  0.1734
  145SAPE  H12A15910   1.312   0.801  10.839 -1.2923  0.4314  0.3664
  145SAPE  H12B15911   1.390   0.819  10.669 -1.0399 -1.1574  0.2388
  145SAPE   C1115912   1.214   0.942  10.717 -0.5723  0.0815  0.0719
  145SAPE  H11A15913   1.153   0.984  10.800 -0.4647  2.4491 -1.0127
  145SAPE  H11B15914   1.139   0.870  10.677  0.3384  0.3769 -2.2769
  145SAPE     P15915   1.125   1.133  10.563 -0.0319  0.1962 -0.0073
  145SAPE   O1315916   1.012   1.116  10.656 -0.3836  0.3327 -0.4400
  145SAPE   O1415917   1.177   1.268  10.545  0.0104  0.0623  0.1925
  145SAPE   O1215918   1.244   1.037  10.612 -0.4849 -0.4570  0.3999
  145SAPE   O1115919   1.081   1.079  10.423  0.1754 -0.2093  0.4380
  145SAPE    C115920   1.164   0.989  10.349  0.0066  0.1490  0.2381
  145SAPE    HA15921   1.194   0.903  10.413 -1.2414 -0.0807  0.5416
  145SAPE    HB15922   1.100   0.954  10.265 -1.0544  2.6737 -0.0389
  145SAPE    C215923   1.290   1.046  10.285  0.0907 -0.1927 -0.4798
  145SAPE    HS15924   1.345   1.094  10.368 -0.0306  1.2744 -1.2419
  145SAPE   O2115925   1.261   1.157  10.198  0.4244 -0.7380  1.6675
  145SAPE   C2115926   1.356   1.246  10.183 -0.0902 -0.0772  0.1847
  145SAPE   O2215927   1.467   1.249  10.232  0.3280  0.4687 -0.1530
  145SAPE   C2215928   1.310   1.341  10.074 -0.2467  0.4559 -0.4072
  145SAPE   H2R15929   1.207   1.324  10.036 -0.5855  3.1676 -0.7773
  145SAPE   H2S15930   1.304   1.438  10.127 -1.0157 -0.2103  0.7399
  145SAPE    C315931   1.366   0.936  10.209 -0.3911 -0.3562 -0.1097
  145SAPE    HX15932   1.404   0.873  10.292  0.1939  0.7403  0.4741
  145SAPE    HY15933   1.455   0.975  10.155 -0.4483 -1.0168 -0.6877
  145SAPE   O3115934   1.285   0.857  10.116 -0.4341 -0.2108  0.2407
  145SAPE   C3115935   1.352   0.742  10.088  0.3967 -0.5182  0.3502
  145SAPE   O3215936   1.466   0.723  10.114 -0.3431 -0.2480 -0.8471
  145SAPE   C3215937   1.253   0.652  10.023 -0.0738 -0.2386 -0.4036
  145SAPE   H2X15938   1.258   0.675   9.915  2.7875  1.2020 -0.0131
  145SAPE   H2Y15939   1.157   0.679  10.073  0.1379 -1.4716  0.7141
  145SAPE   C2315940   1.406   1.356   9.957 -0.0857  0.1913 -0.6119
  145SAPE   H3R15941   1.502   1.395   9.997  0.2170 -1.2740  0.1216
  145SAPE   H3S15942   1.371   1.431   9.882 -2.9409 -0.7925 -0.3362
  145SAPE   C2415943   1.430   1.225   9.876  0.0610  1.0240  0.0335
  145SAPE   H4R15944   1.489   1.153   9.937  0.4777 -0.2844 -1.8909
  145SAPE   H4S15945   1.495   1.246   9.789 -0.5258 -1.2055 -0.9677
  145SAPE   C2515946   1.299   1.158   9.844  0.1049  0.3836 -0.0561
  145SAPE   H5R15947   1.238   1.124   9.929  0.2103 -0.7493 -0.4182
  145SAPE   C2615948   1.241   1.127   9.726 -0.6053 -0.0403 -0.3020
  145SAPE   H6R15949   1.147   1.070   9.726 -0.2228 -0.7126 -2.2092
  145SAPE   C2715950   1.299   1.144   9.591  0.1287  0.3172 -0.1774
  145SAPE   H7R15951   1.404   1.181   9.593  1.7250 -3.8194 -1.7974
  145SAPE   H7S15952   1.241   1.231   9.556  0.8206  1.1787  0.7865
  145SAPE   C2815953   1.283   1.033   9.493  0.5977 -0.2269 -1.1381
  145SAPE   H8R15954   1.285   0.926   9.521 -3.1811 -0.6465 -2.1440
  145SAPE   C2915955   1.236   1.059   9.368 -0.1629 -0.0247 -0.3095
  145SAPE   H9R15956   1.210   0.967   9.314  2.1506 -0.4647 -0.7153
  145SAPE  C21015957   1.199   1.189   9.297  0.1180  0.2370 -0.8145
  145SAPE  H10R15958   1.276   1.208   9.220  1.2975 -1.7509 -0.1517
  145SAPE  H10S15959   1.223   1.284   9.350  0.4375  0.9861 -2.2794
  145SAPE  C21115960   1.056   1.188   9.261  0.6180  0.1718 -0.9755
  145SAPE  H11R15961   0.995   1.149   9.344  0.7870  1.1132 -0.3988
  145SAPE  C21215962   1.000   1.217   9.142 -0.0204 -0.1360 -0.1822
  145SAPE  H12R15963   0.895   1.192   9.119  1.1180 -4.1665 -1.4600
  145SAPE  C21315964   1.077   1.264   9.020 -0.6637 -0.2766 -0.0071
  145SAPE  H13R15965   1.124   1.177   8.969  0.6604 -0.0108  0.7408
  145SAPE  H13S15966   1.160   1.328   9.057 -1.6006  0.6715  0.4788
  145SAPE  C21415967   0.995   1.352   8.938 -0.1803 -0.3971 -0.4636
  145SAPE  H14R15968   0.983   1.442   9.000  0.3935 -1.4254  1.1819
  145SAPE  C21515969   0.937   1.326   8.826  0.0436 -0.3490 -0.2243
  145SAPE  H15R15970   0.880   1.408   8.779 -0.4954 -0.0364  0.9549
  145SAPE  C21615971   0.929   1.194   8.759  0.2861 -0.1461 -0.5754
  145SAPE  H16R15972   0.853   1.132   8.810  0.2013 -2.3011 -3.2259
  145SAPE  H16S15973   1.029   1.149   8.779  0.6534  0.0722 -1.8466
  145SAPE  C21715974   0.897   1.218   8.610 -0.2235 -0.3796 -0.9652
  145SAPE  H17R15975   0.794   1.260   8.600 -0.6130 -1.0614  0.0336
  145SAPE  H17S15976   0.882   1.125   8.551  0.7125 -0.7191 -0.6684
  145SAPE  C21815977   1.006   1.293   8.529 -1.2510 -0.1534  0.0734
  145SAPE  H18R15978   1.061   1.372   8.585 -1.0486 -0.9677  1.0482
  145SAPE  H18S15979   0.948   1.359   8.461  0.2794 -0.8867 -1.9882
  145SAPE  C21915980   1.106   1.208   8.450 -0.8986 -0.2449  0.0540
  145SAPE  H19R15981   1.039   1.169   8.371 -0.8627  1.7054 -0.9831
  145SAPE  H19S15982   1.140   1.134   8.525  1.2851  0.5884 -0.0819
  145SAPE  C22015983   1.207   1.290   8.368 -0.2107  0.0303 -0.5608
  145SAPE  H20R15984   1.253   1.228   8.289 -0.9584 -1.2149 -0.0236
  145SAPE  H20S15985   1.285   1.327   8.439  1.4316 -0.3479 -2.1231
  145SAPE  H20T15986   1.155   1.381   8.333  0.6297  1.0561  0.7719
  145SAPE   C3315987   1.270   0.503  10.045  0.4809 -0.2649  0.1286
  145SAPE   H3X15988   1.178   0.453  10.081  1.9395 -0.9267  3.0888
  145SAPE   H3Y15989   1.354   0.492  10.117  1.4042 -1.7224 -1.1715
  145SAPE   C3415990   1.313   0.411   9.928  0.3710  0.4178  1.0504
  145SAPE   H4X15991   1.340   0.310   9.965  2.2462  1.2624  2.0506
  145SAPE   H4Y15992   1.403   0.464   9.891  1.3481  0.3315  3.2716
  145SAPE   C3515993   1.202   0.409   9.820 -0.1597 -0.1169  0.4436
  145SAPE   H5X15994   1.172   0.513   9.793 -1.2510 -0.1803  1.3575
  145SAPE   H5Y15995   1.110   0.359   9.857  0.9655 -2.4049  0.2538
  145SAPE   C3615996   1.251   0.343   9.698 -0.2987 -0.0769 -0.5616
  145SAPE   H6X15997   1.295   0.243   9.719  0.2251  0.2090 -0.2936
  145SAPE   H6Y15998   1.338   0.401   9.661 -0.2140  1.4221  1.9357
  145SAPE   C3715999   1.139   0.326   9.594 -0.1027 -0.3227 -0.1854
  145SAPE   H7X16000   1.074   0.416   9.587 -1.3150 -1.2954 -1.6650
  145SAPE   H7Y16001   1.061   0.247   9.606 -2.4911  1.9522 -0.3465
  145SAPE   C3816002   1.199   0.297   9.457  0.1760  0.6678  1.0395
  145SAPE   H8X16003   1.119   0.249   9.396 -0.3069 -1.4087  3.2578
  145SAPE   H8Y16004   1.278   0.220   9.464  0.3513  0.6730 -0.6234
  145SAPE   C3916005   1.251   0.430   9.386  0.0586 -0.1453 -0.9486
  145SAPE   H9X16006   1.307   0.483   9.466  0.6155  1.2056 -2.2277
  145SAPE   H9Y16007   1.162   0.493   9.365 -1.5287 -1.4480  1.6417
  145SAPE  C31016008   1.333   0.413   9.261 -0.4499  0.3559 -0.7613
  145SAPE  H10X16009   1.284   0.347   9.186  0.1014  0.5358 -1.2867
  145SAPE  H10Y16010   1.433   0.371   9.286 -0.6912  0.5291  0.5204
  145SAPE  C31116011   1.372   0.533   9.180 -0.0310  0.0370  0.4674
  145SAPE  H11X16012   1.284   0.571   9.123  0.8264 -1.7711 -2.1459
  145SAPE  H11Y16013   1.446   0.510   9.101  0.5323 -0.6122  1.1777
  145SAPE  C31216014   1.443   0.634   9.267 -0.1713 -0.5243  1.0885
  145SAPE  H12X16015   1.512   0.584   9.338  2.2165 -1.0469 -1.5088
  145SAPE  H12Y16016   1.370   0.686   9.334 -0.2140 -0.2475  0.8289
  145SAPE  C31316017   1.531   0.728   9.184 -0.1144  0.1979 -0.1321
  145SAPE  H13X16018   1.469   0.787   9.114 -1.1784  2.2315  2.4214
  145SAPE  H13Y16019   1.611   0.683   9.121  2.0174 -0.1560  2.6724
  145SAPE  C31416020   1.598   0.841   9.264 -0.2205 -0.3825 -0.3306
  145SAPE  H14X16021   1.664   0.801   9.344  0.5605  1.5542  0.0175
  145SAPE  H14Y16022   1.530   0.917   9.308 -0.2562 -0.0880 -0.8916
  145SAPE  C31516023   1.692   0.931   9.185  0.6071 -0.0567  0.8207
  145SAPE  H15X16024   1.680   1.036   9.220 -1.2007  0.0391 -0.0413
  145SAPE  H15Y16025   1.663   0.933   9.078  2.7773 -1.7198  0.1747
  145SAPE  C31616026   1.838   0.888   9.181  0.3389 -0.3777 -0.2415
  145SAPE  H16X16027   1.832   0.779   9.202 -1.0776 -0.8751 -2.9108
  145SAPE  H16Y16028   1.886   0.939   9.267 -1.4982  0.1661  0.5058
  145SAPE  C31716029   1.906   0.917   9.046  0.3787  0.1915 -1.2803
  145SAPE  H17X16030   1.851   0.851   8.976 -0.7704 -0.7279  0.4555
  145SAPE  H17Y16031   2.008   0.879   9.070  0.0763  1.1269  1.7845
  145SAPE  C31816032   1.926   1.070   9.003  0.1726  0.8986 -0.0467
  145SAPE  H18X16033   1.984   1.076   8.908 -2.0986  1.7629 -1.4311
  145SAPE  H18Y16034   1.970   1.135   9.081  2.1405 -3.2348  2.4695
  145SAPE  H18Z16035   1.823   1.110   8.991 -0.9081 -1.9876 -0.7856
  146SAPE     N16036   1.139   1.692  10.531 -0.1066 -0.1016  0.4002
  146SAPE   HN116037   1.183   1.606  10.493  0.2394  0.8171 -1.3436
  146SAPE   HN216038   1.219   1.753  10.558 -0.3656  0.7879 -0.8085
  146SAPE   HN316039   1.090   1.672  10.620  0.6149 -1.2838  0.5371
  146SAPE   C1216040   1.037   1.752  10.445 -0.1205  0.2348 -0.5340
  146SAPE  H12A16041   0.956   1.677  10.447  0.9356 -0.8900  1.5226
  146SAPE  H12B16042   1.094   1.753  10.349  1.3107 -0.5509  0.2813
  146SAPE   C1116043   0.996   1.896  10.479  0.0547  0.4248 -0.2803
  146SAPE  H11A16044   0.927   1.933  10.400 -1.7945 -1.3796  0.4614
  146SAPE  H11B16045   1.085   1.961  10.470 -0.9546  1.5569 -2.5501
  146SAPE     P16046   0.874   2.048  10.655  0.1748 -0.0888  0.3649
  146SAPE   O1316047   0.723   2.021  10.658  0.1272 -0.4394 -0.1230
  146SAPE   O1416048   0.931   2.093  10.777 -0.3714  0.0213  0.1813
  146SAPE   O1216049   0.938   1.906  10.618 -0.3353  0.4277 -0.0688
  146SAPE   O1116050   0.918   2.153  10.541  0.1808  0.0299  0.0130
  146SAPE    C116051   0.816   2.239  10.482  0.1868  0.2011  0.1263
  146SAPE    HA16052   0.715   2.208  10.516  1.2894 -2.4802  1.1531
  146SAPE    HB16053   0.837   2.337  10.530  2.4223 -0.9338  1.5876
  146SAPE    C216054   0.833   2.241  10.328  0.9311 -0.0782  0.0608
  146SAPE    HS16055   0.758   2.317  10.300  1.6997  1.3370  1.7475
  146SAPE   O2116056   0.825   2.111  10.271 -0.0181 -0.6320  0.5116
  146SAPE   C2116057   0.702   2.070  10.243 -0.6025 -0.5104  0.2751
  146SAPE   O2216058   0.600   2.138  10.262 -0.3726  0.7341  0.1330
  146SAPE   C2216059   0.705   1.927  10.200 -0.1684  0.9012 -0.0374
  146SAPE   H2R16060   0.800   1.887  10.158 -0.8426 -1.0865  0.2617
  146SAPE   H2S16061   0.674   1.869  10.289 -0.2558 -0.3116 -0.8529
  146SAPE    C316062   0.964   2.303  10.285 -0.0580  0.8625  0.1422
  146SAPE    HX16063   1.040   2.237  10.332 -0.8184  1.6204  2.5549
  146SAPE    HY16064   0.989   2.405  10.320  0.9528  0.4658  0.6069
  146SAPE   O3116065   0.985   2.295  10.145 -0.1930 -0.0882 -0.7093
  146SAPE   C3116066   0.907   2.387  10.066  0.3055  1.0418 -0.5399
  146SAPE   O3216067   0.817   2.456  10.101  0.4588  0.1845  0.4925
  146SAPE   C3216068   0.974   2.376   9.922 -0.5533  0.4681 -0.4760
  146SAPE   H2X16069   0.964   2.270   9.892  2.7108  0.2550 -1.0230
  146SAPE   H2Y16070   1.082   2.386   9.946 -0.7238  0.5043  0.2815
  146SAPE   C2316071   0.599   1.896  10.091 -0.4975 -0.5490  0.4493
  146SAPE   H3R16072   0.501   1.948  10.101 -0.9524 -1.2764 -0.1614
  146SAPE   H3S16073   0.578   1.787  10.085 -0.0799 -0.6710  1.2748
  146SAPE   C2416074   0.647   1.935   9.941  0.1422 -0.0130  0.2886
  146SAPE   H4R16075   0.566   1.906   9.872  1.0039 -1.4841 -0.1243
  146SAPE   H4S16076   0.740   1.876   9.924  0.5806  0.5511  0.6777
  146SAPE   C2516077   0.681   2.080   9.928 -0.1669  0.2486 -0.7014
  146SAPE   H5R16078   0.710   2.131  10.021 -0.7701  0.5294 -0.6683
  146SAPE   C2616079   0.702   2.148   9.815 -0.6380 -0.2228 -0.0892
  146SAPE   H6R16080   0.730   2.254   9.825 -0.8631 -0.1020 -0.7066
  146SAPE   C2716081   0.677   2.085   9.683  0.1369 -0.6928 -0.0450
  146SAPE   H7R16082   0.571   2.053   9.683 -0.7205  2.0000  0.1666
  146SAPE   H7S16083   0.734   1.991   9.666 -1.6295 -1.6315 -0.8370
  146SAPE   C2816084   0.694   2.182   9.573  0.2687  0.1578 -0.3646
  146SAPE   H8R16085   0.674   2.288   9.591 -1.8643 -0.6309  2.2206
  146SAPE   C2916086   0.724   2.149   9.449  0.1195  0.1821 -0.0544
  146SAPE   H9R16087   0.722   2.237   9.384  0.1805  0.3700  0.1987
  146SAPE  C21016088   0.749   2.011   9.392 -0.2556 -0.8831 -1.0521
  146SAPE  H10R16089   0.655   1.951   9.389 -0.4305 -0.6732  0.1322
  146SAPE  H10S16090   0.835   1.966   9.445 -0.3402  1.4668  1.1258
  146SAPE  C21116091   0.801   2.028   9.254 -0.0268 -0.5293  0.3598
  146SAPE  H11R16092   0.763   2.115   9.198  1.6346  0.6266  0.9552
  146SAPE  C21216093   0.882   1.937   9.193  0.0809  0.4287 -0.4433
  146SAPE  H12R16094   0.908   1.951   9.087  0.2614 -0.5982 -0.5403
  146SAPE  C21316095   0.918   1.804   9.250  0.2236  0.3457 -1.0425
  146SAPE  H13R16096   0.828   1.754   9.292  0.8534  1.4546  1.7066
  146SAPE  H13S16097   0.980   1.817   9.341 -0.5140 -2.6613 -0.0439
  146SAPE  C21416098   0.985   1.718   9.151  0.3003 -0.4297  0.3195
  146SAPE  H14R16099   0.924   1.672   9.072 -0.6060  0.2674  0.6133
  146SAPE  C21516100   1.118   1.707   9.127  0.2735 -0.8638 -0.2515
  146SAPE  H15R16101   1.153   1.648   9.041  1.6204  0.3250 -0.5203
  146SAPE  C21616102   1.240   1.768   9.206 -0.6131  0.2137 -0.2945
  146SAPE  H16R16103   1.196   1.859   9.251  2.3507  2.0876 -1.0469
  146SAPE  H16S16104   1.312   1.805   9.130 -2.3055  4.5472  0.0853
  146SAPE  C21716105   1.302   1.688   9.317  0.3704 -0.5005 -0.1762
  146SAPE  H17R16106   1.410   1.712   9.313  0.0575  0.9509 -0.2836
  146SAPE  H17S16107   1.285   1.580   9.296 -1.7166  0.3722 -3.5187
  146SAPE  C21816108   1.238   1.717   9.453  0.5467 -0.8058 -0.4420
  146SAPE  H18R16109   1.130   1.696   9.439 -0.3631  3.0647  0.1825
  146SAPE  H18S16110   1.258   1.826   9.462  2.9043 -1.2592  0.0905
  146SAPE  C21916111   1.286   1.648   9.580  0.0073 -0.3416  0.4076
  146SAPE  H19R16112   1.217   1.679   9.661 -4.7461 -0.0419 -3.5782
  146SAPE  H19S16113   1.391   1.682   9.598 -0.3288  1.0277 -0.1825
  146SAPE  C22016114   1.272   1.496   9.576 -0.1192  0.7037 -0.0153
  146SAPE  H20R16115   1.301   1.438   9.666 -1.4920  1.6376  1.0503
  146SAPE  H20S16116   1.332   1.451   9.494 -0.1781 -0.1669  0.4200
  146SAPE  H20T16117   1.165   1.472   9.556  0.1351 -0.5066  0.0590
  146SAPE   C3316118   0.923   2.473   9.817  0.4959  0.4670 -0.4323
  146SAPE   H3X16119   0.936   2.579   9.848  0.0635 -0.0264  1.5698
  146SAPE   H3Y16120   0.813   2.464   9.802  0.4346  1.3262 -0.5481
  146SAPE   C3416121   0.993   2.441   9.681 -0.2638  0.8384 -0.2181
  146SAPE   H4X16122   0.975   2.336   9.652  1.4822  0.2110  0.9204
  146SAPE   H4Y16123   1.102   2.450   9.703 -0.4983 -2.1339  2.5587
  146SAPE   C3516124   0.935   2.532   9.574 -0.3727 -0.4800  0.8750
  146SAPE   H5X16125   0.973   2.635   9.594  0.8860 -0.1742 -2.6549
  146SAPE   H5Y16126   0.824   2.532   9.574 -0.4100  1.9328  2.5522
  146SAPE   C3616127   0.978   2.478   9.438 -0.3771  0.0354 -0.3457
  146SAPE   H6X16128   0.932   2.377   9.435 -1.6987  0.6225 -0.4783
  146SAPE   H6Y16129   1.088   2.468   9.443 -0.3762  0.5022  0.6746
  146SAPE   C3716130   0.934   2.573   9.325 -0.0575  0.2970  0.1053
  146SAPE   H7X16131   0.971   2.676   9.348 -0.7663  1.0912 -2.1441
  146SAPE   H7Y16132   0.823   2.575   9.314  0.1101  1.0130 -1.6217
  146SAPE   C3816133   0.994   2.524   9.191  0.8540 -0.0160 -0.0808
  146SAPE   H8X16134   1.089   2.472   9.212  1.3274  1.0912  0.5332
  146SAPE   H8Y16135   1.013   2.609   9.122 -2.1830  0.6414 -0.1934
  146SAPE   C3916136   0.904   2.427   9.117 -0.4784  0.4648 -0.3265
  146SAPE   H9X16137   0.812   2.487   9.100 -1.4721 -0.2327  2.2822
  146SAPE   H9Y16138   0.877   2.336   9.176 -1.1822  2.8349  3.1655
  146SAPE  C31016139   0.963   2.383   8.978 -0.5606  0.5263  0.1670
  146SAPE  H10X16140   1.051   2.447   8.956 -1.2625  2.4092  2.5855
  146SAPE  H10Y16141   0.889   2.414   8.901 -1.8209  0.4469  1.3046
  146SAPE  C31116142   0.995   2.240   8.970 -0.5837 -0.3730 -0.4689
  146SAPE  H11X16143   0.898   2.189   8.992 -0.7107  0.7285  1.6245
  146SAPE  H11Y16144   1.060   2.221   9.058 -2.7392 -1.1817  0.9967
  146SAPE  C31216145   1.040   2.197   8.824 -0.0746  0.3110 -0.0319
  146SAPE  H12X16146   1.124   2.268   8.809 -2.3327  3.1087  0.1689
  146SAPE  H12Y16147   0.952   2.208   8.757 -1.6583 -0.3673  1.8831
  146SAPE  C31316148   1.080   2.056   8.824 -0.1804  0.7751 -0.4294
  146SAPE  H13X16149   1.002   1.985   8.792  1.8355 -0.6720 -2.2576
  146SAPE  H13Y16150   1.125   2.018   8.918  1.4082  0.7275 -1.1783
  146SAPE  C31416151   1.196   2.035   8.724 -0.3391 -0.0885  0.3879
  146SAPE  H14X16152   1.290   2.082   8.762  0.6258 -0.1048 -1.8830
  146SAPE  H14Y16153   1.165   2.088   8.631  2.3893 -0.1952 -0.6417
  146SAPE  C31516154   1.216   1.892   8.679 -0.0917 -0.5448  0.6789
  146SAPE  H15X16155   1.304   1.874   8.614 -0.8829  1.5566 -1.0582
  146SAPE  H15Y16156   1.118   1.865   8.635  1.1597 -1.6838 -1.4805
  146SAPE  C31616157   1.229   1.792   8.796  0.7407  0.3986  0.1334
  146SAPE  H16X16158   1.160   1.808   8.882 -0.4351 -1.0438 -0.5240
  146SAPE  H16Y16159   1.330   1.816   8.836  0.1413  1.8387  0.8263
  146SAPE  C31716160   1.219   1.644   8.752  0.7132  0.1826 -0.3847
  146SAPE  H17X16161   1.109   1.630   8.748  0.4937  1.1827  1.5738
  146SAPE  H17Y16162   1.253   1.591   8.844 -0.6076  2.2023  1.3132
  146SAPE  C31816163   1.289   1.603   8.620  0.4812  0.1641 -0.1987
  146SAPE  H18X16164   1.248   1.668   8.540 -1.3141  2.0269  2.1450
  146SAPE  H18Y16165   1.262   1.498   8.596  2.4257 -0.4497  0.2389
  146SAPE  H18Z16166   1.396   1.630   8.629  0.0973  1.5042  0.3980
  147SAPE     N16167   1.495   4.882  10.988  0.0843 -0.2154  0.5968
  147SAPE   HN116168   1.404   4.849  11.026 -0.7648  1.2623 -0.1482
  147SAPE   HN216169   1.545   4.931  11.065  1.8921  0.3342 -0.9004
  147SAPE   HN316170   1.474   4.950  10.913  1.3477 -1.7748 -1.2134
  147SAPE   C1216171   1.570   4.760  10.948 -0.6563 -0.6159 -0.1157
  147SAPE  H12A16172   1.507   4.702  10.878 -0.6589  0.1691 -0.7783
  147SAPE  H12B16173   1.582   4.702  11.042 -1.1078 -0.2574  0.1630
  147SAPE   C1116174   1.709   4.788  10.884  0.4925  0.0870  0.0474
  147SAPE  H11A16175   1.698   4.842  10.788  0.1956 -0.8598 -0.4559
  147SAPE  H11B16176   1.762   4.694  10.859  0.4918 -0.1284  0.8518
  147SAPE     P16177   1.906   4.966  10.913 -0.3008  0.0862 -0.1598
  147SAPE   O1316178   1.850   5.087  10.850  0.2413 -0.1409 -0.0745
  147SAPE   O1416179   2.004   4.996  11.023  0.3890 -0.1549  0.3158
  147SAPE   O1216180   1.792   4.860  10.969  0.3152 -0.2121 -0.3536
  147SAPE   O1116181   1.973   4.886  10.792 -0.4213  0.1723 -0.2141
  147SAPE    C116182   2.087   4.797  10.821  1.0572 -0.2045  0.1025
  147SAPE    HA16183   2.163   4.860  10.871 -1.4540  1.9842  1.2485
  147SAPE    HB16184   2.044   4.717  10.885  1.3351 -0.2927  0.1815
  147SAPE    C216185   2.136   4.738  10.682 -0.0136 -0.6485 -0.7123
  147SAPE    HS16186   2.208   4.658  10.707 -1.3069 -1.8999 -0.9524
  147SAPE   O2116187   2.202   4.843  10.606  0.3406  0.1292 -0.7026
  147SAPE   C2116188   2.304   4.806  10.538  0.2072  0.4410 -0.7925
  147SAPE   O2216189   2.358   4.695  10.538 -0.2249 -0.7354  0.3303
  147SAPE   C2216190   2.322   4.912  10.431  0.4417  0.3692  0.5749
  147SAPE   H2R16191   2.225   4.926  10.379  1.7514  1.9406 -1.5699
  147SAPE   H2S16192   2.334   5.012  10.479 -1.8384  0.5703  0.7579
  147SAPE    C316193   2.012   4.673  10.601 -0.6435  0.5948  0.2532
  147SAPE    HX16194   1.976   4.763  10.546  0.4902  0.8884 -0.0219
  147SAPE    HY16195   1.923   4.635  10.656 -0.2083  0.0721  0.5971
  147SAPE   O3116196   2.052   4.579  10.495  0.4396  0.5105 -0.5012
  147SAPE   C3116197   2.069   4.455  10.529  0.4402 -0.6439  1.1715
  147SAPE   O3216198   2.074   4.407  10.644 -0.3308 -0.3087  0.0696
  147SAPE   C3216199   2.100   4.378  10.402 -0.4771  0.0930  0.2060
  147SAPE   H2X16200   2.009   4.313  10.398 -0.2700 -0.1368 -1.5330
  147SAPE   H2Y16201   2.185   4.309  10.420 -0.7337 -0.5335 -0.9072
  147SAPE   C2316202   2.428   4.879  10.328  0.8361  0.0592  0.8476
  147SAPE   H3R16203   2.384   4.802  10.261  0.5955  0.8659  0.0579
  147SAPE   H3S16204   2.524   4.853  10.377  0.1335 -3.3215  0.5379
  147SAPE   C2416205   2.443   4.995  10.227 -0.2287  1.3644 -0.3992
  147SAPE   H4R16206   2.482   5.089  10.272  0.3146  0.5696  0.8434
  147SAPE   H4S16207   2.342   5.026  10.194 -0.0487  1.8041 -0.5401
  147SAPE   C2516208   2.533   4.947  10.116  0.6388  0.6531 -0.4095
  147SAPE   H5R16209   2.638   4.940  10.149  0.2756  0.6632  0.7911
  147SAPE   C2616210   2.506   4.944   9.984 -0.0880 -0.3442  0.1805
  147SAPE   H6R16211   2.576   4.891   9.917  1.9816  1.2374  1.0256
  147SAPE   C2716212   2.377   4.982   9.912 -0.6905  0.2370 -0.4751
  147SAPE   H7R16213   2.393   5.081   9.865 -0.9744  0.8714  0.7619
  147SAPE   H7S16214   2.306   5.003   9.995 -0.7549 -0.8381 -0.2508
  147SAPE   C2816215   2.317   4.884   9.814 -0.3137 -0.3726 -0.0846
  147SAPE   H8R16216   2.227   4.829   9.847 -1.6548 -0.0999 -3.1632
  147SAPE   C2916217   2.358   4.852   9.695 -0.1532  0.3481  0.3490
  147SAPE   H9R16218   2.305   4.775   9.638 -0.0075  0.8929 -0.5324
  147SAPE  C21016219   2.479   4.914   9.630  0.6168 -0.0448 -0.2868
  147SAPE  H10R16220   2.554   4.832   9.637 -0.0100 -0.5755  0.2746
  147SAPE  H10S16221   2.519   5.001   9.686 -1.7414 -1.6238  4.1477
  147SAPE  C21116222   2.456   4.968   9.496 -0.1888  0.4340 -0.3002
  147SAPE  H11R16223   2.430   5.075   9.494  0.2214  0.6059  1.8399
  147SAPE  C21216224   2.439   4.904   9.378  0.1057 -0.2245  0.0534
  147SAPE  H12R16225   2.416   4.968   9.292  0.8407  0.5111  0.3885
  147SAPE  C21316226   2.437   4.757   9.344  0.2773  0.1931 -0.4542
  147SAPE  H13R16227   2.334   4.717   9.338 -0.6627  2.0462  2.2738
  147SAPE  H13S16228   2.473   4.698   9.431 -0.5775 -0.4577 -0.5341
  147SAPE  C21416229   2.504   4.722   9.210 -0.1003 -0.1206 -0.2331
  147SAPE  H14R16230   2.609   4.691   9.219  0.0972  0.4503 -0.5443
  147SAPE  C21516231   2.445   4.704   9.098 -0.6828 -0.3254  0.2399
  147SAPE  H15R16232   2.509   4.682   9.011 -1.9830  3.1937 -1.7015
  147SAPE  C21616233   2.301   4.715   9.066 -0.4875  0.6225 -0.6062
  147SAPE  H16R16234   2.235   4.642   9.119  1.3738  0.2763  1.3458
  147SAPE  H16S16235   2.292   4.684   8.960 -0.0547  1.1589 -0.8025
  147SAPE  C21716236   2.231   4.851   9.074 -0.6052 -0.8363  0.6081
  147SAPE  H17R16237   2.226   4.887   9.180  1.1285 -1.1014  0.7960
  147SAPE  H17S16238   2.126   4.846   9.040 -0.9154 -0.2807  1.4709
  147SAPE  C21816239   2.309   4.962   8.992  0.6543  0.1405  0.1565
  147SAPE  H18R16240   2.415   4.928   8.984  0.6376  0.4803 -1.5958
  147SAPE  H18S16241   2.306   5.053   9.057  1.8643 -0.8053  1.5861
  147SAPE  C21916242   2.249   4.997   8.854 -0.1496  0.6583 -0.2495
  147SAPE  H19R16243   2.141   5.013   8.876 -0.7119 -1.3176 -1.4154
  147SAPE  H19S16244   2.253   4.912   8.783  1.1212  0.9645 -0.5537
  147SAPE  C22016245   2.306   5.120   8.790 -0.4100 -0.2624 -0.7630
  147SAPE  H20R16246   2.238   5.149   8.707  0.5835  0.1130 -1.4539
  147SAPE  H20S16247   2.411   5.108   8.757 -0.1404 -0.7069  0.2241
  147SAPE  H20T16248   2.309   5.206   8.861  3.2320 -0.5574 -0.4735
  147SAPE   C3316249   2.106   4.451  10.267 -0.6615 -0.1906 -0.0609
  147SAPE   H3X16250   2.189   4.525  10.262 -1.2248  0.4387 -0.2397
  147SAPE   H3Y16251   2.009   4.500  10.245 -0.9069 -0.0484  1.2905
  147SAPE   C3416252   2.128   4.347  10.155 -0.2564 -0.6258  0.1858
  147SAPE   H4X16253   2.036   4.289  10.132 -1.4321  1.5469 -0.7960
  147SAPE   H4Y16254   2.213   4.282  10.182 -0.1936 -0.2835  0.8326
  147SAPE   C3516255   2.178   4.428  10.028 -0.3401  0.3630  0.0465
  147SAPE   H5X16256   2.280   4.467  10.049 -0.7692  1.2982  0.4197
  147SAPE   H5Y16257   2.103   4.505   9.999 -1.8192 -0.0178  2.6887
  147SAPE   C3616258   2.193   4.332   9.905 -0.0872 -0.4196 -0.6263
  147SAPE   H6X16259   2.086   4.310   9.885 -0.9347  0.6889  2.3429
  147SAPE   H6Y16260   2.252   4.245   9.941 -2.5288 -1.9328 -0.1127
  147SAPE   C3716261   2.244   4.396   9.777  0.0393 -0.3420  0.2828
  147SAPE   H7X16262   2.346   4.434   9.796  0.1110 -0.5814  0.3769
  147SAPE   H7Y16263   2.186   4.491   9.769  0.9979  0.0919 -1.7796
  147SAPE   C3816264   2.219   4.315   9.651 -0.2538  0.0654 -0.0224
  147SAPE   H8X16265   2.112   4.337   9.630 -0.5589 -1.4338 -0.0935
  147SAPE   H8Y16266   2.227   4.206   9.674 -0.6556  0.5298  2.4724
  147SAPE   C3916267   2.317   4.345   9.539 -0.2466 -0.4229 -0.3840
  147SAPE   H9X16268   2.424   4.326   9.558  0.0396  0.5741 -0.9617
  147SAPE   H9Y16269   2.310   4.454   9.517 -2.0754 -1.0546 -3.1877
  147SAPE  C31016270   2.271   4.284   9.405 -0.3880  0.1192  0.2487
  147SAPE  H10X16271   2.168   4.325   9.394  0.0869  1.1884 -0.3250
  147SAPE  H10Y16272   2.267   4.173   9.401  0.0042  0.1698 -1.9532
  147SAPE  C31116273   2.354   4.337   9.282 -0.1402  0.6133  0.2135
  147SAPE  H11X16274   2.457   4.298   9.297 -0.6386 -0.1996  1.5771
  147SAPE  H11Y16275   2.358   4.448   9.281 -0.7367  0.6363  0.3655
  147SAPE  C31216276   2.302   4.288   9.144 -0.1102 -0.9497 -0.4722
  147SAPE  H12X16277   2.332   4.364   9.069  0.0215  0.3111  0.8318
  147SAPE  H12Y16278   2.192   4.297   9.137 -0.0732 -1.1120 -1.2977
  147SAPE  C31316279   2.344   4.151   9.109 -0.7426 -0.7961  0.2625
  147SAPE  H13X16280   2.283   4.085   9.174 -0.0241  0.3443  2.1538
  147SAPE  H13Y16281   2.450   4.130   9.137 -0.3498  0.7278 -0.0366
  147SAPE  C31416282   2.307   4.106   8.965 -0.2970  0.2891 -0.4851
  147SAPE  H14X16283   2.196   4.107   8.970 -0.5060 -3.2819 -2.6343
  147SAPE  H14Y16284   2.336   4.000   8.949 -1.3509  0.2124 -1.9704
  147SAPE  C31516285   2.359   4.195   8.847 -0.2230  0.9382  0.1695
  147SAPE  H15X16286   2.470   4.197   8.848 -0.2059  0.7270 -1.3134
  147SAPE  H15Y16287   2.317   4.297   8.861  3.5635  2.4497  1.2085
  147SAPE  C31616288   2.312   4.136   8.718  0.1662 -0.0288 -0.0387
  147SAPE  H16X16289   2.203   4.154   8.727  0.3388  1.0098  0.1108
  147SAPE  H16Y16290   2.328   4.027   8.713 -2.8094 -0.4862 -0.0588
  147SAPE  C31716291   2.372   4.203   8.590 -1.2020  0.8069  0.0351
  147SAPE  H17X16292   2.322   4.156   8.503 -1.1412  3.2505 -1.3496
  147SAPE  H17Y16293   2.477   4.167   8.583 -1.1060  0.7256  1.6138
  147SAPE  C31816294   2.353   4.354   8.578 -0.0505 -0.5808  0.3438
  147SAPE  H18X16295   2.409   4.375   8.484 -0.1655  0.4155  0.4955
  147SAPE  H18Y16296   2.392   4.421   8.658  0.6318  1.2787 -1.5172
  147SAPE  H18Z16297   2.244   4.369   8.565 -0.1186 -2.6206 -1.7960
  148SAPE     N16298   3.356   0.549  10.628 -0.1194  0.7348 -0.0733
  148SAPE   HN116299   3.370   0.632  10.689  0.9018  0.7164 -0.2794
  148SAPE   HN216300   3.351   0.471  10.697  3.0104  2.2896  2.0191
  148SAPE   HN316301   3.442   0.531  10.573 -0.4538 -2.8891  0.4427
  148SAPE   C1216302   3.235   0.537  10.535 -0.3369  0.1050 -0.4108
  148SAPE  H12A16303   3.246   0.613  10.454  2.0460 -0.9505 -1.1250
  148SAPE  H12B16304   3.138   0.545  10.589  0.4728 -1.7847  1.3733
  148SAPE   C1116305   3.237   0.395  10.478 -0.2752  0.1348 -0.6376
  148SAPE  H11A16306   3.328   0.381  10.415  0.5134 -0.0669  0.5256
  148SAPE  H11B16307   3.152   0.376  10.409 -0.2078 -1.2558 -0.3500
  148SAPE     P16308   3.260   0.144  10.544  0.1776  0.0517 -0.0866
  148SAPE   O1316309   3.387   0.135  10.468 -0.2983 -0.1914 -0.1929
  148SAPE   O1416310   3.239   0.057  10.664 -0.2758  0.6398 -0.4026
  148SAPE   O1216311   3.240   0.299  10.590  0.0701 -0.1203  0.0929
  148SAPE   O1116312   3.146   0.118  10.445 -0.4780  0.4882  0.7248
  148SAPE    C116313   3.004   0.144  10.459  0.4210 -1.0010  0.5071
  148SAPE    HA16314   2.967   0.087  10.547 -0.7796 -1.1205 -0.0627
  148SAPE    HB16315   2.994   0.254  10.470 -2.5149 -1.4141  2.3669
  148SAPE    C216316   2.916   0.114  10.334  0.0521  0.4390 -0.1004
  148SAPE    HS16317   2.945   0.013  10.297  0.9377  0.7130 -0.1591
  148SAPE   O2116318   2.933   0.213  10.232 -0.1944  0.0210  0.4809
  148SAPE   C2116319   3.034   0.198  10.152 -0.2409 -0.0781 -0.4978
  148SAPE   O2216320   3.119   0.106  10.147  0.1220 -0.4534 -0.1155
  148SAPE   C2216321   3.040   0.309  10.047  0.6620 -0.7594  0.6751
  148SAPE   H2R16322   2.991   0.397  10.095 -0.4042  0.3665 -2.3418
  148SAPE   H2S16323   3.145   0.340  10.029  0.3841 -1.0407 -1.5239
  148SAPE    C316324   2.763   0.108  10.372 -0.2629 -0.6601 -0.2719
  148SAPE    HX16325   2.737   0.206  10.417  0.0509 -0.5127 -0.4144
  148SAPE    HY16326   2.763   0.030  10.451  1.5613  2.8807  3.3537
  148SAPE   O3116327   2.670   0.074  10.263 -0.2115  0.0336  0.0432
  148SAPE   C3116328   2.702  -0.045  10.212 -0.1480  0.1248 -0.3985
  148SAPE   O3216329   2.764  -0.138  10.260  0.3442 -0.4512  0.0954
  148SAPE   C3216330   2.622  -0.061  10.079  0.4904 -0.1766  0.2967
  148SAPE   H2X16331   2.530  -0.116  10.107 -0.7358  1.4327 -0.5181
  148SAPE   H2Y16332   2.684  -0.124  10.012  0.6520 -0.4241  0.6745
  148SAPE   C2316333   2.959   0.284   9.919  0.6369 -0.1923 -0.3092
  148SAPE   H3R16334   2.879   0.361   9.913  2.1950  1.5664  0.7552
  148SAPE   H3S16335   2.903   0.189   9.928 -0.7993  0.6044 -0.7603
  148SAPE   C2416336   3.044   0.302   9.790 -0.0106  1.2806  0.4068
  148SAPE   H4R16337   3.108   0.392   9.802 -1.0536  2.1306 -0.2235
  148SAPE   H4S16338   2.975   0.321   9.705  0.0516  1.7576  0.4632
  148SAPE   C2516339   3.128   0.185   9.766 -0.3463  0.4938 -0.2787
  148SAPE   H5R16340   3.140   0.111   9.847 -0.4283 -1.0391 -1.6319
  148SAPE   C2616341   3.180   0.151   9.645 -0.2146  0.3740 -0.6639
  148SAPE   H6R16342   3.250   0.066   9.637 -0.7799  0.1021 -3.0705
  148SAPE   C2716343   3.170   0.229   9.511  0.2780  0.1298  0.4800
  148SAPE   H7R16344   3.259   0.200   9.451  1.5015  1.7628  1.4782
  148SAPE   H7S16345   3.173   0.339   9.527 -0.8611  0.2886 -0.3301
  148SAPE   C2816346   3.033   0.185   9.449 -0.3107 -0.4524 -0.2016
  148SAPE   H8R16347   2.947   0.176   9.517 -1.2275  0.2874 -1.2468
  148SAPE   C2916348   3.012   0.156   9.318  0.0902  0.9168  0.2770
  148SAPE   H9R16349   2.914   0.119   9.284  1.1099  0.8242 -2.7395
  148SAPE  C21016350   3.107   0.163   9.197 -0.4888  0.1258 -0.3202
  148SAPE  H10R16351   3.060   0.126   9.104 -0.6418  0.5259 -0.4042
  148SAPE  H10S16352   3.202   0.108   9.213 -0.4870  0.3138  0.3558
  148SAPE  C21116353   3.147   0.309   9.165  0.0467 -0.6002 -0.4869
  148SAPE  H11R16354   3.159   0.390   9.239 -2.4750 -0.0248 -0.6845
  148SAPE  C21216355   3.162   0.356   9.041 -0.0691 -0.4215 -0.1277
  148SAPE  H12R16356   3.210   0.455   9.036 -1.7909  0.4232 -0.3027
  148SAPE  C21316357   3.136   0.289   8.905 -0.2028 -0.0685  0.6038
  148SAPE  H13R16358   3.092   0.363   8.835  0.1644  0.4241  0.8855
  148SAPE  H13S16359   3.056   0.214   8.920 -0.6239  0.2104 -0.2088
  148SAPE  C21416360   3.266   0.239   8.853 -0.1368  0.1245  0.2222
  148SAPE  H14R16361   3.354   0.271   8.912 -0.7244  0.7599  0.7670
  148SAPE  C21516362   3.282   0.155   8.750 -0.7582  0.6098  0.2502
  148SAPE  H15R16363   3.385   0.125   8.725 -1.9638 -2.7101 -1.0456
  148SAPE  C21616364   3.180   0.097   8.657  0.3028  0.2610 -0.1593
  148SAPE  H16R16365   3.076   0.125   8.682  0.1695 -0.1290 -0.2751
  148SAPE  H16S16366   3.174  -0.014   8.649 -4.9032  0.3310  1.1368
  148SAPE  C21716367   3.215   0.142   8.514  0.4605  0.8525  0.1498
  148SAPE  H17R16368   3.135   0.099   8.450 -0.4890  0.5596  1.5233
  148SAPE  H17S16369   3.308   0.084   8.496 -0.5484 -0.2622 -1.6328
  148SAPE  C21816370   3.231   0.294   8.490  0.3436  0.1504 -0.4527
  148SAPE  H18R16371   3.273   0.302   8.388  1.1778  0.8437 -0.0563
  148SAPE  H18S16372   3.305   0.332   8.564  1.0949  1.3422 -1.8046
  148SAPE  C21916373   3.099   0.375   8.516 -0.4524 -0.0151  0.5298
  148SAPE  H19R16374   3.074   0.349   8.620 -0.1893  0.2936  0.6722
  148SAPE  H19S16375   3.015   0.338   8.453  1.5808 -0.2592 -2.1367
  148SAPE  C22016376   3.126   0.520   8.491  0.1769  0.7263 -0.0727
  148SAPE  H20R16377   3.172   0.533   8.391 -1.2127  3.0701 -0.4239
  148SAPE  H20S16378   3.205   0.559   8.560  0.4159 -0.7055  0.4881
  148SAPE  H20T16379   3.030   0.575   8.495  0.6626  1.5338  0.5144
  148SAPE   C3316380   2.581   0.069   9.992 -0.0698  0.0030 -1.0511
  148SAPE   H3X16381   2.673   0.124   9.961 -0.1136 -0.3181 -1.7663
  148SAPE   H3Y16382   2.533   0.142  10.060 -0.7977  0.0721 -1.6390
  148SAPE   C3416383   2.480   0.043   9.879 -0.5284 -0.1320 -0.0030
  148SAPE   H4X16384   2.455   0.146   9.844  0.8386 -0.0673 -0.8336
  148SAPE   H4Y16385   2.385   0.002   9.918  0.0740 -1.8454 -0.2804
  148SAPE   C3516386   2.529  -0.052   9.775 -0.6482  0.8806  0.1663
  148SAPE   H5X16387   2.517  -0.156   9.813 -0.0202  1.3079  1.5544
  148SAPE   H5Y16388   2.637  -0.026   9.761 -0.4730 -1.1950 -2.8740
  148SAPE   C3616389   2.450  -0.044   9.645  0.2243  0.5529  0.6336
  148SAPE   H6X16390   2.459   0.062   9.616  1.5184  0.4271  0.5423
  148SAPE   H6Y16391   2.344  -0.072   9.665  0.4940 -0.6685  0.4295
  148SAPE   C3716392   2.500  -0.127   9.520 -0.2926 -0.0695 -0.1134
  148SAPE   H7X16393   2.464  -0.232   9.529 -0.7382  0.1445  0.7121
  148SAPE   H7Y16394   2.610  -0.119   9.517 -0.3072  0.1532 -0.0329
  148SAPE   C3816395   2.442  -0.071   9.388 -0.4052  0.0518 -0.0138
  148SAPE   H8X16396   2.434   0.040   9.385  1.0303  0.1413 -1.0338
  148SAPE   H8Y16397   2.339  -0.112   9.388  0.3455 -1.9731  2.9775
  148SAPE   C3916398   2.514  -0.126   9.264 -0.0108  0.5383  0.2992
  148SAPE   H9X16399   2.540  -0.231   9.287  1.3773  0.7391 -0.2798
  148SAPE   H9Y16400   2.612  -0.077   9.244 -0.1616  0.9662  0.6025
  148SAPE  C31016401   2.420  -0.137   9.144 -0.4479 -0.3206  0.2676
  148SAPE  H10X16402   2.404  -0.034   9.105 -0.7531 -0.2030  0.7066
  148SAPE  H10Y16403   2.328  -0.189   9.179 -0.6481  0.1724  0.4653
  148SAPE  C31116404   2.487  -0.219   9.036  0.0212  0.4186  0.2248
  148SAPE  H11X16405   2.519  -0.317   9.078 -0.1149 -0.4961 -1.7084
  148SAPE  H11Y16406   2.573  -0.161   8.997  0.9918 -1.4345 -0.4924
  148SAPE  C31216407   2.399  -0.249   8.914 -0.2264  1.0631  0.2713
  148SAPE  H12X16408   2.362  -0.149   8.882 -0.0880  0.7221 -0.9756
  148SAPE  H12Y16409   2.312  -0.304   8.954 -0.4007  0.4008 -0.9917
  148SAPE  C31316410   2.467  -0.327   8.797  0.4102 -0.2998 -0.5980
  148SAPE  H13X16411   2.482  -0.432   8.831 -1.8862 -0.1667  0.8885
  148SAPE  H13Y16412   2.566  -0.286   8.769  0.8636 -1.5709 -0.8647
  148SAPE  C31416413   2.385  -0.347   8.663  0.1090  0.7913 -0.3434
  148SAPE  H14X16414   2.334  -0.249   8.653 -2.3303 -0.5624 -1.8477
  148SAPE  H14Y16415   2.312  -0.429   8.682  1.6664 -0.2025  1.5332
  148SAPE  C31516416   2.480  -0.378   8.547  0.0065 -0.2255  0.0769
  148SAPE  H15X16417   2.560  -0.454   8.562  1.5023  1.4689  0.8450
  148SAPE  H15Y16418   2.537  -0.286   8.523  1.1795 -1.3356 -1.4927
  148SAPE  C31616419   2.400  -0.428   8.422  0.5205  0.3476 -0.5297
  148SAPE  H16X16420   2.295  -0.398   8.437  0.8090  1.8499 -1.4436
  148SAPE  H16Y16421   2.402  -0.539   8.424  0.4008  0.3669  2.6702
  148SAPE  C31716422   2.437  -0.362   8.286  0.3351 -0.1966  0.4803
  148SAPE  H17X16423   2.452  -0.255   8.311 -0.6929 -0.9172  4.6592
  148SAPE  H17Y16424   2.343  -0.366   8.228  0.0341 -0.7084  0.9893
  148SAPE  C31816425   2.558  -0.429   8.216  0.2466  0.3672 -0.1816
  148SAPE  H18X16426   2.570  -0.382   8.116  0.4809  3.5322  1.2567
  148SAPE  H18Y16427   2.535  -0.532   8.181  0.7533  0.3152 -0.3556
  148SAPE  H18Z16428   2.651  -0.418   8.275 -0.7314  1.4310  1.2060
  149SAPE     N16429   5.828   2.487  11.186  0.1843  0.5907  0.2013
  149SAPE   HN116430   5.807   2.398  11.236 -1.3502  0.5413 -0.4935
  149SAPE   HN216431   5.931   2.500  11.180  0.2773  0.2663  0.9966
  149SAPE   HN316432   5.784   2.564  11.238  0.8609  1.8375 -1.0411
  149SAPE   C1216433   5.750   2.493  11.057  0.5836 -0.0150  0.7401
  149SAPE  H12A16434   5.814   2.502  10.966 -0.9814 -2.2498 -0.6378
  149SAPE  H12B16435   5.700   2.592  11.054  2.6572  1.0905  1.5812
  149SAPE   C1116436   5.658   2.375  11.041  0.5867  0.5189  0.3660
  149SAPE  H11A16437   5.581   2.390  10.963 -0.0240  0.8870  1.0395
  149SAPE  H11B16438   5.606   2.371  11.140  1.5351  1.0991  0.8961
  149SAPE     P16439   5.661   2.122  11.005 -0.0115  0.0487  0.6138
  149SAPE   O1316440   5.755   2.014  11.001  0.0400  0.4316 -0.7065
  149SAPE   O1416441   5.557   2.112  11.105 -0.1685  0.2905  0.3636
  149SAPE   O1216442   5.746   2.259  11.022  0.1373  0.0019 -0.3901
  149SAPE   O1116443   5.586   2.147  10.860 -0.0522  0.3858  0.3197
  149SAPE    C116444   5.673   2.157  10.750  0.0077  0.0348  0.0480
  149SAPE    HA16445   5.698   2.264  10.736  3.7249 -0.5174  1.8428
  149SAPE    HB16446   5.769   2.103  10.760  0.2117  0.3192 -0.3871
  149SAPE    C216447   5.607   2.106  10.619 -0.1694 -0.7336  0.7632
  149SAPE    HS16448   5.688   2.108  10.543 -0.6357 -0.2751  0.2711
  149SAPE   O2116449   5.499   2.197  10.585  0.4989  0.1991  0.0156
  149SAPE   C2116450   5.529   2.311  10.532  0.4315  0.3720  0.0206
  149SAPE   O2216451   5.642   2.340  10.494 -0.2450 -0.3193  0.5585
  149SAPE   C2216452   5.408   2.406  10.528 -0.2619 -0.4259  0.2246
  149SAPE   H2R16453   5.346   2.389  10.619 -0.5128  1.5794  0.4486
  149SAPE   H2S16454   5.450   2.503  10.561 -2.3751  0.2459  1.0393
  149SAPE    C316455   5.565   1.956  10.630  0.5684  0.6719  0.4714
  149SAPE    HX16456   5.471   1.957  10.689  1.2806 -1.7596  1.6933
  149SAPE    HY16457   5.641   1.896  10.683  1.7582 -0.0122 -1.9358
  149SAPE   O3116458   5.553   1.892  10.498 -0.1009  0.1453 -0.4099
  149SAPE   C3116459   5.460   1.808  10.483  0.3486  0.0227  0.3432
  149SAPE   O3216460   5.390   1.765  10.576 -0.0945  0.1496 -0.3334
  149SAPE   C3216461   5.451   1.775  10.337  0.0127 -0.0022 -0.5309
  149SAPE   H2X16462   5.529   1.836  10.286 -1.6197 -0.4151 -3.6192
  149SAPE   H2Y16463   5.359   1.815  10.290 -1.3468 -1.3831  0.8800
  149SAPE   C2316464   5.337   2.419  10.393 -0.0727  0.2990 -0.1973
  149SAPE   H3R16465   5.396   2.472  10.315  0.6132 -2.4713 -1.6111
  149SAPE   H3S16466   5.249   2.484  10.414 -1.6954 -1.9403  0.1947
  149SAPE   C2416467   5.282   2.284  10.351 -0.2629 -0.2895 -0.3261
  149SAPE   H4R16468   5.198   2.267  10.422 -1.2028 -1.7602 -1.7638
  149SAPE   H4S16469   5.362   2.208  10.358  0.5374  0.7173  2.0340
  149SAPE   C2516470   5.235   2.287  10.209  0.2896 -0.1880  0.0657
  149SAPE   H5R16471   5.162   2.362  10.176 -1.6330 -2.1196 -0.1233
  149SAPE   C2616472   5.278   2.209  10.109 -0.0971 -0.0660  0.1976
  149SAPE   H6R16473   5.232   2.224  10.010 -0.1656  1.2027  0.4204
  149SAPE   C2716474   5.371   2.093  10.119 -0.2608  0.4421  0.6128
  149SAPE   H7R16475   5.368   2.057  10.224 -1.0607  2.8077  1.4394
  149SAPE   H7S16476   5.474   2.134  10.107 -0.3206  0.9414  1.7387
  149SAPE   C2816477   5.355   1.967  10.035  0.1628  0.4837 -0.0761
  149SAPE   H8R16478   5.285   1.895  10.078 -0.4948  0.3921 -1.2719
  149SAPE   C2916479   5.425   1.944   9.921  0.3639 -0.0887  0.1602
  149SAPE   H9R16480   5.425   1.844   9.875  1.5317 -0.4218  0.8545
  149SAPE  C21016481   5.519   2.046   9.860  0.6176 -0.0188  0.0651
  149SAPE  H10R16482   5.507   2.147   9.903  1.1249  0.2991 -0.5305
  149SAPE  H10S16483   5.497   2.048   9.751 -1.6794  1.4496  0.5176
  149SAPE  C21116484   5.663   1.999   9.882 -0.2992  0.1817  0.4273
  149SAPE  H11R16485   5.686   1.987   9.989 -1.6109 -2.7784  0.4309
  149SAPE  C21216486   5.758   1.960   9.795  0.2075 -0.5063 -0.0046
  149SAPE  H12R16487   5.856   1.926   9.830  0.5112  0.1524 -0.2112
  149SAPE  C21316488   5.724   1.957   9.647  0.2256 -0.6982 -0.1213
  149SAPE  H13R16489   5.635   1.892   9.631 -1.0197  0.3529  2.2337
  149SAPE  H13S16490   5.810   1.902   9.604  0.3468 -0.4645 -0.1785
  149SAPE  C21416491   5.724   2.097   9.576 -0.4371  0.3012 -0.0196
  149SAPE  H14R16492   5.711   2.184   9.641  0.3074  1.4960 -1.4408
  149SAPE  C21516493   5.749   2.126   9.444  0.0618 -0.3934  0.4166
  149SAPE  H15R16494   5.744   2.230   9.409  0.8527 -1.0901 -1.8695
  149SAPE  C21616495   5.783   2.027   9.334  0.4333  0.1057  0.1894
  149SAPE  H16R16496   5.820   1.928   9.369  2.0350  0.6151 -0.0460
  149SAPE  H16S16497   5.861   2.068   9.267 -1.2254 -0.5832 -2.2061
  149SAPE  C21716498   5.668   1.994   9.235 -0.0075 -0.1686  0.3146
  149SAPE  H17R16499   5.649   2.079   9.166  2.4886 -0.6262 -1.0010
  149SAPE  H17S16500   5.585   1.962   9.301  0.5068 -0.7042  0.7022
  149SAPE  C21816501   5.706   1.874   9.146 -0.7823  0.6124  0.3720
  149SAPE  H18R16502   5.748   1.790   9.205 -1.9413  0.0720  0.4404
  149SAPE  H18S16503   5.790   1.908   9.080 -2.0058  1.4810 -0.7672
  149SAPE  C21916504   5.588   1.839   9.046  0.3994  0.2920 -0.4240
  149SAPE  H19R16505   5.564   1.937   9.000  0.0950  0.5444  0.2730
  149SAPE  H19S16506   5.496   1.799   9.094  1.6302  0.3194  2.0369
  149SAPE  C22016507   5.632   1.744   8.931 -0.0980  0.3017  0.0672
  149SAPE  H20R16508   5.551   1.745   8.855  0.0832 -0.6775 -0.1434
  149SAPE  H20S16509   5.637   1.639   8.966 -1.0811 -0.8830 -3.1923
  149SAPE  H20T16510   5.731   1.774   8.891 -0.0442  1.6503  1.1374
  149SAPE   C3316511   5.470   1.628  10.309  0.9152  0.0612  0.2627
  149SAPE   H3X16512   5.372   1.576  10.304 -0.1953  2.2766 -2.6772
  149SAPE   H3Y16513   5.522   1.572  10.389 -2.0881  0.0303  2.2664
  149SAPE   C3416514   5.545   1.609  10.176 -0.0415 -0.2282  0.0901
  149SAPE   H4X16515   5.651   1.625  10.206 -0.4857  0.2312  1.4348
  149SAPE   H4Y16516   5.510   1.673  10.092  0.7107 -2.3991 -1.9449
  149SAPE   C3516517   5.541   1.467  10.113 -0.2899 -0.1069  0.2347
  149SAPE   H5X16518   5.437   1.431  10.098 -0.8514 -0.3434  4.0608
  149SAPE   H5Y16519   5.585   1.390  10.180  0.8935  0.9932  0.7401
  149SAPE   C3616520   5.622   1.446   9.984 -0.3748 -0.4074 -0.2340
  149SAPE   H6X16521   5.638   1.337   9.975  2.1790 -0.2229  1.6390
  149SAPE   H6Y16522   5.721   1.493   9.998 -0.7382  0.9692 -2.0346
  149SAPE   C3716523   5.555   1.502   9.864 -0.7941  0.3124  0.4671
  149SAPE   H7X16524   5.531   1.609   9.885 -0.9707  0.2703  0.4781
  149SAPE   H7Y16525   5.462   1.445   9.844 -1.6095  1.2495  1.4911
  149SAPE   C3816526   5.629   1.491   9.719  0.5779 -0.0175 -0.7974
  149SAPE   H8X16527   5.636   1.382   9.701  0.2294 -0.2820  0.5626
  149SAPE   H8Y16528   5.733   1.525   9.741  1.0028 -2.0247  0.4171
  149SAPE   C3916529   5.559   1.566   9.604  0.0337 -0.2578 -0.2317
  149SAPE   H9X16530   5.636   1.588   9.527 -0.2127 -1.8253 -0.9503
  149SAPE   H9Y16531   5.538   1.667   9.646  0.2822 -0.0801 -0.5383
  149SAPE  C31016532   5.445   1.489   9.548  0.6035  1.1320 -0.0145
  149SAPE  H10X16533   5.384   1.468   9.639 -1.0516  2.0774 -0.8851
  149SAPE  H10Y16534   5.488   1.396   9.505  0.2276 -0.9150  3.8131
  149SAPE  C31116535   5.363   1.548   9.433 -0.5143  0.0627 -0.6220
  149SAPE  H11X16536   5.300   1.633   9.466  0.8777  0.2954  1.5211
  149SAPE  H11Y16537   5.302   1.461   9.402  1.5427 -1.8426  0.5235
  149SAPE  C31216538   5.443   1.607   9.305  0.7121 -0.2922 -0.4521
  149SAPE  H12X16539   5.486   1.702   9.344 -0.7081 -0.5521  1.8751
  149SAPE  H12Y16540   5.368   1.616   9.224  2.6346  3.2445 -1.9570
  149SAPE  C31316541   5.545   1.515   9.265  0.6197  0.0378  0.4531
  149SAPE  H13X16542   5.601   1.476   9.352 -1.0458  2.2862  2.6100
  149SAPE  H13Y16543   5.602   1.568   9.185 -0.1197 -0.7622 -0.6267
  149SAPE  C31416544   5.479   1.401   9.176 -0.1292 -0.4781  0.3098
  149SAPE  H14X16545   5.399   1.440   9.110  0.7590  1.8117  0.5554
  149SAPE  H14Y16546   5.433   1.322   9.240  0.3156 -0.3925  0.7347
  149SAPE  C31516547   5.580   1.329   9.089  0.3771  0.5939 -0.3552
  149SAPE  H15X16548   5.636   1.250   9.145 -0.1821  1.1721  1.0159
  149SAPE  H15Y16549   5.660   1.396   9.049 -1.1403  0.9008 -2.9885
  149SAPE  C31616550   5.515   1.249   8.969  0.7414 -1.0272 -0.3353
  149SAPE  H16X16551   5.465   1.321   8.900  1.4720  1.8698  2.0348
  149SAPE  H16Y16552   5.435   1.183   9.008 -1.1515  0.3711 -1.7497
  149SAPE  C31716553   5.615   1.166   8.892  0.1779  0.1796  0.1837
  149SAPE  H17X16554   5.691   1.121   8.959 -0.4567 -0.9031  0.1910
  149SAPE  H17Y16555   5.672   1.219   8.813 -2.5441  1.3019 -1.1070
  149SAPE  C31816556   5.542   1.049   8.818  0.3609  0.5599  0.3355
  149SAPE  H18X16557   5.487   1.087   8.730  2.4103  1.1782 -0.7156
  149SAPE  H18Y16558   5.484   0.990   8.893 -1.7787 -0.6961 -2.2332
  149SAPE  H18Z16559   5.609   0.980   8.762 -0.9221  0.2933 -0.8846
  150SAPE     N16560   0.331   1.514  10.738 -0.2197 -0.3478 -0.1902
  150SAPE   HN116561   0.295   1.591  10.678 -1.3476 -0.1520  0.7014
  150SAPE   HN216562   0.325   1.425  10.684 -2.1716  0.3057 -1.1059
  150SAPE   HN316563   0.272   1.482  10.818  0.8574 -1.8571  0.0165
  150SAPE   C1216564   0.469   1.542  10.774  0.0458  0.0551  0.1967
  150SAPE  H12A16565   0.477   1.649  10.802 -0.1870 -0.2767  1.5534
  150SAPE  H12B16566   0.542   1.534  10.690  0.4257  1.4604  0.3811
  150SAPE   C1116567   0.519   1.451  10.885  1.0137 -0.0554 -0.2964
  150SAPE  H11A16568   0.454   1.461  10.975 -0.6730  0.6258 -1.5505
  150SAPE  H11B16569   0.622   1.481  10.915  1.1536  0.5882 -1.3563
  150SAPE     P16570   0.582   1.197  10.909  0.5849 -0.0210  0.0894
  150SAPE   O1316571   0.726   1.217  10.922  0.0644 -0.0201  0.2736
  150SAPE   O1416572   0.496   1.175  11.034 -0.5098  0.6435  0.1852
  150SAPE   O1216573   0.519   1.320  10.830  0.2966  0.4089  0.1221
  150SAPE   O1116574   0.557   1.076  10.820 -0.3130  0.5144  0.4061
  150SAPE    C116575   0.426   1.055  10.764 -0.3774  0.2279  0.0203
  150SAPE    HA16576   0.386   0.953  10.781 -0.1920  0.2369  0.5234
  150SAPE    HB16577   0.349   1.126  10.803  0.5749  2.0655 -1.3266
  150SAPE    C216578   0.422   1.072  10.604 -0.6076  0.1905 -0.3516
  150SAPE    HS16579   0.461   1.174  10.582 -1.2185  0.7542  1.1122
  150SAPE   O2116580   0.289   1.064  10.558  0.0228 -0.0950  0.0020
  150SAPE   C2116581   0.215   1.168  10.585 -0.2110 -0.0374 -0.3033
  150SAPE   O2216582   0.263   1.279  10.621 -0.0496 -0.0095 -0.4476
  150SAPE   C2216583   0.074   1.133  10.545  0.2932  0.4424 -0.7549
  150SAPE   H2R16584   0.084   1.063  10.459  0.9573  2.3528 -2.2889
  150SAPE   H2S16585   0.024   1.070  10.621  2.5928  0.7469  1.0819
  150SAPE    C316586   0.518   0.975  10.525 -0.1583 -0.1760  0.1833
  150SAPE    HX16587   0.480   0.871  10.526  1.3893 -0.7836 -1.8218
  150SAPE    HY16588   0.610   0.968  10.588  0.3237 -0.6157 -0.5515
  150SAPE   O3116589   0.543   1.030  10.393 -0.2983  0.9886  0.0474
  150SAPE   C3116590   0.505   0.954  10.293  1.1023 -0.6440 -0.2358
  150SAPE   O3216591   0.449   0.848  10.301 -0.1998 -0.3464  0.1113
  150SAPE   C3216592   0.558   1.017  10.164  0.0821  0.1969  0.9171
  150SAPE   H2X16593   0.661   1.057  10.176  0.1117  0.9063 -1.4237
  150SAPE   H2Y16594   0.501   1.110  10.141  0.2057 -0.1285 -0.7642
  150SAPE   C2316595  -0.008   1.267  10.532  0.4099 -0.7940 -0.2037
  150SAPE   H3R16596   0.022   1.322  10.440  1.1755 -0.6342  0.1353
  150SAPE   H3S16597   0.009   1.329  10.622  0.3340 -1.4349  0.2520
  150SAPE   C2416598  -0.164   1.248  10.534  0.0659 -0.1491  0.1365
  150SAPE   H4R16599  -0.209   1.348  10.513 -3.2239 -1.0650  2.4266
  150SAPE   H4S16600  -0.199   1.228  10.637 -0.3606  1.8613  0.4059
  150SAPE   C2516601  -0.227   1.154  10.430  0.6163  0.8465 -0.5133
  150SAPE   H5R16602  -0.272   1.063  10.471  0.4542  0.9576 -0.4453
  150SAPE   C2616603  -0.263   1.181  10.303  0.5720 -0.0117  0.1911
  150SAPE   H6R16604  -0.308   1.103  10.240  0.1589  1.8150 -1.8280
  150SAPE   C2716605  -0.245   1.310  10.227 -0.6465  0.7293  0.1968
  150SAPE   H7R16606  -0.169   1.292  10.148  1.2073  0.8775  1.8969
  150SAPE   H7S16607  -0.193   1.380  10.296  1.2594  0.5727 -1.0490
  150SAPE   C2816608  -0.377   1.372  10.174 -1.1695 -0.6403 -0.7309
  150SAPE   H8R16609  -0.471   1.361  10.230 -0.7161  2.3966  0.7149
  150SAPE   C2916610  -0.389   1.428  10.050 -0.9652 -0.7247 -0.2650
  150SAPE   H9R16611  -0.487   1.474  10.030 -1.7082 -2.3925 -0.5348
  150SAPE  C21016612  -0.281   1.453   9.941 -0.0209 -0.0832  0.3510
  150SAPE  H10R16613  -0.243   1.354   9.907 -0.8194 -0.4964  0.6494
  150SAPE  H10S16614  -0.187   1.495   9.983 -0.5670 -0.5383  2.0936
  150SAPE  C21116615  -0.323   1.541   9.826  0.1984  0.4246  0.2884
  150SAPE  H11R16616  -0.303   1.649   9.836 -1.8465  0.9183 -0.6013
  150SAPE  C21216617  -0.368   1.496   9.707 -0.1952 -0.2439 -0.2490
  150SAPE  H12R16618  -0.407   1.571   9.636  0.7052  1.3087  0.8773
  150SAPE  C21316619  -0.398   1.353   9.662  0.3845 -0.0767 -0.1886
  150SAPE  H13R16620  -0.445   1.295   9.744 -2.2057 -1.3357 -2.4862
  150SAPE  H13S16621  -0.306   1.292   9.645  0.5237 -0.0579  0.4791
  150SAPE  C21416622  -0.484   1.340   9.543  1.1051 -0.1886 -0.6488
  150SAPE  H14R16623  -0.590   1.330   9.571  1.1346  2.1913  0.4374
  150SAPE  C21516624  -0.427   1.350   9.420 -1.0498  0.3595  0.2995
  150SAPE  H15R16625  -0.483   1.339   9.326  0.4910 -1.0636 -0.4821
  150SAPE  C21616626  -0.283   1.385   9.386  0.2219  0.3233  0.2318
  150SAPE  H16R16627  -0.239   1.286   9.362  1.0096 -0.4564  4.5339
  150SAPE  H16S16628  -0.223   1.421   9.472  2.1043  0.4711 -1.1284
  150SAPE  C21716629  -0.279   1.472   9.261 -0.4258 -0.3393 -0.2293
  150SAPE  H17R16630  -0.186   1.532   9.267  1.3003 -3.1428  2.3248
  150SAPE  H17S16631  -0.359   1.550   9.266 -0.6445 -0.4807 -1.5876
  150SAPE  C21816632  -0.281   1.390   9.126 -0.0537  0.2895 -0.4617
  150SAPE  H18R16633  -0.376   1.333   9.116 -0.7833  1.5122 -0.5965
  150SAPE  H18S16634  -0.202   1.313   9.142 -1.6573 -0.9931  1.7219
  150SAPE  C21916635  -0.250   1.472   8.997  0.0975  0.8249  0.0758
  150SAPE  H19R16636  -0.156   1.526   9.020  1.0302  0.9785 -3.8281
  150SAPE  H19S16637  -0.330   1.547   8.980  0.5798  1.0719 -1.1577
  150SAPE  C22016638  -0.249   1.383   8.874 -0.9175  0.0928  0.7974
  150SAPE  H20R16639  -0.193   1.288   8.887 -1.7913 -0.8899 -2.2498
  150SAPE  H20S16640  -0.201   1.438   8.790  1.0252 -3.2776 -0.4339
  150SAPE  H20T16641  -0.355   1.361   8.849 -0.3975 -0.3333 -1.1561
  150SAPE   C3316642   0.547   0.927  10.040 -0.3418 -0.6161 -0.0665
  150SAPE   H3X16643   0.446   0.889  10.013 -0.6975 -1.6000  2.5447
  150SAPE   H3Y16644   0.602   0.831  10.055  1.1074  0.0215 -1.1534
  150SAPE   C3416645   0.597   0.994   9.911  0.6962  0.3219 -0.2423
  150SAPE   H4X16646   0.603   0.909   9.839 -1.1701 -0.3586  0.3701
  150SAPE   H4Y16647   0.701   1.029   9.930  1.1156  0.5906 -2.8232
  150SAPE   C3516648   0.505   1.101   9.854  0.3707 -0.1953 -0.1472
  150SAPE   H5X16649   0.507   1.190   9.920 -1.9166  0.0554 -0.3771
  150SAPE   H5Y16650   0.398   1.070   9.861 -0.5252  2.2494 -2.2999
  150SAPE   C3616651   0.546   1.146   9.712  0.3504  0.3003 -0.4745
  150SAPE   H6X16652   0.655   1.126   9.709  0.2215 -0.8861  1.7150
  150SAPE   H6Y16653   0.527   1.256   9.710 -1.7254  0.0165  1.2130
  150SAPE   C3716654   0.473   1.067   9.601 -0.2854 -0.3387 -0.5554
  150SAPE   H7X16655   0.365   1.091   9.597 -0.0239  0.9939 -0.1288
  150SAPE   H7Y16656   0.470   0.962   9.638 -1.8415 -0.8808 -2.1710
  150SAPE   C3816657   0.531   1.079   9.463 -0.2962 -0.5388  0.9596
  150SAPE   H8X16658   0.530   1.189   9.449 -1.6698 -0.5186  1.1365
  150SAPE   H8Y16659   0.480   1.024   9.381  0.3153 -0.1450  0.3085
  150SAPE   C3916660   0.684   1.046   9.443 -0.7742  0.4599  0.5315
  150SAPE   H9X16661   0.739   1.121   9.503 -0.2730 -1.5371  2.6895
  150SAPE   H9Y16662   0.702   1.053   9.334 -0.8052 -1.6720  0.3573
  150SAPE  C31016663   0.725   0.908   9.505  0.4398 -1.0863  0.1681
  150SAPE  H10X16664   0.641   0.844   9.470 -0.1473 -0.4930  0.4782
  150SAPE  H10Y16665   0.712   0.901   9.615  1.1594  1.9652  0.5002
  150SAPE  C31116666   0.858   0.860   9.445 -0.4693  0.3466  0.4323
  150SAPE  H11X16667   0.862   0.760   9.494 -2.5534 -0.4273 -0.9452
  150SAPE  H11Y16668   0.942   0.921   9.485 -1.2266  0.8113  1.3067
  150SAPE  C31216669   0.872   0.838   9.296  0.2197  0.0833 -0.1763
  150SAPE  H12X16670   0.868   0.933   9.239 -1.7745 -1.0104 -1.9183
  150SAPE  H12Y16671   0.781   0.785   9.261  0.1285 -0.0895  0.3124
  150SAPE  C31316672   0.998   0.755   9.266 -0.0713 -0.3689  0.6351
  150SAPE  H13X16673   0.990   0.661   9.325 -0.0012  1.1160  3.0541
  150SAPE  H13Y16674   1.093   0.807   9.293 -0.4275  0.1859  0.8077
  150SAPE  C31416675   1.010   0.715   9.118  0.3425  0.3747  0.2051
  150SAPE  H14X16676   0.921   0.668   9.072  1.3384 -0.6155 -0.7328
  150SAPE  H14Y16677   1.079   0.628   9.120  0.5271  0.5205  0.1735
  150SAPE  C31516678   1.076   0.816   9.020  0.3334  1.1045  0.5256
  150SAPE  H15X16679   1.177   0.852   9.049  1.8717 -1.5808 -1.2599
  150SAPE  H15Y16680   1.004   0.898   8.998 -0.4717  0.6736  1.5352
  150SAPE  C31616681   1.101   0.740   8.888  0.4350 -0.0021 -0.3745
  150SAPE  H16X16682   1.002   0.719   8.843  0.2010 -1.2311  0.6996
  150SAPE  H16Y16683   1.148   0.642   8.910  1.2299  0.7210  1.2622
  150SAPE  C31716684   1.185   0.822   8.790 -0.0101 -0.3258  0.2946
  150SAPE  H17X16685   1.269   0.760   8.754 -1.2284 -2.2520  0.6743
  150SAPE  H17Y16686   1.201   0.923   8.832  1.0524 -0.8367  1.1308
  150SAPE  C31816687   1.108   0.840   8.661 -0.4787  0.3502 -0.0686
  150SAPE  H18X16688   1.072   0.741   8.627  3.1527 -0.9598 -0.2577
  150SAPE  H18Y16689   1.167   0.885   8.578 -2.5722  1.7387 -0.8382
  150SAPE  H18Z16690   1.016   0.900   8.678  0.0184  0.9925  0.3969
  151SAPE     N16691   4.498   5.188  10.618 -0.1317  0.0301  0.0746
  151SAPE   HN116692   4.491   5.247  10.704 -0.3250  2.1657 -1.3700
  151SAPE   HN216693   4.423   5.117  10.627 -1.5932  1.3061 -1.7399
  151SAPE   HN316694   4.591   5.142  10.620 -0.6896 -1.0676  2.1675
  151SAPE   C1216695   4.482   5.279  10.497  0.8560 -0.6880  0.1450
  151SAPE  H12A16696   4.375   5.278  10.466  0.7765 -0.5857  0.4108
  151SAPE  H12B16697   4.541   5.230  10.417 -2.4392 -0.8011 -2.3414
  151SAPE   C1116698   4.536   5.425  10.532  0.0324 -0.1686 -0.5439
  151SAPE  H11A16699   4.467   5.452  10.615 -0.1223  0.3236 -0.8353
  151SAPE  H11B16700   4.496   5.498  10.459  0.2005  1.9241  1.4013
  151SAPE     P16701   4.788   5.416  10.454 -0.1291 -0.0417 -0.3848
  151SAPE   O1316702   4.829   5.543  10.401 -0.6272 -0.3350 -0.3392
  151SAPE   O1416703   4.891   5.335  10.516  0.0050  0.2116 -0.2478
  151SAPE   O1216704   4.676   5.441  10.564  0.2293 -0.0553 -0.1120
  151SAPE   O1116705   4.728   5.319  10.350  0.0235  0.1236  0.5012
  151SAPE    C116706   4.801   5.301  10.225 -0.3972 -0.3162  0.0470
  151SAPE    HA16707   4.910   5.315  10.238 -0.0716 -3.1804  0.8025
  151SAPE    HB16708   4.785   5.198  10.186 -0.6517 -0.3647  0.2785
  151SAPE    C216709   4.749   5.378  10.107 -0.8112  0.5843 -0.0203
  151SAPE    HS16710   4.754   5.485  10.134  1.4800  0.9276 -1.6140
  151SAPE   O2116711   4.619   5.328  10.074 -0.4858  0.2238  0.3324
  151SAPE   C2116712   4.536   5.422  10.055  0.4266 -0.2326  0.6442
  151SAPE   O2216713   4.550   5.540  10.072  0.0720  0.2094  0.5327
  151SAPE   C2216714   4.422   5.366   9.977  0.1399  0.1530  0.1836
  151SAPE   H2R16715   4.468   5.302   9.899  0.9243  1.7120 -0.6464
  151SAPE   H2S16716   4.372   5.298  10.049 -0.4511  0.2016 -0.1743
  151SAPE    C316717   4.835   5.354   9.979 -0.2921 -0.1305  0.1543
  151SAPE    HX16718   4.827   5.248   9.944  0.0723  0.2274 -1.0551
  151SAPE    HY16719   4.941   5.379   9.997 -0.4226  0.4787  0.0738
  151SAPE   O3116720   4.788   5.442   9.871 -0.2474  0.8625 -0.2483
  151SAPE   C3116721   4.854   5.443   9.760 -0.1260 -0.4695 -0.3201
  151SAPE   O3216722   4.961   5.383   9.744  0.1057  0.1977  0.2048
  151SAPE   C3216723   4.775   5.526   9.661 -0.0533  0.6687 -0.6378
  151SAPE   H2X16724   4.756   5.627   9.703 -1.3862 -0.0726  0.5529
  151SAPE   H2Y16725   4.684   5.469   9.635  0.0074 -1.0864  2.7491
  151SAPE   C2316726   4.335   5.469   9.903  0.2364 -0.2067 -0.7493
  151SAPE   H3R16727   4.407   5.525   9.840 -0.3416  0.9584 -0.3848
  151SAPE   H3S16728   4.283   5.543   9.968 -0.7741 -1.5162 -0.0315
  151SAPE   C2416729   4.242   5.422   9.792  0.4608  0.3178 -0.3764
  151SAPE   H4R16730   4.196   5.515   9.754  1.2094  1.1586  0.7565
  151SAPE   H4S16731   4.157   5.365   9.835 -0.2285  0.1605 -1.9214
  151SAPE   C2516732   4.298   5.341   9.684  0.2691  0.1415  0.1159
  151SAPE   H5R16733   4.336   5.245   9.722  3.6439  0.7952 -1.4353
  151SAPE   C2616734   4.308   5.363   9.553  0.5666 -0.1490 -0.0310
  151SAPE   H6R16735   4.352   5.289   9.485  0.5682 -1.2347  1.1319
  151SAPE   C2716736   4.271   5.495   9.491  0.7437  0.1213  0.6529
  151SAPE   H7R16737   4.249   5.581   9.557  1.9273  0.6593  0.3600
  151SAPE   H7S16738   4.180   5.467   9.433  1.2324 -0.5891  0.2130
  151SAPE   C2816739   4.381   5.551   9.399  0.3034  0.6887  0.1956
  151SAPE   H8R16740   4.475   5.575   9.450  0.5287 -0.4579  0.3254
  151SAPE   C2916741   4.379   5.554   9.265 -0.0230  0.0936  0.3882
  151SAPE   H9R16742   4.470   5.595   9.219  0.3828 -0.4459  0.7061
  151SAPE  C21016743   4.268   5.513   9.171 -0.4983  0.0175  0.3336
  151SAPE  H10R16744   4.212   5.425   9.209  0.3591 -1.3175 -1.4321
  151SAPE  H10S16745   4.321   5.484   9.078  0.2786 -0.5345  0.9401
  151SAPE  C21116746   4.168   5.615   9.136 -0.0076 -0.4836  0.2311
  151SAPE  H11R16747   4.119   5.662   9.223  1.9759 -0.8780  1.5969
  151SAPE  C21216748   4.155   5.663   9.009  0.1016 -0.3207  0.3936
  151SAPE  H12R16749   4.074   5.734   8.991 -1.2361 -1.6695  0.9636
  151SAPE  C21316750   4.244   5.646   8.894 -1.0461 -0.0098  0.7334
  151SAPE  H13R16751   4.210   5.558   8.833 -1.8147  1.1879 -0.6132
  151SAPE  H13S16752   4.340   5.611   8.937 -2.8841 -3.1997  2.4195
  151SAPE  C21416753   4.266   5.779   8.827  0.1983  0.2622 -0.6550
  151SAPE  H14R16754   4.281   5.863   8.897 -0.4262 -0.0976 -0.0839
  151SAPE  C21516755   4.274   5.793   8.696 -0.5969 -0.1801  0.8254
  151SAPE  H15R16756   4.294   5.895   8.662 -0.7204 -0.0406  1.1714
  151SAPE  C21616757   4.251   5.693   8.581  0.2822 -0.0054 -0.1453
  151SAPE  H16R16758   4.299   5.594   8.597 -1.9721 -1.2221 -0.7559
  151SAPE  H16S16759   4.292   5.729   8.484 -2.7726 -0.9102 -1.8165
  151SAPE  C21716760   4.102   5.665   8.552 -0.4652 -0.3979 -1.4709
  151SAPE  H17R16761   4.046   5.693   8.644  1.6159 -4.2307  1.0909
  151SAPE  H17S16762   4.072   5.558   8.549 -1.5063 -0.1885  0.5539
  151SAPE  C21816763   4.052   5.724   8.418 -0.1568 -0.4360  0.5675
  151SAPE  H18R16764   4.127   5.698   8.340  1.8216  2.4043  1.4189
  151SAPE  H18S16765   4.045   5.833   8.439  1.5699 -0.0113 -0.9199
  151SAPE  C21916766   3.912   5.679   8.384  0.7151 -0.4365 -0.2604
  151SAPE  H19R16767   3.869   5.708   8.482 -0.0256  0.2609 -0.7868
  151SAPE  H19S16768   3.905   5.569   8.374  4.0327 -0.7798  0.5434
  151SAPE  C22016769   3.853   5.761   8.277  0.5010 -0.2204  0.1645
  151SAPE  H20R16770   3.860   5.871   8.292 -2.3551  0.2103 -1.1592
  151SAPE  H20S16771   3.748   5.726   8.265  1.2657 -2.3125 -0.6577
  151SAPE  H20T16772   3.899   5.735   8.179 -0.3150  1.5229 -0.7145
  151SAPE   C3316773   4.862   5.544   9.536 -0.3622  0.0867  0.0081
  151SAPE   H3X16774   4.900   5.445   9.502 -1.0732 -0.3304  0.4192
  151SAPE   H3Y16775   4.957   5.602   9.548  0.6801 -1.8011  1.1293
  151SAPE   C3416776   4.789   5.599   9.411 -0.1278  0.4927  0.5619
  151SAPE   H4X16777   4.746   5.698   9.437 -2.4315 -0.4337  0.4215
  151SAPE   H4Y16778   4.707   5.529   9.384  1.8446 -1.0199 -1.6739
  151SAPE   C3516779   4.876   5.594   9.291 -0.3009 -0.4287  0.5922
  151SAPE   H5X16780   4.920   5.493   9.275  1.0633  0.4949 -1.7659
  151SAPE   H5Y16781   4.958   5.666   9.315  1.2155 -2.3985  1.4483
  151SAPE   C3616782   4.810   5.647   9.167 -0.5937 -0.4936  0.0084
  151SAPE   H6X16783   4.704   5.621   9.150 -1.0414 -0.3619  2.4058
  151SAPE   H6Y16784   4.867   5.610   9.079 -0.1550 -1.5468  0.7329
  151SAPE   C3716785   4.812   5.804   9.163 -0.3291 -0.0682  0.0960
  151SAPE   H7X16786   4.911   5.846   9.137 -0.8230  0.8236 -0.3533
  151SAPE   H7Y16787   4.800   5.838   9.268 -0.7923  0.2770 -0.0649
  151SAPE   C3816788   4.706   5.861   9.082  0.3949 -0.2624  0.7825
  151SAPE   H8X16789   4.710   5.970   9.104  2.0568 -0.5630  1.9984
  151SAPE   H8Y16790   4.612   5.815   9.120 -0.0238 -0.2587 -0.2180
  151SAPE   C3916791   4.717   5.852   8.926 -0.1070  0.2275 -0.5025
  151SAPE   H9X16792   4.626   5.886   8.873  0.8320 -0.3935 -2.5633
  151SAPE   H9Y16793   4.732   5.747   8.893 -1.3592 -0.2601  0.4529
  151SAPE  C31016794   4.839   5.928   8.873 -0.0025  0.0899  0.3245
  151SAPE  H10X16795   4.927   5.860   8.871  0.0805  0.1106  2.2808
  151SAPE  H10Y16796   4.863   6.016   8.936  0.4889  0.4675 -0.3854
  151SAPE  C31116797   4.819   5.980   8.727 -0.4159 -0.0890  0.2871
  151SAPE  H11X16798   4.726   6.041   8.732  0.1094  0.7793 -0.2953
  151SAPE  H11Y16799   4.798   5.890   8.665  1.8587  0.2623 -1.0491
  151SAPE  C31216800   4.941   6.054   8.668  0.3630  0.9031 -0.5069
  151SAPE  H12X16801   4.963   6.144   8.729 -1.4534  1.2902 -0.3998
  151SAPE  H12Y16802   4.921   6.089   8.565  1.2269 -0.1992 -1.0556
  151SAPE  C31316803   5.067   5.968   8.655 -0.2540  0.6272  0.4713
  151SAPE  H13X16804   5.031   5.883   8.593 -2.3203  2.2629 -0.6287
  151SAPE  H13Y16805   5.110   5.922   8.746 -0.8478  1.2286  1.0623
  151SAPE  C31416806   5.178   6.033   8.566 -0.1219 -0.3166 -0.1814
  151SAPE  H14X16807   5.216   6.119   8.626 -2.4653 -0.5825  1.8061
  151SAPE  H14Y16808   5.137   6.064   8.468  0.3086 -0.0164 -0.2671
  151SAPE  C31516809   5.298   5.943   8.546 -0.1405  0.2768  0.3574
  151SAPE  H15X16810   5.266   5.853   8.489 -2.4223  1.3392 -0.1084
  151SAPE  H15Y16811   5.329   5.908   8.647  0.8163 -0.2598 -0.1191
  151SAPE  C31616812   5.415   6.021   8.485  0.1501  0.5227  0.0612
  151SAPE  H16X16813   5.451   6.091   8.564  0.4143 -0.8647  1.1897
  151SAPE  H16Y16814   5.390   6.085   8.398  0.4841  1.5111  0.6676
  151SAPE  C31716815   5.531   5.936   8.434  0.2781 -1.3417  0.5958
  151SAPE  H17X16816   5.545   5.852   8.505  0.5404 -1.0465  0.9026
  151SAPE  H17Y16817   5.622   6.000   8.439 -1.5074  1.3885 -0.3978
  151SAPE  C31816818   5.526   5.882   8.292  0.1081  0.3346 -0.1621
  151SAPE  H18X16819   5.500   5.967   8.226 -0.7718 -0.1286 -0.4121
  151SAPE  H18Y16820   5.445   5.807   8.279 -0.9175  1.4214  0.0164
  151SAPE  H18Z16821   5.621   5.838   8.254  1.1694  0.3455  2.3598
  152SAPE     N16822   6.653   4.393  10.551 -0.5629 -0.1558  0.3449
  152SAPE   HN116823   6.695   4.412  10.458  0.5856 -0.7159  0.7408
  152SAPE   HN216824   6.551   4.414  10.549 -1.1540 -2.6815  1.3999
  152SAPE   HN316825   6.708   4.459  10.611 -0.1832  0.1976 -0.3945
  152SAPE   C1216826   6.671   4.257  10.591  0.2281  0.2695 -0.1096
  152SAPE  H12A16827   6.619   4.236  10.687  0.9077  1.2155  0.4687
  152SAPE  H12B16828   6.779   4.231  10.593 -0.2622 -1.8461  3.6720
  152SAPE   C1116829   6.600   4.170  10.489 -0.1197 -0.0984  0.0701
  152SAPE  H11A16830   6.627   4.067  10.522  0.2259 -0.7764 -2.2414
  152SAPE  H11B16831   6.639   4.182  10.386  3.2996  0.9499  1.4074
  152SAPE     P16832   6.364   4.067  10.466 -0.4515  0.0180 -0.3049
  152SAPE   O1316833   6.391   3.953  10.556 -0.0011 -0.1689  0.1506
  152SAPE   O1416834   6.225   4.109  10.460 -0.2713  0.1401 -0.3073
  152SAPE   O1216835   6.461   4.198  10.483 -0.0076 -0.1798  0.0686
  152SAPE   O1116836   6.398   4.017  10.316 -0.2470  0.2298 -0.2836
  152SAPE    C116837   6.349   4.089  10.206  0.7497 -0.0408  0.2668
  152SAPE    HA16838   6.291   4.178  10.237  0.6893 -0.4398  1.3211
  152SAPE    HB16839   6.439   4.124  10.151  0.1153  0.0226 -0.7577
  152SAPE    C216840   6.269   3.999  10.117  0.6703  0.2674  0.1279
  152SAPE    HS16841   6.319   3.900  10.107 -0.6236 -0.3456 -0.2893
  152SAPE   O2116842   6.258   4.058   9.981 -0.5325 -0.1325 -0.2995
  152SAPE   C2116843   6.362   4.040   9.905 -0.3043 -0.7767 -0.8208
  152SAPE   O2216844   6.476   4.011   9.942 -0.2358 -0.0559 -0.1106
  152SAPE   C2216845   6.324   4.083   9.764  0.1794 -0.3702  1.4201
  152SAPE   H2R16846   6.262   4.001   9.720  0.6293  1.2348 -2.4122
  152SAPE   H2S16847   6.256   4.170   9.773 -1.4836 -1.4196 -0.3608
  152SAPE    C316848   6.128   3.969  10.170  0.4115  0.3130  0.3028
  152SAPE    HX16849   6.076   4.065  10.193 -2.8936 -1.6109  1.0735
  152SAPE    HY16850   6.160   3.919  10.264  3.1694 -0.6426 -1.1025
  152SAPE   O3116851   6.057   3.878  10.078 -0.6814 -0.0880 -1.0231
  152SAPE   C3116852   5.927   3.901  10.094  0.2668  0.1990 -0.7990
  152SAPE   O3216853   5.875   3.992  10.158  0.1032  0.1998  0.6433
  152SAPE   C3216854   5.844   3.803  10.009  0.1688  0.2079  0.2123
  152SAPE   H2X16855   5.738   3.831  10.029 -0.2554 -1.0398 -0.2435
  152SAPE   H2Y16856   5.865   3.700  10.048 -1.2424  0.2030  1.0092
  152SAPE   C2316857   6.438   4.131   9.667  0.0541  0.9778 -0.6581
  152SAPE   H3R16858   6.406   4.123   9.561  0.0914 -1.8179 -0.4921
  152SAPE   H3S16859   6.523   4.059   9.674  0.9148  1.7318 -2.7231
  152SAPE   C2416860   6.495   4.273   9.685 -0.0393  0.3200 -0.0111
  152SAPE   H4R16861   6.564   4.281   9.599  2.0222 -2.3168  1.3113
  152SAPE   H4S16862   6.557   4.277   9.777  1.5870  1.5136 -1.1402
  152SAPE   C2516863   6.384   4.377   9.667  0.4286  0.1343  0.2220
  152SAPE   H5R16864   6.297   4.361   9.732  0.1913  0.7057  0.0405
  152SAPE   C2616865   6.374   4.480   9.584  0.0526  0.6303 -0.4955
  152SAPE   H6R16866   6.289   4.549   9.594 -1.5321 -1.1863 -1.1888
  152SAPE   C2716867   6.464   4.526   9.475  0.3940 -0.0333  0.1014
  152SAPE   H7R16868   6.541   4.451   9.445  0.4655  0.0087  0.1815
  152SAPE   H7S16869   6.518   4.604   9.533  1.5994 -0.6792 -0.1325
  152SAPE   C2816870   6.413   4.598   9.356  0.5711  0.3925  0.1515
  152SAPE   H8R16871   6.320   4.657   9.363  0.7758  0.8008 -0.5342
  152SAPE   C2916872   6.444   4.576   9.225  1.1070  0.5042  0.3525
  152SAPE   H9R16873   6.392   4.636   9.148  0.7554  0.5638  0.6380
  152SAPE  C21016874   6.543   4.478   9.167 -0.2808 -0.1441  0.0097
  152SAPE  H10R16875   6.563   4.393   9.235 -0.8121 -0.4028 -0.1584
  152SAPE  H10S16876   6.642   4.529   9.178 -0.7848  0.8768 -0.0875
  152SAPE  C21116877   6.518   4.446   9.023  0.0651 -0.1382  0.1015
  152SAPE  H11R16878   6.410   4.446   9.003  0.2303  0.4647 -0.8320
  152SAPE  C21216879   6.605   4.440   8.919  0.2066 -1.0034  0.3781
  152SAPE  H12R16880   6.573   4.415   8.817 -0.5713 -0.8554  0.5856
  152SAPE  C21316881   6.757   4.459   8.934  0.2989  0.5829 -0.4066
  152SAPE  H13R16882   6.784   4.455   9.041  0.3944 -0.0555 -0.4561
  152SAPE  H13S16883   6.781   4.562   8.898  1.2425  0.5198  0.0226
  152SAPE  C21416884   6.847   4.375   8.845 -0.2793  0.2326  0.6682
  152SAPE  H14R16885   6.847   4.269   8.874 -1.8808  1.0293  3.7995
  152SAPE  C21516886   6.935   4.412   8.753  0.5446  0.4053 -0.2420
  152SAPE  H15R16887   6.989   4.336   8.694 -0.9390 -0.8863  0.0194
  152SAPE  C21616888   6.963   4.553   8.716 -0.0501 -0.6962  0.6895
  152SAPE  H16R16889   7.065   4.555   8.671 -1.1718  0.4813 -1.9363
  152SAPE  H16S16890   6.960   4.612   8.810 -2.1798 -0.5388  0.5315
  152SAPE  C21716891   6.870   4.604   8.605  0.3095 -0.3703  0.0659
  152SAPE  H17R16892   6.883   4.713   8.589 -0.9457 -0.1975  0.1274
  152SAPE  H17S16893   6.767   4.597   8.646  0.1980  0.6009 -0.0395
  152SAPE  C21816894   6.864   4.530   8.472  0.1141  0.5968 -0.3257
  152SAPE  H18R16895   6.820   4.428   8.474 -0.3504  0.7159 -2.6488
  152SAPE  H18S16896   6.966   4.531   8.429  0.4684 -2.5002  0.3379
  152SAPE  C21916897   6.786   4.615   8.366 -0.1886  0.1042 -0.0694
  152SAPE  H19R16898   6.841   4.711   8.375 -0.9719  0.5619 -0.0844
  152SAPE  H19S16899   6.683   4.634   8.404  0.3585  1.6572  0.6515
  152SAPE  C22016900   6.773   4.557   8.222  0.4265 -0.0699 -0.2211
  152SAPE  H20R16901   6.716   4.462   8.226 -1.3144  0.9337 -0.9867
  152SAPE  H20S16902   6.876   4.529   8.190  0.9109 -1.4945  2.4984
  152SAPE  H20T16903   6.726   4.623   8.146  0.2321  0.0274 -0.0156
  152SAPE   C3316904   5.874   3.812   9.859 -1.0538 -0.3371 -0.5704
  152SAPE   H3X16905   5.983   3.792   9.858 -0.7774  1.1000 -1.5854
  152SAPE   H3Y16906   5.860   3.916   9.820  0.6077  1.0554  2.4349
  152SAPE   C3416907   5.794   3.697   9.799 -0.0520 -0.2447 -0.7900
  152SAPE   H4X16908   5.687   3.702   9.826  0.2839 -1.8825  0.8682
  152SAPE   H4Y16909   5.828   3.600   9.839 -2.0188 -0.8489 -0.5576
  152SAPE   C3516910   5.795   3.684   9.644 -0.1728  0.6744  0.1053
  152SAPE   H5X16911   5.703   3.625   9.622  0.0317  0.9281 -1.4670
  152SAPE   H5Y16912   5.889   3.636   9.610 -0.4404 -0.1924  0.5734
  152SAPE   C3616913   5.779   3.817   9.565 -0.4305 -0.6708 -0.4750
  152SAPE   H6X16914   5.857   3.890   9.595  0.1902 -0.2781 -2.9114
  152SAPE   H6Y16915   5.679   3.863   9.585 -0.1436  0.7326 -2.0636
  152SAPE   C3716916   5.789   3.798   9.414 -0.1153 -0.3291  0.1547
  152SAPE   H7X16917   5.696   3.742   9.387  0.1323 -1.0699  0.8184
  152SAPE   H7Y16918   5.882   3.747   9.382  0.1216  0.4116 -0.3529
  152SAPE   C3816919   5.798   3.935   9.343 -0.0512 -0.7723  1.4642
  152SAPE   H8X16920   5.874   3.999   9.392 -0.0912  0.5862 -0.2341
  152SAPE   H8Y16921   5.709   4.000   9.356 -2.3302 -3.5249  0.2514
  152SAPE   C3916922   5.807   3.920   9.184 -0.5977 -0.3626  0.3699
  152SAPE   H9X16923   5.797   4.022   9.142  0.2748  0.4108  2.0019
  152SAPE   H9Y16924   5.720   3.859   9.151 -0.1334 -0.2578 -1.0724
  152SAPE  C31016925   5.934   3.845   9.132 -0.8156 -0.7547  1.3199
  152SAPE  H10X16926   5.923   3.739   9.164  3.3563 -1.6621  0.0598
  152SAPE  H10Y16927   6.031   3.885   9.169  1.6049 -1.4332 -3.7857
  152SAPE  C31116928   5.940   3.862   8.974 -0.1014 -0.3204 -0.2485
  152SAPE  H11X16929   5.972   3.968   8.969  3.4481 -1.4129 -2.7021
  152SAPE  H11Y16930   5.842   3.843   8.925  0.2559 -2.5954 -0.1772
  152SAPE  C31216931   6.036   3.757   8.920  0.5521  0.2191 -0.2254
  152SAPE  H12X16932   6.003   3.652   8.937  0.6394  0.3226  0.5913
  152SAPE  H12Y16933   6.128   3.758   8.981  1.3391  0.2088 -1.4014
  152SAPE  C31316934   6.085   3.797   8.786  0.1167 -0.0825 -0.8889
  152SAPE  H13X16935   6.105   3.906   8.788  1.6580 -0.3595  1.0529
  152SAPE  H13Y16936   6.005   3.780   8.711  0.4192 -2.0881 -0.8018
  152SAPE  C31416937   6.210   3.717   8.750  0.5223  0.1507 -0.2535
  152SAPE  H14X16938   6.200   3.608   8.765  0.7288  0.3266  1.2983
  152SAPE  H14Y16939   6.294   3.745   8.817  0.5393  1.3309 -0.7490
  152SAPE  C31516940   6.248   3.726   8.596 -0.5183 -0.6913  0.6824
  152SAPE  H15X16941   6.276   3.832   8.585 -1.2335 -0.4901  0.7830
  152SAPE  H15Y16942   6.156   3.709   8.537  1.0848  0.5177 -2.2499
  152SAPE  C31616943   6.355   3.632   8.555 -0.3734  0.4870 -0.0818
  152SAPE  H16X16944   6.371   3.631   8.445  1.1702 -1.1788  0.1342
  152SAPE  H16Y16945   6.340   3.524   8.578 -1.7538  0.9308  1.2252
  152SAPE  C31716946   6.487   3.661   8.632 -0.2742  0.4880  0.2836
  152SAPE  H17X16947   6.551   3.570   8.632 -0.7918  0.0696  2.5588
  152SAPE  H17Y16948   6.472   3.690   8.738 -3.6022  3.7077 -0.9628
  152SAPE  C31816949   6.561   3.773   8.552  0.3312 -0.5091 -0.4153
  152SAPE  H18X16950   6.548   3.741   8.446  0.0341  1.8195 -1.1246
  152SAPE  H18Y16951   6.663   3.784   8.594  0.5261  0.8541 -1.2077
  152SAPE  H18Z16952   6.505   3.866   8.574  2.1769  0.7579 -0.9171
  153SAPE     N16953   5.894   6.189  10.823  0.4517 -0.2313  0.2624
  153SAPE   HN116954   5.926   6.286  10.842  0.9785 -0.2986 -0.2678
  153SAPE   HN216955   5.791   6.191  10.817  0.4085 -0.4361  0.8570
  153SAPE   HN316956   5.919   6.132  10.907  2.6408 -0.6437 -0.6179
  153SAPE   C1216957   5.940   6.152  10.687  0.2692  0.6533  0.3686
  153SAPE  H12A16958   6.048   6.173  10.678  0.1822  0.4269 -1.3568
  153SAPE  H12B16959   5.893   6.223  10.616 -2.8082 -0.6784  0.9483
  153SAPE   C1116960   5.901   6.008  10.661 -0.1551 -0.2248  0.1574
  153SAPE  H11A16961   5.898   6.000  10.550 -0.4173 -0.8133  0.2057
  153SAPE  H11B16962   5.795   5.987  10.689 -0.4540 -0.4728 -1.1077
  153SAPE     P16963   5.966   5.758  10.681 -0.0888  0.3382  0.2801
  153SAPE   O1316964   6.080   5.673  10.728  0.5768  0.6617 -0.1660
  153SAPE   O1416965   5.828   5.729  10.730 -0.1072  0.4011  0.1471
  153SAPE   O1216966   5.997   5.915  10.721  0.0544 -0.0308  0.5680
  153SAPE   O1116967   5.957   5.765  10.520  0.2291  0.4441 -0.5214
  153SAPE    C116968   6.069   5.745  10.442 -0.1569  0.2117 -0.0058
  153SAPE    HA16969   6.156   5.795  10.488  0.4662 -0.5238 -0.3686
  153SAPE    HB16970   6.093   5.638  10.425  1.9832  1.0685 -2.9123
  153SAPE    C216971   6.057   5.803  10.295  0.1690 -0.5713 -0.2177
  153SAPE    HS16972   6.146   5.783  10.232  0.7922  0.6526  0.2651
  153SAPE   O2116973   6.044   5.949  10.307  0.5870 -0.0166 -0.3602
  153SAPE   C2116974   6.147   6.026  10.325  0.0965 -0.4717 -0.5188
  153SAPE   O2216975   6.259   5.994  10.354  0.0657 -0.0272  0.2908
  153SAPE   C2216976   6.106   6.167  10.315 -0.3331 -0.5753  0.4639
  153SAPE   H2R16977   5.998   6.191  10.310 -0.0046  1.0991  1.3425
  153SAPE   H2S16978   6.142   6.220  10.405 -1.9504 -0.4656  1.0704
  153SAPE    C316979   5.928   5.752  10.222  0.2952 -0.0665 -0.4641
  153SAPE    HX16980   5.855   5.796  10.294  0.3224  0.6045 -0.8493
  153SAPE    HY16981   5.922   5.641  10.212 -0.1184 -0.1759  0.8762
  153SAPE   O3116982   5.919   5.809  10.090 -0.7717  0.7447 -0.3289
  153SAPE   C3116983   5.846   5.750   9.990 -1.0981  0.0600 -0.3811
  153SAPE   O3216984   5.755   5.673  10.018  0.1743 -0.0187 -0.5869
  153SAPE   C3216985   5.902   5.778   9.852 -0.0983 -0.8537  0.4730
  153SAPE   H2X16986   6.009   5.749   9.856  0.4552  1.1535  1.0320
  153SAPE   H2Y16987   5.891   5.886   9.828 -0.6879 -0.3306  2.9282
  153SAPE   C2316988   6.171   6.237  10.189 -0.9627 -0.3249  0.3087
  153SAPE   H3R16989   6.280   6.217  10.198 -0.7706  0.0032 -1.1502
  153SAPE   H3S16990   6.133   6.341  10.194  1.1960  0.4652  0.8162
  153SAPE   C2416991   6.121   6.174  10.051 -0.2426 -0.8248  0.1881
  153SAPE   H4R16992   6.010   6.168  10.046 -0.4925  2.9947 -0.5381
  153SAPE   H4S16993   6.157   6.069  10.042 -0.5824 -1.1088  1.9382
  153SAPE   C2516994   6.185   6.259   9.951  0.3770 -0.0285 -0.3266
  153SAPE   H5R16995   6.176   6.367   9.971 -1.8826 -0.2139 -0.2543
  153SAPE   C2616996   6.267   6.225   9.849 -0.5631 -0.2960 -0.7069
  153SAPE   H6R16997   6.308   6.299   9.779 -0.7479 -1.1402 -1.7278
  153SAPE   C2716998   6.295   6.083   9.822 -0.9631  0.6511  0.0313
  153SAPE   H7R16999   6.203   6.023   9.802 -2.2178  1.6724  2.5863
  153SAPE   H7S17000   6.334   6.041   9.917  2.4567  0.1097 -1.5221
  153SAPE   C2817001   6.385   6.042   9.709 -0.4262  0.7069 -0.0807
  153SAPE   H8R17002   6.387   6.105   9.618  2.2337 -0.9975 -1.2635
  153SAPE   C2917003   6.455   5.934   9.701 -0.3323  0.5238  0.3000
  153SAPE   H9R17004   6.505   5.909   9.606 -3.3007  0.3322 -1.2735
  153SAPE  C21017005   6.459   5.826   9.803  0.2195 -0.0393 -1.1054
  153SAPE  H10R17006   6.480   5.729   9.752 -0.2883  0.0130 -1.4258
  153SAPE  H10S17007   6.355   5.814   9.839 -0.2125 -0.0017 -2.3155
  153SAPE  C21117008   6.546   5.855   9.926  0.9453 -0.3670 -0.4164
  153SAPE  H11R17009   6.589   5.956   9.933 -1.3439  0.5879  0.4787
  153SAPE  C21217010   6.574   5.759  10.017 -0.2694  0.1951  0.4462
  153SAPE  H12R17011   6.640   5.785  10.101  1.2253  1.2425 -1.0227
  153SAPE  C21317012   6.523   5.613  10.029  0.0199  0.7293  0.6580
  153SAPE  H13R17013   6.609   5.542  10.039 -1.8901 -2.2648 -2.8884
  153SAPE  H13S17014   6.461   5.571   9.947  0.4818 -0.3910  0.8720
  153SAPE  C21417015   6.447   5.615  10.158 -0.8749 -0.3487  0.0395
  153SAPE  H14R17016   6.491   5.673  10.240  1.5229 -0.6269 -0.9987
  153SAPE  C21517017   6.333   5.550  10.180  0.4143  0.4721 -0.6023
  153SAPE  H15R17018   6.286   5.558  10.280  0.7041 -0.1502 -0.4075
  153SAPE  C21617019   6.272   5.445  10.085 -0.4487  0.8627  0.8457
  153SAPE  H16R17020   6.242   5.360  10.150 -0.1264  0.5455  0.5765
  153SAPE  H16S17021   6.354   5.403  10.023  0.2648  0.4308  2.0651
  153SAPE  C21717022   6.165   5.519  10.000  0.2725  0.2594 -1.2844
  153SAPE  H17R17023   6.209   5.602   9.942 -1.2663  0.8588 -1.6312
  153SAPE  H17S17024   6.099   5.568  10.075  0.6385 -0.8831 -0.1983
  153SAPE  C21817025   6.093   5.418   9.904 -0.0630  0.4647 -0.0411
  153SAPE  H18R17026   6.009   5.475   9.861 -0.6212 -0.1958  0.1578
  153SAPE  H18S17027   6.058   5.329   9.961  1.0570  0.1316  0.1402
  153SAPE  C21917028   6.187   5.381   9.785  0.3023  0.7800 -0.9870
  153SAPE  H19R17029   6.267   5.310   9.816 -0.8920 -0.5449 -0.8449
  153SAPE  H19S17030   6.235   5.478   9.762 -2.2952  2.3337 -0.0281
  153SAPE  C22017031   6.119   5.341   9.656  0.5809 -0.0648 -0.1709
  153SAPE  H20R17032   6.039   5.416   9.639  1.1973  1.3580  2.9992
  153SAPE  H20S17033   6.076   5.239   9.662 -0.6205  0.3625 -1.3429
  153SAPE  H20T17034   6.197   5.347   9.576 -0.1931  0.2120 -0.9096
  153SAPE   C3317035   5.828   5.702   9.740 -0.3702  0.5976  0.8018
  153SAPE   H3X17036   5.728   5.666   9.775 -0.8557 -1.3325 -2.3454
  153SAPE   H3Y17037   5.876   5.606   9.714 -0.5051  0.8962 -0.5919
  153SAPE   C3417038   5.802   5.784   9.614 -0.5641  0.0909  0.0848
  153SAPE   H4X17039   5.890   5.852   9.605  1.1277 -1.9690  0.5473
  153SAPE   H4Y17040   5.713   5.842   9.646 -0.4436 -0.1405  0.8305
  153SAPE   C3517041   5.793   5.692   9.494  0.7724 -0.1348  0.0441
  153SAPE   H5X17042   5.701   5.630   9.497  1.0681 -0.6960 -1.7736
  153SAPE   H5Y17043   5.873   5.615   9.490  1.0940  0.2984 -2.3272
  153SAPE   C3617044   5.812   5.762   9.360  0.2708 -0.3941  0.6937
  153SAPE   H6X17045   5.918   5.789   9.338  0.8884 -4.0016 -1.1584
  153SAPE   H6Y17046   5.737   5.844   9.356  0.8521  0.0674 -1.2995
  153SAPE   C3717047   5.774   5.670   9.245 -0.8847  0.1435  1.3313
  153SAPE   H7X17048   5.720   5.584   9.289 -3.5406  2.0152  1.8805
  153SAPE   H7Y17049   5.860   5.620   9.195 -0.8418  0.5963  0.9511
  153SAPE   C3817050   5.689   5.736   9.136 -0.3393  0.1922  0.4704
  153SAPE   H8X17051   5.738   5.830   9.104 -0.1892  0.0579  0.3061
  153SAPE   H8Y17052   5.589   5.755   9.182  0.1021 -0.3801  1.6986
  153SAPE   C3917053   5.687   5.641   9.019 -0.0404 -0.1206  0.2514
  153SAPE   H9X17054   5.669   5.537   9.056  2.5061 -0.4452  0.6791
  153SAPE   H9Y17055   5.790   5.638   8.979 -0.7863 -0.7235 -1.6849
  153SAPE  C31017056   5.580   5.674   8.914  0.0889  0.2203  0.8807
  153SAPE  H10X17057   5.604   5.771   8.866  0.4697  0.6384  1.9015
  153SAPE  H10Y17058   5.475   5.689   8.946 -0.2003 -0.2235  0.1341
  153SAPE  C31117059   5.578   5.575   8.794  0.2242 -0.2537 -0.2180
  153SAPE  H11X17060   5.515   5.626   8.718 -1.0301 -1.1590  0.1949
  153SAPE  H11Y17061   5.536   5.477   8.824  2.3791 -1.4406 -0.9846
  153SAPE  C31217062   5.718   5.551   8.736 -1.0994 -0.0808  0.0301
  153SAPE  H12X17063   5.790   5.509   8.810  1.3892  1.9466 -1.1870
  153SAPE  H12Y17064   5.758   5.650   8.705 -0.6141 -0.2314  0.1760
  153SAPE  C31317065   5.725   5.462   8.608  0.7761 -0.5363 -0.1331
  153SAPE  H13X17066   5.648   5.510   8.544 -0.1585 -0.5197  0.9843
  153SAPE  H13Y17067   5.679   5.363   8.628  0.5268 -0.0987  1.4702
  153SAPE  C31417068   5.861   5.436   8.542  0.0011  0.1064  0.4059
  153SAPE  H14X17069   5.854   5.353   8.468  1.4856  1.8413 -1.7554
  153SAPE  H14Y17070   5.934   5.419   8.623  0.1707  1.5685  0.5842
  153SAPE  C31517071   5.910   5.552   8.460 -0.2017  0.3522 -0.1932
  153SAPE  H15X17072   5.915   5.643   8.524 -0.3649 -0.0185  0.3483
  153SAPE  H15Y17073   5.836   5.583   8.384  0.0216 -0.8937 -0.9357
  153SAPE  C31617074   6.047   5.528   8.393 -0.5331 -0.0103 -0.1958
  153SAPE  H16X17075   6.041   5.454   8.311 -1.3131  0.8295 -0.9036
  153SAPE  H16Y17076   6.124   5.498   8.468 -1.9590  0.5492  1.5313
  153SAPE  C31717077   6.090   5.660   8.328 -0.0741  0.1276 -0.4084
  153SAPE  H17X17078   6.101   5.740   8.405 -0.0900 -2.6518  2.5800
  153SAPE  H17Y17079   6.006   5.700   8.267  0.2806 -1.3162 -1.8708
  153SAPE  C31817080   6.220   5.652   8.251  0.5392  0.6388 -0.8344
  153SAPE  H18X17081   6.287   5.608   8.328  0.4714  0.4512 -0.8815
  153SAPE  H18Y17082   6.255   5.751   8.216  0.1957  1.6811  1.7107
  153SAPE  H18Z17083   6.216   5.569   8.177 -0.2203  0.2595 -0.3729
  154SAPE     N17084   0.348   4.683  10.734 -0.3506 -0.0395  0.4795
  154SAPE   HN117085   0.413   4.745  10.787 -0.5370  0.7130 -0.1545
  154SAPE   HN217086   0.254   4.694  10.777  0.2896  3.4570  1.1673
  154SAPE   HN317087   0.381   4.586  10.752  0.8134  0.4958  1.2574
  154SAPE   C1217088   0.349   4.704  10.583  0.1441  0.0019  0.2506
  154SAPE  H12A17089   0.277   4.637  10.533  2.1480 -2.2033  0.2084
  154SAPE  H12B17090   0.446   4.666  10.544 -0.2895 -1.4472  0.5256
  154SAPE   C1117091   0.326   4.844  10.540  0.4393  0.1563  0.5506
  154SAPE  H11A17092   0.226   4.871  10.581  0.0305  0.2314 -0.4763
  154SAPE  H11B17093   0.326   4.843  10.429  1.1417  0.4208  0.5464
  154SAPE     P17094   0.444   5.076  10.565  0.0735 -0.4019 -0.0195
  154SAPE   O1317095   0.366   5.137  10.671  0.1274 -0.1508 -0.6009
  154SAPE   O1417096   0.588   5.116  10.571  0.0975 -0.1167 -0.1977
  154SAPE   O1217097   0.436   4.928  10.584 -0.0727 -0.5332 -0.3246
  154SAPE   O1117098   0.381   5.094  10.426  0.3121 -0.9205 -0.0797
  154SAPE    C117099   0.456   5.124  10.309  0.1417 -0.2569  0.8911
  154SAPE    HA17100   0.562   5.147  10.331  0.0798  3.0083 -1.7594
  154SAPE    HB17101   0.459   5.032  10.248  0.1091 -1.4021  2.5948
  154SAPE    C217102   0.391   5.234  10.222 -0.4069 -0.3794 -0.1397
  154SAPE    HS17103   0.281   5.218  10.225 -0.3647 -0.6181  0.2253
  154SAPE   O2117104   0.432   5.231  10.082  0.0919  0.1340 -0.1209
  154SAPE   C2117105   0.378   5.135  10.001  0.8323 -0.1490 -0.0150
  154SAPE   O2217106   0.286   5.060  10.031 -0.4570  0.1216 -0.8306
  154SAPE   C2217107   0.453   5.139   9.882 -0.0896  0.1445  0.6220
  154SAPE   H2R17108   0.551   5.190   9.892 -0.6216  1.3399 -0.1051
  154SAPE   H2S17109   0.468   5.040   9.833  0.6517  0.9373 -0.8029
  154SAPE    C317110   0.423   5.378  10.276  0.1328  0.9622 -0.1636
  154SAPE    HX17111   0.534   5.374  10.284 -0.0579 -1.9855  1.5257
  154SAPE    HY17112   0.378   5.379  10.377  0.4033 -0.3587 -0.0164
  154SAPE   O3117113   0.374   5.481  10.190  0.6879 -0.4011  0.0887
  154SAPE   C3117114   0.242   5.493  10.182  0.6875 -0.1521  0.2830
  154SAPE   O3217115   0.160   5.428  10.242 -0.1333  0.0410 -0.0944
  154SAPE   C3217116   0.203   5.612  10.096  0.3084  0.3069 -0.1968
  154SAPE   H2X17117   0.255   5.703  10.132 -0.4002  0.1683  1.2116
  154SAPE   H2Y17118   0.098   5.639  10.118  0.1163  0.3392 -1.1395
  154SAPE   C2317119   0.380   5.228   9.770 -0.5046  0.6114 -0.0852
  154SAPE   H3R17120   0.468   5.254   9.707 -2.7734 -1.3855 -4.3139
  154SAPE   H3S17121   0.323   5.312   9.814 -2.7529 -1.6567  1.4856
  154SAPE   C2417122   0.280   5.158   9.675 -0.1495  0.4890 -0.4129
  154SAPE   H4R17123   0.230   5.237   9.614 -0.4516 -0.6994 -1.7164
  154SAPE   H4S17124   0.200   5.113   9.738 -0.7636 -1.0040 -2.2157
  154SAPE   C2517125   0.343   5.063   9.576 -0.7480  0.1855 -0.4313
  154SAPE   H5R17126   0.392   4.970   9.608 -1.4310 -0.3195 -0.8281
  154SAPE   C2617127   0.356   5.088   9.448  0.0580  0.2115 -0.1981
  154SAPE   H6R17128   0.404   5.012   9.384  0.9608  1.5003 -1.0853
  154SAPE   C2717129   0.319   5.207   9.364  0.7252 -0.0903  0.7710
  154SAPE   H7R17130   0.372   5.196   9.267 -0.7166 -0.7208  0.0336
  154SAPE   H7S17131   0.346   5.307   9.405 -0.9981  0.1203  1.4150
  154SAPE   C2817132   0.175   5.204   9.330  0.5167  0.3564 -0.6774
  154SAPE   H8R17133   0.115   5.118   9.363 -1.5244  2.0575  0.1024
  154SAPE   C2917134   0.106   5.301   9.266 -0.7434 -0.0554  0.3797
  154SAPE   H9R17135  -0.002   5.284   9.250 -0.7150 -0.8220  0.9334
  154SAPE  C21017136   0.161   5.434   9.222 -0.2937 -0.0881 -0.2600
  154SAPE  H10R17137   0.222   5.416   9.131 -1.6829 -1.0173 -1.0248
  154SAPE  H10S17138   0.225   5.484   9.298 -1.5250  0.8199  0.1889
  154SAPE  C21117139   0.055   5.535   9.181  1.0269 -0.3091 -0.2345
  154SAPE  H11R17140   0.039   5.604   9.265  1.3620  0.1635 -0.5586
  154SAPE  C21217141   0.007   5.539   9.057  0.2260 -0.7968 -0.5190
  154SAPE  H12R17142  -0.073   5.610   9.032  0.4816  0.4151  1.9012
  154SAPE  C21317143   0.036   5.439   8.947  0.3520  0.1063  0.1534
  154SAPE  H13R17144  -0.050   5.372   8.927 -1.4666  1.4251  3.2738
  154SAPE  H13S17145   0.123   5.377   8.978  1.7639  1.9729 -0.0038
  154SAPE  C21417146   0.066   5.532   8.832 -0.3652  0.5511 -0.0538
  154SAPE  H14R17147   0.162   5.584   8.831 -0.5243  0.8751  1.0390
  154SAPE  C21517148  -0.036   5.568   8.746 -0.4784 -0.4789 -0.2026
  154SAPE  H15R17149  -0.015   5.647   8.673 -0.8753 -2.3152 -2.3724
  154SAPE  C21617150  -0.186   5.524   8.749 -0.4332  0.4784 -0.8141
  154SAPE  H16R17151  -0.211   5.507   8.856 -1.2002  2.7462 -0.5996
  154SAPE  H16S17152  -0.197   5.438   8.679  0.9052 -1.6545  1.5477
  154SAPE  C21717153  -0.281   5.640   8.718 -0.4404  0.0246 -0.2574
  154SAPE  H17R17154  -0.252   5.717   8.793  0.5815 -0.8919  0.3095
  154SAPE  H17S17155  -0.389   5.617   8.723 -0.8689  2.4609  4.3455
  154SAPE  C21817156  -0.256   5.697   8.577  0.3713 -0.1599 -0.2377
  154SAPE  H18R17157  -0.270   5.614   8.504 -1.3020  0.4822 -0.6827
  154SAPE  H18S17158  -0.159   5.749   8.565 -0.2498  0.3776 -3.3248
  154SAPE  C21917159  -0.364   5.808   8.549  0.1328 -0.2329 -0.3044
  154SAPE  H19R17160  -0.464   5.769   8.574  1.1369 -1.9878  1.0414
  154SAPE  H19S17161  -0.352   5.827   8.440 -1.8822  2.6981 -0.0877
  154SAPE  C22017162  -0.332   5.934   8.622  0.2961 -0.4422  0.9506
  154SAPE  H20R17163  -0.414   6.004   8.598  1.6634  0.6491 -0.6547
  154SAPE  H20S17164  -0.242   5.990   8.587 -0.3193  1.8797  2.9615
  154SAPE  H20T17165  -0.330   5.919   8.732 -1.5026  0.5828  1.1332
  154SAPE   C3317166   0.227   5.582   9.946 -0.5704 -0.2272  0.5277
  154SAPE   H3X17167   0.313   5.512   9.934  0.0837  0.5171  0.7894
  154SAPE   H3Y17168   0.257   5.679   9.899 -0.1535 -1.1650 -1.1874
  154SAPE   C3417169   0.107   5.534   9.865  0.8514  0.3321  0.4771
  154SAPE   H4X17170   0.034   5.607   9.907  0.4025  1.0632 -1.5026
  154SAPE   H4Y17171   0.087   5.427   9.883 -1.1585  0.1022 -2.5922
  154SAPE   C3517172   0.115   5.562   9.711 -0.1365  0.7676 -0.1316
  154SAPE   H5X17173   0.184   5.488   9.664  0.5725 -0.2226  2.3858
  154SAPE   H5Y17174   0.163   5.661   9.699  1.0635  0.5129  2.3029
  154SAPE   C3617175  -0.027   5.553   9.657  0.3212 -0.0123  0.2709
  154SAPE   H6X17176  -0.013   5.595   9.556  1.0166  1.3559  0.9282
  154SAPE   H6Y17177  -0.095   5.619   9.714 -0.8183  0.0880 -1.1870
  154SAPE   C3717178  -0.072   5.409   9.659  0.1765 -0.1313  0.4726
  154SAPE   H7X17179  -0.063   5.355   9.756  0.5173 -1.0864 -0.0755
  154SAPE   H7Y17180  -0.027   5.348   9.577 -0.4435 -2.1130  1.5665
  154SAPE   C3817181  -0.224   5.406   9.646 -0.0567  0.1897 -0.1164
  154SAPE   H8X17182  -0.260   5.479   9.721  0.5133  1.3513 -0.9631
  154SAPE   H8Y17183  -0.263   5.301   9.649  0.3604  0.0077 -0.9732
  154SAPE   C3917184  -0.276   5.461   9.512 -0.6228 -0.1683  0.1270
  154SAPE   H9X17185  -0.198   5.534   9.479 -2.6285  1.6925 -0.6367
  154SAPE   H9Y17186  -0.358   5.533   9.533  1.1605  1.3802  2.0504
  154SAPE  C31017187  -0.306   5.359   9.399 -0.1402  0.7663 -0.1024
  154SAPE  H10X17188  -0.317   5.259   9.447 -2.5950  0.5942 -0.9707
  154SAPE  H10Y17189  -0.213   5.347   9.339 -0.9127  1.6146 -1.4921
  154SAPE  C31117190  -0.425   5.395   9.318  0.0300  0.3341  0.0520
  154SAPE  H11X17191  -0.501   5.426   9.393 -0.8412  0.2262 -0.7641
  154SAPE  H11Y17192  -0.469   5.310   9.262 -0.8646  0.5581  0.3973
  154SAPE  C31217193  -0.401   5.506   9.214 -0.1143  0.0690 -0.3019
  154SAPE  H12X17194  -0.323   5.470   9.144  2.0773  0.4590  1.8706
  154SAPE  H12Y17195  -0.362   5.595   9.268  2.3031 -0.7454 -0.6555
  154SAPE  C31317196  -0.525   5.534   9.126  0.4024 -0.0433 -0.4666
  154SAPE  H13X17197  -0.614   5.562   9.187  0.8138 -1.0277  0.6030
  154SAPE  H13Y17198  -0.541   5.440   9.070  0.2590 -2.5556  3.5779
  154SAPE  C31417199  -0.502   5.649   9.022  0.4425  0.0903  0.2209
  154SAPE  H14X17200  -0.470   5.584   8.938 -3.9963  0.1877 -1.7318
  154SAPE  H14Y17201  -0.422   5.719   9.054  2.2774 -0.9804 -1.9010
  154SAPE  C31517202  -0.637   5.716   8.981 -0.0505 -0.1179  0.2642
  154SAPE  H15X17203  -0.693   5.752   9.070  0.9442  0.9390  0.4758
  154SAPE  H15Y17204  -0.700   5.641   8.930  1.2922 -1.5358  0.6519
  154SAPE  C31617205  -0.593   5.836   8.891  0.1586 -0.4830  0.3231
  154SAPE  H16X17206  -0.539   5.794   8.803  2.0909  0.8210  0.8691
  154SAPE  H16Y17207  -0.533   5.907   8.951 -1.9284  1.4922  0.1236
  154SAPE  C31717208  -0.711   5.922   8.838 -0.3109 -0.2043  0.2410
  154SAPE  H17X17209  -0.663   6.005   8.781 -1.8551  0.1537 -0.5758
  154SAPE  H17Y17210  -0.780   5.972   8.910 -0.3721  2.1405 -1.3872
  154SAPE  C31817211  -0.798   5.840   8.738  0.0212  0.3227 -0.3198
  154SAPE  H18X17212  -0.875   5.906   8.692 -0.1264 -0.7871 -1.6781
  154SAPE  H18Y17213  -0.847   5.756   8.792 -0.2824  1.4984  1.2931
  154SAPE  H18Z17214  -0.730   5.807   8.657 -1.4116 -2.1916 -0.5450
  155SAPE     N17215   0.702   0.504  11.126  0.3577  0.6815  0.0820
  155SAPE   HN117216   0.604   0.539  11.124 -0.6736 -2.0395  0.5354
  155SAPE   HN217217   0.713   0.454  11.216 -2.4686 -3.1335 -1.5331
  155SAPE   HN317218   0.757   0.593  11.120  0.8417  0.5879  2.7207
  155SAPE   C1217219   0.720   0.418  11.010  0.1315 -0.5488 -0.5893
  155SAPE  H12A17220   0.651   0.332  10.996 -1.3561  0.5119  0.0347
  155SAPE  H12B17221   0.823   0.378  11.016  0.6612  0.9213  0.3692
  155SAPE   C1117222   0.719   0.511  10.885 -0.4387 -0.1520 -0.2187
  155SAPE  H11A17223   0.622   0.564  10.877 -0.7205 -0.3457  1.7395
  155SAPE  H11B17224   0.713   0.441  10.798 -0.6174 -0.7027  0.2347
  155SAPE     P17225   0.962   0.579  10.814  0.0418  0.0521 -0.3439
  155SAPE   O1317226   1.031   0.711  10.827  0.1364 -1.1019  0.6052
  155SAPE   O1417227   1.031   0.463  10.874 -0.0085 -0.3600 -0.0765
  155SAPE   O1217228   0.824   0.598  10.885  0.9320 -0.4475 -0.0705
  155SAPE   O1117229   0.911   0.539  10.674  0.3129  0.0536 -0.0281
  155SAPE    C117230   1.002   0.481  10.580 -0.0228  0.5104 -0.6785
  155SAPE    HA17231   1.086   0.551  10.561  0.2359  0.2218 -0.5950
  155SAPE    HB17232   1.043   0.388  10.625  0.6214  1.0268 -0.1780
  155SAPE    C217233   0.927   0.448  10.447  0.8518  0.4017 -0.0075
  155SAPE    HS17234   1.001   0.410  10.373  0.6474  0.4288 -0.2278
  155SAPE   O2117235   0.854   0.559  10.390 -0.3704 -0.1998  0.2320
  155SAPE   C2117236   0.932   0.639  10.327  0.0795 -0.5734 -0.1898
  155SAPE   O2217237   1.059   0.626  10.317  0.5300 -0.3379 -0.0934
  155SAPE   C2217238   0.848   0.745  10.258  0.4454  0.3735  1.1576
  155SAPE   H2R17239   0.748   0.699  10.251  1.3282 -1.5291  0.5917
  155SAPE   H2S17240   0.851   0.838  10.319  1.7309  2.1954 -1.5703
  155SAPE    C317241   0.823   0.340  10.476  0.5421  0.1263 -0.0963
  155SAPE    HX17242   0.751   0.386  10.546 -0.9513 -1.4546 -0.5645
  155SAPE    HY17243   0.871   0.250  10.520  0.1873 -1.0070 -1.9616
  155SAPE   O3117244   0.751   0.308  10.355  0.2199  0.3955  0.0032
  155SAPE   C3117245   0.824   0.226  10.278 -0.7760  0.1553 -0.8869
  155SAPE   O3217246   0.931   0.176  10.300 -0.7885  0.7155 -0.6412
  155SAPE   C3217247   0.751   0.201  10.149  0.1264  0.1771 -0.8419
  155SAPE   H2X17248   0.724   0.301  10.108  0.7811  0.8482  0.3288
  155SAPE   H2Y17249   0.661   0.140  10.175  1.3656 -1.4829 -0.3960
  155SAPE   C2317250   0.893   0.772  10.115  0.1139  0.8031  0.0778
  155SAPE   H3R17251   0.999   0.805  10.118 -0.1788  1.6994  2.6316
  155SAPE   H3S17252   0.838   0.858  10.070  0.3767  0.4882 -0.8361
  155SAPE   C2417253   0.881   0.654  10.017 -0.4066 -0.3338  0.1988
  155SAPE   H4R17254   0.926   0.563  10.062 -3.1965 -1.9309 -0.0747
  155SAPE   H4S17255   0.938   0.686   9.928 -0.6079 -0.2874  0.0872
  155SAPE   C2517256   0.735   0.619   9.995  0.2014  0.1959  0.0473
  155SAPE   H5R17257   0.681   0.579  10.083  1.5008 -2.7660 -0.4569
  155SAPE   C2617258   0.674   0.613   9.878 -0.3192 -0.3759 -0.0800
  155SAPE   H6R17259   0.565   0.613   9.886 -0.3739  2.0936 -0.4649
  155SAPE   C2717260   0.733   0.651   9.746  0.4824 -0.5570 -0.3739
  155SAPE   H7R17261   0.808   0.732   9.763  0.6202 -0.5035 -1.2266
  155SAPE   H7S17262   0.645   0.692   9.693 -0.6639  1.0554  2.6149
  155SAPE   C2817263   0.807   0.541   9.682  0.0229  0.3630 -0.4349
  155SAPE   H8R17264   0.874   0.490   9.753 -0.4509  0.3369  0.0008
  155SAPE   C2917265   0.784   0.472   9.571 -0.0304 -0.2564  0.0811
  155SAPE   H9R17266   0.855   0.395   9.537  0.8726  0.9609 -0.8377
  155SAPE  C21017267   0.687   0.515   9.470 -0.1117 -0.4493 -0.0168
  155SAPE  H10R17268   0.735   0.580   9.394 -0.6277  1.9458  1.6297
  155SAPE  H10S17269   0.612   0.586   9.512 -0.0840 -1.1030  1.1748
  155SAPE  C21117270   0.601   0.418   9.407  0.1178  0.1759 -0.6711
  155SAPE  H11R17271   0.501   0.405   9.453 -1.1206  1.6228 -2.8641
  155SAPE  C21217272   0.628   0.338   9.303  0.7714 -0.9426 -0.1833
  155SAPE  H12R17273   0.558   0.268   9.254 -0.3878  1.7998 -2.6116
  155SAPE  C21317274   0.759   0.333   9.226  0.8964  0.7361 -0.5376
  155SAPE  H13R17275   0.781   0.231   9.188 -2.9942 -0.2697 -0.2913
  155SAPE  H13S17276   0.843   0.377   9.284 -0.3369  1.1290  0.9958
  155SAPE  C21417277   0.733   0.421   9.104 -0.2538 -0.2917  0.4222
  155SAPE  H14R17278   0.686   0.516   9.133 -3.3162 -1.5625 -0.1465
  155SAPE  C21517279   0.759   0.401   8.977 -0.1104 -0.1483  0.0910
  155SAPE  H15R17280   0.743   0.487   8.909 -1.6271 -0.3755  0.1370
  155SAPE  C21617281   0.836   0.287   8.929  0.6909  0.9972  0.0237
  155SAPE  H16R17282   0.768   0.210   8.887 -0.7855  1.3936  1.5868
  155SAPE  H16S17283   0.888   0.232   9.010 -1.1030 -1.1397 -0.2236
  155SAPE  C21717284   0.941   0.327   8.826  0.5221 -0.7712  0.6622
  155SAPE  H17R17285   0.980   0.427   8.856 -2.6623  1.0321 -0.9859
  155SAPE  H17S17286   0.894   0.339   8.726 -0.6655 -0.3215  1.2706
  155SAPE  C21817287   1.059   0.228   8.823  0.2460 -0.2986 -0.2594
  155SAPE  H18R17288   1.024   0.131   8.780  2.1640 -1.8641  1.6263
  155SAPE  H18S17289   1.092   0.204   8.926  1.4029  0.1652 -0.5241
  155SAPE  C21917290   1.177   0.294   8.746  0.8431  0.9228 -0.4491
  155SAPE  H19R17291   1.202   0.374   8.819 -1.8676  1.3494  0.0351
  155SAPE  H19S17292   1.147   0.332   8.646  1.7683  1.8391 -0.3936
  155SAPE  C22017293   1.301   0.193   8.734 -0.3441  0.1125  0.6001
  155SAPE  H20R17294   1.271   0.108   8.668 -1.9158  2.1337 -1.3422
  155SAPE  H20S17295   1.337   0.153   8.831  1.4502  0.0141 -0.0851
  155SAPE  H20T17296   1.382   0.241   8.675 -0.3658 -2.4350 -1.6434
  155SAPE   C3317297   0.836   0.127  10.041  0.1623  0.4270  0.1273
  155SAPE   H3X17298   0.861   0.027  10.083  0.0779 -0.4266 -1.8112
  155SAPE   H3Y17299   0.931   0.180  10.016  1.1593 -1.0317  0.7202
  155SAPE   C3417300   0.759   0.120   9.913  0.5424 -0.4888 -0.2700
  155SAPE   H4X17301   0.743   0.226   9.883  1.3176  0.1354  1.4339
  155SAPE   H4Y17302   0.662   0.067   9.927  1.3952 -1.9341  0.2853
  155SAPE   C3517303   0.838   0.055   9.795 -0.6317 -0.0604 -0.0719
  155SAPE   H5X17304   0.872  -0.047   9.824 -3.9620 -1.1898  0.0947
  155SAPE   H5Y17305   0.924   0.119   9.768 -0.5929 -0.0022  0.1825
  155SAPE   C3617306   0.743   0.032   9.677 -0.6443 -0.2134 -0.0477
  155SAPE   H6X17307   0.700   0.134   9.666  1.0993  0.8593  2.5691
  155SAPE   H6Y17308   0.664  -0.038   9.711 -0.1916 -0.4259  0.5749
  155SAPE   C3717309   0.798  -0.009   9.542 -0.5280 -0.0633 -0.1090
  155SAPE   H7X17310   0.855  -0.104   9.549  1.1204  0.9808  1.0216
  155SAPE   H7Y17311   0.860   0.075   9.505  1.5892 -0.6136  2.0801
  155SAPE   C3817312   0.686  -0.037   9.441 -0.3698  0.4012 -0.6298
  155SAPE   H8X17313   0.632   0.060   9.430 -2.1296 -0.5519 -0.6412
  155SAPE   H8Y17314   0.616  -0.117   9.473  1.1640 -0.6118  0.2567
  155SAPE   C3917315   0.752  -0.068   9.302 -0.5854  0.1724  0.6507
  155SAPE   H9X17316   0.818  -0.154   9.329 -0.6763  0.0744  0.5631
  155SAPE   H9Y17317   0.818   0.011   9.261  0.1619 -0.8187 -0.1008
  155SAPE  C31017318   0.658  -0.116   9.196  0.1842  0.2164  0.1320
  155SAPE  H10X17319   0.583  -0.039   9.170  2.3255  1.4046 -2.7683
  155SAPE  H10Y17320   0.597  -0.205   9.222  0.4084  0.1485  0.4249
  155SAPE  C31117321   0.732  -0.157   9.069 -0.2914 -0.3917 -0.1697
  155SAPE  H11X17322   0.804  -0.238   9.093  0.9441  0.5076 -0.8177
  155SAPE  H11Y17323   0.791  -0.071   9.033  0.6525 -0.9400  0.0536
  155SAPE  C31217324   0.630  -0.197   8.959  0.5597 -0.2687 -0.2556
  155SAPE  H12X17325   0.548  -0.123   8.949  0.7708  0.5054  2.9879
  155SAPE  H12Y17326   0.583  -0.291   8.996 -2.1797  0.1691 -2.5058
  155SAPE  C31317327   0.692  -0.199   8.817 -0.3926 -0.8503  0.3255
  155SAPE  H13X17328   0.767  -0.279   8.806 -1.5325 -1.8044 -0.6881
  155SAPE  H13Y17329   0.741  -0.101   8.797 -0.5307 -1.1130 -1.4059
  155SAPE  C31417330   0.592  -0.227   8.704 -0.6467  0.2016 -0.7234
  155SAPE  H14X17331   0.542  -0.133   8.674  1.5369  1.3687 -0.8062
  155SAPE  H14Y17332   0.518  -0.290   8.757 -0.3506  0.9696  0.6419
  155SAPE  C31517333   0.668  -0.294   8.586  0.7135 -0.0055 -0.1228
  155SAPE  H15X17334   0.715  -0.388   8.622 -0.3190 -0.6874 -0.5457
  155SAPE  H15Y17335   0.740  -0.228   8.533  1.2947  0.7061  1.5141
  155SAPE  C31617336   0.569  -0.330   8.471 -0.3913 -0.2122 -0.0023
  155SAPE  H16X17337   0.544  -0.238   8.414  0.8379 -0.2641 -0.6443
  155SAPE  H16Y17338   0.473  -0.374   8.504 -0.0167  0.2586  1.7865
  155SAPE  C31717339   0.626  -0.431   8.371  0.3025 -0.0416  0.0983
  155SAPE  H17X17340   0.665  -0.515   8.432 -1.5330 -0.3794  0.8560
  155SAPE  H17Y17341   0.712  -0.386   8.318  0.2539 -0.8800 -0.6883
  155SAPE  C31817342   0.518  -0.484   8.273 -0.1536 -0.1227 -0.5029
  155SAPE  H18X17343   0.484  -0.416   8.193  0.4882  1.2919  0.4062
  155SAPE  H18Y17344   0.426  -0.509   8.331 -1.3092 -2.7823 -3.3537
  155SAPE  H18Z17345   0.549  -0.582   8.230 -1.8936 -1.1706  0.5322
  156SAPE     N17346   5.051   5.107  10.472  0.4849  0.3414  0.3815
  156SAPE   HN117347   5.048   5.062  10.566  0.4290 -1.0149 -0.2605
  156SAPE   HN217348   5.143   5.148  10.447  1.1002 -0.0385  1.9467
  156SAPE   HN317349   4.981   5.184  10.481 -0.9948 -0.7653 -1.3687
  156SAPE   C1217350   5.008   5.005  10.371 -0.8523  0.7629 -0.4031
  156SAPE  H12A17351   4.954   5.064  10.294 -0.3690  1.3128 -0.3254
  156SAPE  H12B17352   4.938   4.935  10.420 -1.1048  0.2262 -1.5304
  156SAPE   C1117353   5.135   4.931  10.300 -0.8926 -0.0591 -0.1943
  156SAPE  H11A17354   5.179   5.005  10.230  1.5692 -0.1014  1.2095
  156SAPE  H11B17355   5.096   4.842  10.247 -1.0987 -1.2235  1.8556
  156SAPE     P17356   5.222   4.798  10.504 -0.0140  0.0512 -0.2308
  156SAPE   O1317357   5.275   4.858  10.626  0.5103  0.1002 -0.0204
  156SAPE   O1417358   5.080   4.744  10.503 -0.3324  0.2352  0.2235
  156SAPE   O1217359   5.240   4.900  10.388 -0.2661  0.4790 -0.2589
  156SAPE   O1117360   5.315   4.676  10.468 -0.1645 -0.6189 -0.4468
  156SAPE    C117361   5.448   4.713  10.437 -0.0774  0.3041  0.1554
  156SAPE    HA17362   5.472   4.817  10.410 -0.6353 -0.0036 -1.5334
  156SAPE    HB17363   5.507   4.679  10.525 -2.4420  1.0408  2.0723
  156SAPE    C217364   5.493   4.611  10.327 -0.1226  0.1308  0.0519
  156SAPE    HS17365   5.600   4.623  10.299  0.7362  1.0637  3.5445
  156SAPE   O2117366   5.407   4.627  10.205  0.7540  0.1111  0.1837
  156SAPE   C2117367   5.434   4.740  10.141  0.1752  0.1748  0.1639
  156SAPE   O2217368   5.522   4.823  10.160 -0.3434 -0.2577 -0.1261
  156SAPE   C2217369   5.329   4.744  10.035  0.3119  0.6418  0.3966
  156SAPE   H2R17370   5.336   4.654   9.970 -1.3506  0.4444  0.4777
  156SAPE   H2S17371   5.239   4.757  10.099  0.4981  1.6024  0.4677
  156SAPE    C317372   5.473   4.466  10.383  0.5924 -0.0372  0.7543
  156SAPE    HX17373   5.363   4.467  10.395  0.4855  0.4322 -0.2303
  156SAPE    HY17374   5.526   4.453  10.480 -0.8330 -1.6764  1.3445
  156SAPE   O3117375   5.515   4.364  10.295  0.3929 -0.3423 -0.6479
  156SAPE   C3117376   5.644   4.339  10.275  0.6217  0.5710 -0.0010
  156SAPE   O3217377   5.733   4.411  10.315  0.0767 -0.0596  0.2092
  156SAPE   C3217378   5.667   4.233  10.173 -0.6109  0.2463 -0.0967
  156SAPE   H2X17379   5.726   4.152  10.221 -0.6252  0.6481  0.6130
  156SAPE   H2Y17380   5.728   4.272  10.088 -1.5393  1.5452 -0.1779
  156SAPE   C2317381   5.347   4.865   9.943 -0.2036 -0.0403 -0.6118
  156SAPE   H3R17382   5.332   4.961   9.998 -0.6798 -0.4411 -0.0278
  156SAPE   H3S17383   5.248   4.862   9.892  0.0364  0.3735 -1.0961
  156SAPE   C2417384   5.469   4.870   9.842  0.6198 -0.2752  0.1111
  156SAPE   H4R17385   5.560   4.847   9.900  0.4823 -1.5165 -0.1497
  156SAPE   H4S17386   5.492   4.972   9.804 -0.7599  0.2190  0.5496
  156SAPE   C2517387   5.456   4.769   9.732  0.5045  0.3933  0.1458
  156SAPE   H5R17388   5.473   4.662   9.750 -1.2382  0.1128  0.2136
  156SAPE   C2617389   5.432   4.801   9.604 -0.1898  0.5016 -0.2352
  156SAPE   H6R17390   5.421   4.715   9.537  0.9325 -1.9354  2.5889
  156SAPE   C2717391   5.412   4.944   9.542  0.4211  0.3741 -0.2635
  156SAPE   H7R17392   5.516   4.971   9.515 -0.2340  0.7012 -2.5586
  156SAPE   H7S17393   5.384   5.018   9.620 -2.0992  0.0569 -0.8300
  156SAPE   C2817394   5.328   4.940   9.417  0.4523  0.7824  0.9466
  156SAPE   H8R17395   5.230   4.985   9.440  0.4289  1.0653  0.3120
  156SAPE   C2917396   5.364   4.900   9.288  0.2447 -0.0523  0.1154
  156SAPE   H9R17397   5.290   4.911   9.207 -0.8522 -2.2405  0.7833
  156SAPE  C21017398   5.498   4.844   9.248  0.6762 -0.3829 -0.0390
  156SAPE  H10R17399   5.490   4.736   9.225 -0.5194 -0.2557 -0.2393
  156SAPE  H10S17400   5.574   4.857   9.328  0.2389  0.3338  0.2668
  156SAPE  C21117401   5.553   4.911   9.122  0.1690 -0.1664  0.3041
  156SAPE  H11R17402   5.535   5.019   9.131  2.9590  0.6343 -2.6822
  156SAPE  C21217403   5.571   4.860   8.998  0.1614 -0.3483  0.9431
  156SAPE  H12R17404   5.611   4.926   8.919  1.0492  0.0759  1.7471
  156SAPE  C21317405   5.552   4.724   8.954 -0.2256 -0.6007  0.8269
  156SAPE  H13R17406   5.462   4.678   9.000 -0.9119  1.3661  1.4962
  156SAPE  H13S17407   5.641   4.662   8.977 -0.7206 -0.8652  2.1037
  156SAPE  C21417408   5.518   4.715   8.805 -0.4678 -0.0443 -0.4418
  156SAPE  H14R17409   5.417   4.753   8.783 -0.8923 -0.3248  1.0030
  156SAPE  C21517410   5.587   4.664   8.705  1.1165  0.0722 -0.8449
  156SAPE  H15R17411   5.547   4.660   8.602 -1.5822  1.4491  0.0861
  156SAPE  C21617412   5.720   4.592   8.720  0.1527 -0.2770 -0.0263
  156SAPE  H16R17413   5.729   4.519   8.637  1.6869  0.1094 -0.2134
  156SAPE  H16S17414   5.727   4.528   8.811 -0.2563 -0.2298  0.0398
  156SAPE  C21717415   5.837   4.694   8.714 -0.2482  0.3972  0.4097
  156SAPE  H17R17416   5.819   4.769   8.795 -3.4285  0.2101 -0.0564
  156SAPE  H17S17417   5.841   4.762   8.626  2.1664  0.3599  0.4599
  156SAPE  C21817418   5.981   4.647   8.738 -0.2578 -0.1652 -0.2812
  156SAPE  H18R17419   6.009   4.608   8.637  0.2507  1.6361 -0.8560
  156SAPE  H18S17420   5.995   4.561   8.806  0.5681  0.1717 -0.0156
  156SAPE  C21917421   6.078   4.762   8.767 -0.7556 -0.1020 -0.0262
  156SAPE  H19R17422   6.043   4.814   8.859 -2.9610 -0.2515 -0.7561
  156SAPE  H19S17423   6.075   4.843   8.690  0.9155  0.8897  0.9118
  156SAPE  C22017424   6.219   4.716   8.796 -0.1880 -0.0297  0.1710
  156SAPE  H20R17425   6.226   4.659   8.891  2.5002 -1.2144 -0.7103
  156SAPE  H20S17426   6.299   4.792   8.797  2.3757 -2.6433  0.4383
  156SAPE  H20T17427   6.239   4.629   8.729 -2.3835 -0.8584  0.5380
  156SAPE   C3317428   5.551   4.159  10.110  0.0304  0.3425  0.2104
  156SAPE   H3X17429   5.493   4.113  10.192  0.2927 -0.7471 -0.2039
  156SAPE   H3Y17430   5.589   4.073  10.050  0.8778  0.9222 -0.0978
  156SAPE   C3417431   5.460   4.232  10.013 -0.1937  1.9113 -0.0090
  156SAPE   H4X17432   5.405   4.314  10.063  0.5428  3.4300 -1.6482
  156SAPE   H4Y17433   5.381   4.158   9.987 -0.7891  2.3206  0.5962
  156SAPE   C3517434   5.508   4.282   9.882 -0.1835 -0.6576  0.3976
  156SAPE   H5X17435   5.537   4.201   9.811  0.4057 -0.5962  0.5600
  156SAPE   H5Y17436   5.595   4.351   9.894 -0.0077 -0.9714  0.9614
  156SAPE   C3617437   5.401   4.364   9.792 -0.1141  0.1257  0.3709
  156SAPE   H6X17438   5.381   4.453   9.856  0.4886  0.2887  0.3369
  156SAPE   H6Y17439   5.317   4.292   9.781  1.3675 -1.5486 -0.2370
  156SAPE   C3717440   5.452   4.395   9.650 -0.2127 -0.6960 -0.3687
  156SAPE   H7X17441   5.548   4.338   9.645 -0.2436 -0.9251  1.4388
  156SAPE   H7Y17442   5.488   4.497   9.626  0.9428 -1.4007 -1.7112
  156SAPE   C3817443   5.368   4.338   9.539 -0.0068 -1.0242 -0.5929
  156SAPE   H8X17444   5.271   4.391   9.533  0.3312 -0.7571 -5.5507
  156SAPE   H8Y17445   5.354   4.228   9.554  2.6268 -1.4334 -0.8963
  156SAPE   C3917446   5.438   4.364   9.400  0.3514  0.0361  0.0832
  156SAPE   H9X17447   5.519   4.289   9.396  0.3235  0.0758 -1.9411
  156SAPE   H9Y17448   5.482   4.466   9.394 -0.0153  0.1205 -1.6826
  156SAPE  C31017449   5.345   4.353   9.282 -0.1438  0.3385 -0.1582
  156SAPE  H10X17450   5.272   4.437   9.291  0.1468  0.5993 -0.1993
  156SAPE  H10Y17451   5.292   4.256   9.278 -0.2227  0.3667  0.2886
  156SAPE  C31117452   5.405   4.377   9.140 -0.4650  0.0723 -0.0171
  156SAPE  H11X17453   5.457   4.474   9.128 -0.7752  0.2520  0.0791
  156SAPE  H11Y17454   5.321   4.379   9.067 -0.4617 -1.4657 -0.0951
  156SAPE  C31217455   5.508   4.270   9.105  0.3412 -1.1331 -0.8869
  156SAPE  H12X17456   5.479   4.168   9.139  0.5463 -1.0291 -0.4004
  156SAPE  H12Y17457   5.605   4.299   9.151 -0.7874  0.2658  0.6952
  156SAPE  C31317458   5.531   4.266   8.949 -0.1864  0.1908  0.0027
  156SAPE  H13X17459   5.558   4.371   8.928 -2.0816  0.9637  1.3595
  156SAPE  H13Y17460   5.440   4.243   8.890 -1.1268  0.5971  1.2846
  156SAPE  C31417461   5.643   4.168   8.916  0.7316 -0.4371  0.1683
  156SAPE  H14X17462   5.600   4.065   8.914 -0.7698  0.1976 -3.2387
  156SAPE  H14Y17463   5.720   4.168   8.996  0.5313 -1.8644  0.3780
  156SAPE  C31517464   5.692   4.194   8.774 -0.0746  0.5251 -0.5215
  156SAPE  H15X17465   5.726   4.299   8.778 -1.0486  0.7746  3.0777
  156SAPE  H15Y17466   5.599   4.191   8.713 -1.1047  0.2768  1.0400
  156SAPE  C31617467   5.800   4.102   8.728 -0.7437 -0.4354  0.0084
  156SAPE  H16X17468   5.758   4.000   8.739 -0.9323 -0.3989 -0.3725
  156SAPE  H16Y17469   5.888   4.110   8.796 -0.9661 -0.4116  0.2918
  156SAPE  C31717470   5.850   4.131   8.584 -0.5002 -0.0823  0.0455
  156SAPE  H17X17471   5.919   4.216   8.571 -0.0297 -0.9389 -3.4211
  156SAPE  H17Y17472   5.758   4.133   8.522 -1.6604 -3.0098  1.5512
  156SAPE  C31817473   5.935   4.010   8.529 -0.0826 -0.5685  0.0873
  156SAPE  H18X17474   6.024   3.986   8.591 -0.1132 -0.2936  0.2372
  156SAPE  H18Y17475   5.952   4.040   8.423 -2.3148 -0.4184 -0.2569
  156SAPE  H18Z17476   5.866   3.922   8.524 -0.0458 -0.7130  1.8570
  157SAPE     N17477   4.722   4.184  10.615 -0.0456  0.2121 -0.0800
  157SAPE   HN117478   4.816   4.147  10.640 -0.8871 -1.2452  1.0755
  157SAPE   HN217479   4.655   4.140  10.682 -0.5492  2.0530  0.6421
  157SAPE   HN317480   4.697   4.147  10.521 -0.3071 -0.1295  0.1234
  157SAPE   C1217481   4.715   4.335  10.629  0.0373  0.0775  0.0502
  157SAPE  H12A17482   4.776   4.385  10.550 -0.4639  0.2469 -0.2259
  157SAPE  H12B17483   4.747   4.367  10.730  0.9722  1.1955 -0.5834
  157SAPE   C1117484   4.571   4.385  10.604  1.1760 -0.5164 -0.8972
  157SAPE  H11A17485   4.494   4.319  10.648 -1.0030  2.2042 -0.4993
  157SAPE  H11B17486   4.558   4.384  10.494  0.7611 -0.1688 -0.8532
  157SAPE     P17487   4.645   4.634  10.665  0.4005 -0.0800  0.3551
  157SAPE   O1317488   4.569   4.755  10.694  0.0547 -0.4604 -0.2738
  157SAPE   O1417489   4.741   4.595  10.768  0.2712 -0.2018 -0.0852
  157SAPE   O1217490   4.545   4.520  10.648  0.2381 -0.3425  0.1572
  157SAPE   O1117491   4.718   4.656  10.522  0.3738  0.1005  0.0940
  157SAPE    C117492   4.627   4.681  10.407 -0.2173  0.7203  0.1233
  157SAPE    HA17493   4.580   4.587  10.373 -0.6876 -0.0072  2.6875
  157SAPE    HB17494   4.543   4.748  10.437 -0.3205  0.6622 -0.0364
  157SAPE    C217495   4.698   4.745  10.285 -0.3094 -0.3344  0.3815
  157SAPE    HS17496   4.780   4.810  10.322  0.0051 -1.1897  1.2076
  157SAPE   O2117497   4.600   4.824  10.203 -0.3717 -0.6254 -0.1270
  157SAPE   C2117498   4.552   4.931  10.263 -0.6104 -0.4790 -0.0633
  157SAPE   O2217499   4.592   4.991  10.365  0.0350  0.0528 -0.0985
  157SAPE   C2217500   4.440   4.985  10.175  1.0201 -0.9560 -0.1052
  157SAPE   H2R17501   4.481   5.074  10.121 -0.3896 -1.2423 -1.7055
  157SAPE   H2S17502   4.396   4.914  10.101  1.4171  0.8419 -2.1294
  157SAPE    C317503   4.765   4.627  10.201  0.0513 -0.1554  0.0437
  157SAPE    HX17504   4.839   4.573  10.264 -0.2479  1.3445  1.7136
  157SAPE    HY17505   4.820   4.682  10.122 -0.1635  0.1934  0.1370
  157SAPE   O3117506   4.667   4.527  10.153 -0.3052 -0.8844  0.1362
  157SAPE   C3117507   4.628   4.548  10.023 -0.3424 -0.3434  0.5163
  157SAPE   O3217508   4.666   4.644   9.950  0.1807  0.6012  0.5272
  157SAPE   C3217509   4.555   4.431   9.973  0.2919 -0.1181 -0.7057
  157SAPE   H2X17510   4.485   4.400  10.054  1.3548  0.8678  0.6128
  157SAPE   H2Y17511   4.628   4.347   9.977  0.3859 -0.0233 -0.3521
  157SAPE   C2317512   4.317   5.023  10.260 -0.0353  0.3989 -0.0886
  157SAPE   H3R17513   4.305   5.128  10.294 -1.4726 -0.2144  1.3666
  157SAPE   H3S17514   4.327   4.955  10.348  0.9013 -0.4707 -0.8521
  157SAPE   C2417515   4.185   4.974  10.193 -0.2940 -0.3209  0.1327
  157SAPE   H4R17516   4.103   4.964  10.268 -0.7886  0.8700 -0.2379
  157SAPE   H4S17517   4.199   4.879  10.138  1.4732  0.1106 -0.1998
  157SAPE   C2517518   4.137   5.068  10.089 -0.0237  0.9003 -0.3475
  157SAPE   H5R17519   4.133   5.167  10.136 -0.2074  1.5922 -1.7923
  157SAPE   C2617520   4.097   5.043   9.957  0.7554  0.4630  0.0465
  157SAPE   H6R17521   4.058   5.129   9.900 -0.1519  0.7256  1.0460
  157SAPE   C2717522   4.092   4.910   9.884 -0.0442 -0.6652 -0.3280
  157SAPE   H7R17523   4.001   4.918   9.820 -0.3085  0.0111  0.1248
  157SAPE   H7S17524   4.077   4.834   9.963  1.4729  0.7192  1.3206
  157SAPE   C2817525   4.214   4.879   9.795 -0.4650  0.6481 -0.7040
  157SAPE   H8R17526   4.304   4.941   9.810  0.4865 -1.3814  2.5920
  157SAPE   C2917527   4.221   4.773   9.707  0.0402  0.1905  0.4330
  157SAPE   H9R17528   4.311   4.756   9.647  0.3043  0.3194  0.7907
  157SAPE  C21017529   4.104   4.682   9.675  0.4773  0.4545  0.2003
  157SAPE  H10R17530   4.058   4.667   9.775  1.5347 -0.3172  0.5794
  157SAPE  H10S17531   4.132   4.578   9.651  0.4112  0.5294 -0.2147
  157SAPE  C21117532   4.013   4.739   9.570  0.2409  0.6517 -0.2669
  157SAPE  H11R17533   3.955   4.828   9.598  0.6374  0.1357  2.3336
  157SAPE  C21217534   4.003   4.694   9.438  0.1784  0.7067 -0.0729
  157SAPE  H12R17535   3.936   4.736   9.362  2.7983  1.1991 -2.2077
  157SAPE  C21317536   4.081   4.583   9.370 -0.4714 -0.3516 -0.7739
  157SAPE  H13R17537   4.136   4.517   9.441 -0.4456 -2.5813 -2.7847
  157SAPE  H13S17538   4.154   4.631   9.301  0.0339 -0.4641 -0.3286
  157SAPE  C21417539   3.991   4.490   9.298  0.2741  0.4349  0.2202
  157SAPE  H14R17540   3.940   4.415   9.360  0.3794 -0.9424 -1.3198
  157SAPE  C21517541   3.962   4.483   9.169  0.3267  0.2591  0.3575
  157SAPE  H15R17542   3.896   4.397   9.150 -1.3045  1.8917 -1.6219
  157SAPE  C21617543   4.020   4.571   9.060 -0.6064  0.2275 -0.2559
  157SAPE  H16R17544   4.044   4.508   8.972  2.6186  0.3265  0.4755
  157SAPE  H16S17545   4.108   4.622   9.105  0.4152 -0.9722 -0.8824
  157SAPE  C21717546   3.937   4.694   9.010  0.3200 -0.0431 -0.0908
  157SAPE  H17R17547   4.004   4.758   8.948  1.3741 -3.4106 -2.5645
  157SAPE  H17S17548   3.918   4.755   9.101 -3.2091 -0.6100 -0.3860
  157SAPE  C21817549   3.803   4.656   8.942 -0.2007 -0.0325  0.1166
  157SAPE  H18R17550   3.748   4.591   9.012  0.5840  1.1315  1.8548
  157SAPE  H18S17551   3.827   4.597   8.851  1.1318  1.3460 -0.4698
  157SAPE  C21917552   3.728   4.779   8.900  0.1922 -0.8528 -0.3852
  157SAPE  H19R17553   3.776   4.834   8.816  0.3870  1.3250  1.0886
  157SAPE  H19S17554   3.732   4.858   8.979  3.2273 -0.1178 -1.2166
  157SAPE  C22017555   3.580   4.764   8.868  0.5443  0.4449 -0.1074
  157SAPE  H20R17556   3.560   4.693   8.784 -1.9441 -3.7411  3.7531
  157SAPE  H20S17557   3.523   4.856   8.846  0.7733  1.0544  1.8041
  157SAPE  H20T17558   3.527   4.718   8.954 -0.4730 -0.2877 -1.1056
  157SAPE   C3317559   4.472   4.454   9.844  0.8453 -0.6685 -0.0526
  157SAPE   H3X17560   4.435   4.558   9.832  1.1396 -0.4793  0.7038
  157SAPE   H3Y17561   4.376   4.398   9.839 -0.0629  1.0329 -3.2878
  157SAPE   C3417562   4.545   4.417   9.715 -0.3415 -0.5414 -0.5320
  157SAPE   H4X17563   4.561   4.307   9.709  1.0515 -0.5060  1.9302
  157SAPE   H4Y17564   4.648   4.459   9.707 -0.3664 -0.5612 -0.9685
  157SAPE   C3517565   4.462   4.465   9.597 -1.2824 -0.1112  0.3088
  157SAPE   H5X17566   4.473   4.575   9.609  1.1674 -0.3778  0.6432
  157SAPE   H5Y17567   4.358   4.427   9.591 -0.6314 -1.7172 -1.2589
  157SAPE   C3617568   4.532   4.434   9.464  0.3237 -0.8438  0.4088
  157SAPE   H6X17569   4.545   4.325   9.446  2.7617 -0.2149 -1.8475
  157SAPE   H6Y17570   4.630   4.481   9.485 -0.4920  1.2980 -0.4491
  157SAPE   C3717571   4.462   4.516   9.349 -0.4866  0.5020  0.0449
  157SAPE   H7X17572   4.480   4.622   9.377 -2.5501  1.2193 -1.1979
  157SAPE   H7Y17573   4.355   4.488   9.341 -0.8324  1.4416  1.3446
  157SAPE   C3817574   4.522   4.467   9.211  0.6473  0.2429  0.3547
  157SAPE   H8X17575   4.485   4.362   9.201  1.4568  0.1757 -2.3332
  157SAPE   H8Y17576   4.632   4.452   9.206  0.3296 -1.8951 -1.2016
  157SAPE   C3917577   4.485   4.551   9.087 -0.4210  0.1055  0.1417
  157SAPE   H9X17578   4.537   4.649   9.091  1.9423 -1.0703 -0.7475
  157SAPE   H9Y17579   4.376   4.572   9.099 -0.5436  0.1503 -1.0292
  157SAPE  C31017580   4.539   4.494   8.957 -0.0510  0.5459 -0.1769
  157SAPE  H10X17581   4.496   4.392   8.943  1.7406  0.1945 -3.7571
  157SAPE  H10Y17582   4.649   4.477   8.955  0.0887  1.5403 -1.8849
  157SAPE  C31117583   4.500   4.579   8.837 -0.3667 -0.5833  0.2515
  157SAPE  H11X17584   4.563   4.540   8.754 -0.3975 -1.1443  0.4892
  157SAPE  H11Y17585   4.542   4.682   8.842 -1.1557 -0.2743  0.5962
  157SAPE  C31217586   4.349   4.586   8.804 -0.5188  0.3388 -0.3455
  157SAPE  H12X17587   4.303   4.617   8.900 -0.3277 -0.3219 -0.0342
  157SAPE  H12Y17588   4.295   4.490   8.788 -0.2330 -0.2480  1.9873
  157SAPE  C31317589   4.306   4.681   8.694 -0.1365 -0.6131  0.1269
  157SAPE  H13X17590   4.348   4.638   8.600  2.7244  1.9629  0.1183
  157SAPE  H13Y17591   4.343   4.786   8.691 -1.0440 -0.2730  0.7957
  157SAPE  C31417592   4.154   4.690   8.685 -0.7887 -0.1416 -0.0097
  157SAPE  H14X17593   4.105   4.726   8.778  1.2691 -1.8080  1.8129
  157SAPE  H14Y17594   4.125   4.583   8.676 -0.2857 -0.3952  1.1600
  157SAPE  C31517595   4.097   4.762   8.568 -0.1619  0.4506 -0.0866
  157SAPE  H15X17596   4.145   4.729   8.473  0.5412  2.6580 -0.5300
  157SAPE  H15Y17597   4.125   4.870   8.570 -2.7143  1.1244  3.6712
  157SAPE  C31617598   3.944   4.745   8.559 -0.3237 -0.8306  0.0535
  157SAPE  H16X17599   3.911   4.831   8.621 -0.3083 -2.9397  3.0679
  157SAPE  H16Y17600   3.911   4.654   8.614  0.0399 -0.6168  0.6241
  157SAPE  C31717601   3.881   4.733   8.419  0.1562 -0.2003 -0.2929
  157SAPE  H17X17602   3.908   4.635   8.373 -0.6163 -1.1616  1.2826
  157SAPE  H17Y17603   3.923   4.807   8.347  0.4300 -2.7254 -2.8217
  157SAPE  C31817604   3.732   4.745   8.427 -0.5416  0.1554  0.2768
  157SAPE  H18X17605   3.696   4.850   8.436  1.3747  0.7222  1.6040
  157SAPE  H18Y17606   3.691   4.677   8.504  0.6561 -0.2691  0.5529
  157SAPE  H18Z17607   3.692   4.708   8.330 -1.1074  0.6282  0.3250
  158SAPE     N17608   5.946   4.435  10.494 -1.2189  0.5256 -0.0631
  158SAPE   HN117609   5.884   4.423  10.411 -0.4601 -0.1583 -0.5349
  158SAPE   HN217610   6.045   4.429  10.464 -1.7160 -1.5254 -1.4421
  158SAPE   HN317611   5.928   4.351  10.553 -0.0914 -0.1381 -0.6423
  158SAPE   C1217612   5.923   4.564  10.561 -0.1733  0.3233  0.1453
  158SAPE  H12A17613   5.813   4.567  10.574 -0.1446  1.2684  0.1898
  158SAPE  H12B17614   5.963   4.643  10.494 -0.3332  0.0894 -0.2260
  158SAPE   C1117615   5.995   4.582  10.694 -0.8823  0.3369  0.2880
  158SAPE  H11A17616   5.965   4.506  10.769 -1.7167 -1.3656 -1.7041
  158SAPE  H11B17617   5.967   4.679  10.741  1.5513  1.6554 -0.8881
  158SAPE     P17618   6.236   4.701  10.668  0.2867 -0.0086 -0.4024
  158SAPE   O1317619   6.171   4.825  10.712 -0.2661  0.0062 -0.2196
  158SAPE   O1417620   6.359   4.652  10.729 -0.0496  0.1942 -0.8522
  158SAPE   O1217621   6.138   4.579  10.672  0.0922 -0.2972 -0.2495
  158SAPE   O1117622   6.262   4.687  10.516 -0.2002 -0.1300 -0.4964
  158SAPE    C117623   6.282   4.800  10.434 -0.5283 -0.7599  0.0149
  158SAPE    HA17624   6.276   4.894  10.492  1.9721  0.0526 -0.9776
  158SAPE    HB17625   6.380   4.792  10.381  0.5324  1.0263  1.6645
  158SAPE    C217626   6.176   4.809  10.323  0.0380 -0.4056 -0.5444
  158SAPE    HS17627   6.074   4.816  10.365 -0.4706  0.2417 -1.8506
  158SAPE   O2117628   6.187   4.701  10.231 -0.3037 -0.5068  0.4318
  158SAPE   C2117629   6.075   4.658  10.183  0.0314  0.0833  0.1706
  158SAPE   O2217630   5.962   4.704  10.208  0.1485 -0.7564 -0.1141
  158SAPE   C2217631   6.117   4.538  10.097 -0.3174  0.0604 -0.1233
  158SAPE   H2R17632   6.143   4.579   9.997 -0.1170 -0.0175 -0.1025
  158SAPE   H2S17633   6.211   4.494  10.136 -0.1087 -0.3295 -1.0370
  158SAPE    C317634   6.200   4.948  10.250 -0.1840 -0.1828 -0.6512
  158SAPE    HX17635   6.301   4.935  10.204  0.4516 -0.4077  0.7907
  158SAPE    HY17636   6.215   5.033  10.320 -0.4581 -0.6468 -0.0357
  158SAPE   O3117637   6.099   4.967  10.154  0.1432  0.0317 -0.2190
  158SAPE   C3117638   6.013   5.063  10.178 -0.0683  0.1063 -0.5570
  158SAPE   O3217639   5.999   5.127  10.284 -0.0400  0.1067 -0.4362
  158SAPE   C3217640   5.934   5.078  10.050  0.1219 -0.0580 -0.2292
  158SAPE   H2X17641   5.898   4.981  10.009 -0.3532 -0.7660  1.8018
  158SAPE   H2Y17642   6.017   5.110   9.983  1.2357  0.3101  1.3170
  158SAPE   C2317643   5.999   4.439  10.077 -0.0048  0.3175  0.2461
  158SAPE   H3R17644   5.907   4.497  10.051 -0.9211 -0.0544  2.4743
  158SAPE   H3S17645   5.967   4.390  10.171 -0.7113 -0.1231 -0.2201
  158SAPE   C2417646   6.036   4.334   9.972  0.2302  0.2427  0.4671
  158SAPE   H4R17647   6.120   4.278  10.017  0.5987  1.7758  1.7452
  158SAPE   H4S17648   6.083   4.396   9.893  0.4723 -1.2991 -0.6129
  158SAPE   C2517649   5.925   4.240   9.923 -0.1070 -0.7428 -0.6939
  158SAPE   H5R17650   5.883   4.170   9.997  2.1130  1.9325  3.2768
  158SAPE   C2617651   5.876   4.232   9.796 -0.2794 -0.2556 -0.1942
  158SAPE   H6R17652   5.791   4.168   9.767 -1.1533  1.3054 -1.1576
  158SAPE   C2717653   5.916   4.327   9.683  0.1680 -0.3319  0.0612
  158SAPE   H7R17654   5.873   4.277   9.594 -1.0207 -0.9781  0.9779
  158SAPE   H7S17655   6.027   4.338   9.680  0.0631  0.8221  0.1065
  158SAPE   C2817656   5.849   4.466   9.700  0.1650 -0.2014  0.8679
  158SAPE   H8R17657   5.848   4.494   9.806  0.1497 -0.6464  0.9864
  158SAPE   C2917658   5.802   4.548   9.601 -0.3429  0.2648  0.4680
  158SAPE   H9R17659   5.752   4.640   9.633 -0.6363 -0.4337  2.1048
  158SAPE  C21017660   5.797   4.527   9.450  0.0579  0.6740 -0.8326
  158SAPE  H10R17661   5.703   4.471   9.432 -0.1716  0.4518  1.0188
  158SAPE  H10S17662   5.877   4.462   9.408 -0.8312 -0.4372 -0.8296
  158SAPE  C21117663   5.786   4.659   9.383 -0.2531  0.0303  0.4088
  158SAPE  H11R17664   5.709   4.727   9.423 -0.0807  1.3229 -1.3831
  158SAPE  C21217665   5.851   4.692   9.272 -0.0760 -0.3607  0.1034
  158SAPE  H12R17666   5.831   4.792   9.231 -2.5923 -1.2234 -0.8833
  158SAPE  C21317667   5.947   4.621   9.186  0.5580  0.5052 -0.2535
  158SAPE  H13R17668   6.042   4.601   9.240  0.5500  0.2392 -0.3366
  158SAPE  H13S17669   5.975   4.697   9.110 -1.9139 -0.7039 -2.4708
  158SAPE  C21417670   5.896   4.504   9.102  0.0803  0.3169  0.4900
  158SAPE  H14R17671   5.808   4.540   9.046  2.4267  2.8802 -1.6332
  158SAPE  C21517672   5.960   4.389   9.069 -0.7569  0.1819 -0.1057
  158SAPE  H15R17673   5.913   4.318   8.999 -3.3432  1.1712  0.5644
  158SAPE  C21617674   6.097   4.356   9.121 -0.0786 -0.8408  0.1300
  158SAPE  H16R17675   6.146   4.447   9.162 -4.1552  1.6380 -0.1736
  158SAPE  H16S17676   6.149   4.317   9.031 -2.1184 -2.1918 -0.5082
  158SAPE  C21717677   6.121   4.246   9.232  0.0851 -0.9506  0.1198
  158SAPE  H17R17678   6.069   4.152   9.205 -0.0776 -1.5170  2.3215
  158SAPE  H17S17679   6.076   4.292   9.323  1.6929  2.0994 -0.5361
  158SAPE  C21817680   6.272   4.196   9.252 -0.1368 -0.2001 -0.1950
  158SAPE  H18R17681   6.327   4.271   9.312  1.9599 -1.6831 -0.2265
  158SAPE  H18S17682   6.323   4.185   9.154  0.1738  0.2685 -0.0883
  158SAPE  C21917683   6.280   4.063   9.333  0.4103  0.2332 -0.0509
  158SAPE  H19R17684   6.383   4.032   9.361 -0.0743 -3.3298 -1.8656
  158SAPE  H19S17685   6.256   3.983   9.259 -0.0776 -0.1161  0.4797
  158SAPE  C22017686   6.187   4.070   9.450  0.4271 -0.4164  0.3713
  158SAPE  H20R17687   6.080   4.047   9.429  0.0956 -0.0736  1.6101
  158SAPE  H20S17688   6.194   4.175   9.485 -0.7634 -0.2631  0.1795
  158SAPE  H20T17689   6.222   3.995   9.524  2.2320 -0.8238 -0.8808
  158SAPE   C3317690   5.825   5.187  10.060  0.5186 -0.1814  0.1391
  158SAPE   H3X17691   5.871   5.288  10.052  0.8498 -0.5464 -3.7359
  158SAPE   H3Y17692   5.766   5.165  10.151  0.6027 -1.7035 -0.1719
  158SAPE   C3417693   5.723   5.185   9.944 -0.1609  0.3676  0.1694
  158SAPE   H4X17694   5.667   5.281   9.940 -0.8875 -0.0686 -0.1932
  158SAPE   H4Y17695   5.653   5.099   9.947  0.5044 -0.1584  0.7706
  158SAPE   C3517696   5.796   5.170   9.802 -0.3090 -0.7921  0.1772
  158SAPE   H5X17697   5.843   5.071   9.780  1.4681  0.1622 -0.3862
  158SAPE   H5Y17698   5.883   5.238   9.809 -1.0276  0.2591 -0.7976
  158SAPE   C3617699   5.697   5.216   9.686 -0.6043  0.4639 -0.0196
  158SAPE   H6X17700   5.662   5.318   9.713  1.6490  1.2918 -0.0871
  158SAPE   H6Y17701   5.605   5.154   9.694  0.0948 -0.4655  1.0469
  158SAPE   C3717702   5.754   5.207   9.547 -0.8032  0.3887 -0.3797
  158SAPE   H7X17703   5.761   5.103   9.510 -0.5131  0.1582  0.3189
  158SAPE   H7Y17704   5.856   5.249   9.560 -1.0250 -0.0762  3.2811
  158SAPE   C3817705   5.678   5.286   9.431 -0.0386 -0.4649 -0.1349
  158SAPE   H8X17706   5.743   5.284   9.341  0.8477  0.8713  0.4592
  158SAPE   H8Y17707   5.663   5.390   9.469  1.3334 -0.8393  1.4993
  158SAPE   C3917708   5.539   5.235   9.389  0.1917  0.0699 -0.4296
  158SAPE   H9X17709   5.476   5.222   9.480  0.6419  1.1522  0.0456
  158SAPE   H9Y17710   5.542   5.137   9.338  0.8806  0.3467 -0.9222
  158SAPE  C31017711   5.461   5.341   9.308  0.8777  0.2488 -0.8786
  158SAPE  H10X17712   5.517   5.375   9.218  0.1623  2.4226 -0.5223
  158SAPE  H10Y17713   5.432   5.428   9.370 -2.3157 -0.9519 -0.5650
  158SAPE  C31117714   5.329   5.277   9.243  0.1032 -0.0618 -0.0765
  158SAPE  H11X17715   5.274   5.222   9.322 -1.7491 -0.6000 -1.7133
  158SAPE  H11Y17716   5.364   5.198   9.173 -1.3490  1.5594 -2.7425
  158SAPE  C31217717   5.227   5.367   9.171  0.0976  0.6454 -0.1273
  158SAPE  H12X17718   5.206   5.455   9.236  1.2830 -0.2876  1.5313
  158SAPE  H12Y17719   5.133   5.308   9.174  1.8286 -2.4848 -3.2955
  158SAPE  C31317720   5.277   5.415   9.036 -0.1805 -0.3927  0.2329
  158SAPE  H13X17721   5.328   5.331   8.986  3.4544  1.3842  0.8090
  158SAPE  H13Y17722   5.353   5.496   9.040  0.9451 -1.3149 -1.7810
  158SAPE  C31417723   5.163   5.477   8.949 -0.3864 -0.8934  0.0646
  158SAPE  H14X17724   5.103   5.552   9.004  0.3377 -0.8731  0.8491
  158SAPE  H14Y17725   5.100   5.395   8.909 -1.4374 -0.6176  1.1328
  158SAPE  C31517726   5.228   5.547   8.831 -0.3852  0.1179 -0.3611
  158SAPE  H15X17727   5.293   5.475   8.777 -0.8488  0.3615 -1.2670
  158SAPE  H15Y17728   5.297   5.630   8.859 -1.3108  0.5759  0.6093
  158SAPE  C31617729   5.130   5.603   8.720 -0.9881  0.0044 -0.0926
  158SAPE  H16X17730   5.183   5.645   8.632  0.1239 -0.4336  0.3511
  158SAPE  H16Y17731   5.074   5.688   8.765 -1.7113 -0.3975 -0.2256
  158SAPE  C31717732   5.026   5.508   8.678  0.2265  0.6201  1.1564
  158SAPE  H17X17733   4.964   5.466   8.760  0.0165  1.6070  1.5176
  158SAPE  H17Y17734   5.075   5.428   8.620 -0.1235  2.2719 -1.5077
  158SAPE  C31817735   4.912   5.573   8.582 -0.6957  0.2619  0.3434
  158SAPE  H18X17736   4.857   5.662   8.619 -1.0438 -0.0271  0.5335
  158SAPE  H18Y17737   4.848   5.483   8.568  1.8404 -1.5822  0.3172
  158SAPE  H18Z17738   4.951   5.596   8.481  0.4448 -2.2214  0.1804
  159SAPE     N17739   5.475   2.082   6.220  0.2770 -0.2167  0.3157
  159SAPE   HN117740   5.422   2.027   6.291  1.5320 -0.9869  0.6835
  159SAPE   HN217741   5.415   2.135   6.154 -0.3925 -1.3412  0.0130
  159SAPE   HN317742   5.518   2.005   6.165 -1.2732  0.1929 -1.5229
  159SAPE   C1217743   5.589   2.162   6.277 -0.3637  0.3868 -0.6888
  159SAPE  H12A17744   5.659   2.179   6.192 -0.1634  1.5955 -0.2844
  159SAPE  H12B17745   5.646   2.097   6.347 -0.3787 -0.2692 -1.2701
  159SAPE   C1117746   5.543   2.289   6.336  0.1678  0.4649  0.4442
  159SAPE  H11A17747   5.515   2.360   6.254 -0.2791  0.0608  0.2436
  159SAPE  H11B17748   5.626   2.336   6.392  1.0903 -1.3405  0.6142
  159SAPE     P17749   5.305   2.357   6.412  0.2147 -0.3279 -0.1264
  159SAPE   O1317750   5.330   2.497   6.370 -0.0778 -0.2252  0.4640
  159SAPE   O1417751   5.216   2.266   6.333 -0.3305 -0.8658  0.3608
  159SAPE   O1217752   5.442   2.283   6.435  0.0230  0.4027  0.4568
  159SAPE   O1117753   5.251   2.362   6.565  0.4650  0.2492  0.4138
  159SAPE    C117754   5.290   2.258   6.651  0.0294  0.2213 -0.5050
  159SAPE    HA17755   5.250   2.161   6.617 -0.5425  0.1793  0.2705
  159SAPE    HB17756   5.400   2.269   6.657 -0.1665  2.3191 -0.3926
  159SAPE    C217757   5.225   2.265   6.793 -0.0479 -0.2492 -0.5977
  159SAPE    HS17758   5.117   2.255   6.768 -0.4736 -1.8569  1.7724
  159SAPE   O2117759   5.268   2.386   6.847 -0.4008  0.1583 -0.3638
  159SAPE   C2117760   5.175   2.447   6.932  0.5573  0.3162  0.2026
  159SAPE   O2217761   5.069   2.397   6.956  0.2740  0.1616 -0.0431
  159SAPE   C2217762   5.207   2.593   6.963 -0.0871  0.5478  0.3308
  159SAPE   H2R17763   5.312   2.614   6.993 -0.2512  0.5005  0.9531
  159SAPE   H2S17764   5.185   2.650   6.870 -0.1872 -2.2669 -1.4101
  159SAPE    C317765   5.256   2.141   6.888  0.4653 -0.3791  0.5607
  159SAPE    HX17766   5.361   2.171   6.911 -0.2907  3.3130 -0.6265
  159SAPE    HY17767   5.267   2.048   6.828  2.0013 -1.1154  1.9218
  159SAPE   O3117768   5.171   2.140   7.009  0.4461  0.3264  0.1285
  159SAPE   C3117769   5.052   2.092   6.981  0.1648  0.5582  0.2136
  159SAPE   O3217770   5.009   2.057   6.874  0.6366 -0.1331  0.1218
  159SAPE   C3217771   4.978   2.091   7.115 -0.6927  0.0392 -0.0704
  159SAPE   H2X17772   4.875   2.059   7.087 -0.7305  0.5989 -0.5754
  159SAPE   H2Y17773   4.969   2.192   7.160 -0.2249  0.3796 -0.7336
  159SAPE   C2317774   5.096   2.650   7.066  0.1341  0.0138  0.1404
  159SAPE   H3R17775   4.997   2.622   7.025  0.2246 -1.7816  1.1103
  159SAPE   H3S17776   5.119   2.759   7.068 -1.8379  0.4220  1.0727
  159SAPE   C2417777   5.110   2.596   7.209 -0.2628  0.6332 -0.1959
  159SAPE   H4R17778   5.216   2.614   7.235  0.1304 -1.7001 -0.0737
  159SAPE   H4S17779   5.103   2.485   7.207  1.0879  0.3747  4.4991
  159SAPE   C2517780   5.023   2.662   7.306 -0.4188 -0.8005 -0.4973
  159SAPE   H5R17781   4.976   2.759   7.286  0.0901 -0.7529 -1.4715
  159SAPE   C2617782   4.997   2.608   7.427  0.1065  0.1592  1.0098
  159SAPE   H6R17783   4.924   2.670   7.482  0.0558  2.6021 -1.7065
  159SAPE   C2717784   5.056   2.477   7.479 -0.1729  0.7324 -0.4379
  159SAPE   H7R17785   5.146   2.491   7.542 -1.8385  1.9084  1.7615
  159SAPE   H7S17786   5.065   2.414   7.388 -3.3687  1.0462 -1.0323
  159SAPE   C2817787   4.943   2.425   7.570 -0.5238 -0.2704  0.0677
  159SAPE   H8R17788   4.900   2.333   7.526 -1.4795  1.3427 -2.5183
  159SAPE   C2917789   4.887   2.476   7.685 -0.2434  0.5396 -0.0662
  159SAPE   H9R17790   4.808   2.411   7.724  1.2120 -1.6362 -0.6939
  159SAPE  C21017791   4.934   2.594   7.760  0.7706  0.6921 -0.3596
  159SAPE  H10R17792   4.860   2.637   7.831  0.1932  3.4589 -2.5286
  159SAPE  H10S17793   4.940   2.682   7.691 -0.4993  0.2066 -1.1087
  159SAPE  C21117794   5.065   2.559   7.834  0.1528  0.2769 -0.0477
  159SAPE  H11R17795   5.158   2.574   7.777 -1.3579  2.0711 -2.1321
  159SAPE  C21217796   5.073   2.501   7.957 -0.4087  0.4128  0.2618
  159SAPE  H12R17797   5.174   2.476   7.993 -0.1051 -1.5421 -1.8286
  159SAPE  C21317798   4.952   2.466   8.049  0.3153  0.1542  0.6399
  159SAPE  H13R17799   4.943   2.356   8.054 -0.2793  0.1567 -0.2520
  159SAPE  H13S17800   4.856   2.508   8.011  1.2757  1.1060 -0.7819
  159SAPE  C21417801   4.967   2.533   8.184  0.2283  0.2872 -0.3578
  159SAPE  H14R17802   4.979   2.643   8.182  3.1258 -0.0131 -1.7704
  159SAPE  C21517803   4.970   2.474   8.306 -0.1825 -0.5832 -0.3356
  159SAPE  H15R17804   4.983   2.540   8.393  2.3592  2.1640 -2.6755
  159SAPE  C21617805   4.966   2.330   8.340 -0.0107  0.3777 -0.0577
  159SAPE  H16R17806   5.026   2.305   8.430 -1.2381  1.5173  1.0966
  159SAPE  H16S17807   4.995   2.270   8.251  0.0615  0.2699  0.0387
  159SAPE  C21717808   4.820   2.277   8.382 -0.7398  0.0418  0.7607
  159SAPE  H17R17809   4.738   2.268   8.308 -1.7486 -1.4369  2.0163
  159SAPE  H17S17810   4.780   2.342   8.462 -1.1435 -0.6825  1.1543
  159SAPE  C21817811   4.818   2.142   8.451  0.6032 -0.1230 -0.1263
  159SAPE  H18R17812   4.855   2.170   8.552  0.4146  1.1733 -0.4140
  159SAPE  H18S17813   4.900   2.087   8.400  2.4713 -0.2422  2.8825
  159SAPE  C21917814   4.683   2.070   8.459 -0.4262  0.1423  0.3459
  159SAPE  H19R17815   4.643   2.054   8.357  0.9990  1.0291 -0.3742
  159SAPE  H19S17816   4.605   2.129   8.511 -1.1605 -0.6933  0.2003
  159SAPE  C22017817   4.691   1.936   8.541  0.2733 -0.6448 -0.1216
  159SAPE  H20R17818   4.766   1.876   8.485 -0.1984 -0.3215 -1.1158
  159SAPE  H20S17819   4.597   1.879   8.534  0.8899 -1.6690 -0.1256
  159SAPE  H20T17820   4.719   1.964   8.645  0.6033 -2.1267  0.1902
  159SAPE   C3317821   5.047   2.011   7.223 -0.1186 -0.6774  0.3472
  159SAPE   H3X17822   5.153   2.045   7.227  0.2174 -1.6139 -0.2836
  159SAPE   H3Y17823   5.052   1.905   7.188 -0.7006 -0.1366 -1.4088
  159SAPE   C3417824   4.978   2.024   7.359  0.3900 -0.4765 -0.4057
  159SAPE   H4X17825   4.882   1.969   7.368  0.0899  0.2969  1.3306
  159SAPE   H4Y17826   4.960   2.133   7.361  0.9922 -0.3603 -0.9372
  159SAPE   C3517827   5.075   1.984   7.476  0.3570 -0.6124  1.2505
  159SAPE   H5X17828   5.177   2.021   7.452 -0.5950  1.9182  0.9984
  159SAPE   H5Y17829   5.074   1.876   7.501  0.4969 -1.3851 -1.9709
  159SAPE   C3617830   5.035   2.047   7.612  0.2940 -0.0492 -0.1004
  159SAPE   H6X17831   4.929   2.016   7.626  0.3593 -0.3077 -0.1825
  159SAPE   H6Y17832   5.026   2.157   7.598  1.0374  0.1304  0.7760
  159SAPE   C3717833   5.126   2.026   7.732 -0.3057 -0.0146  0.4020
  159SAPE   H7X17834   5.234   2.017   7.708 -0.6539 -2.0089 -0.5485
  159SAPE   H7Y17835   5.101   1.930   7.782  0.3840 -0.3831  0.0500
  159SAPE   C3817836   5.109   2.137   7.834  0.3335 -0.1270 -0.6219
  159SAPE   H8X17837   5.001   2.138   7.861  0.8830  1.2330  1.7541
  159SAPE   H8Y17838   5.138   2.229   7.778 -1.3757  1.3259  0.8100
  159SAPE   C3917839   5.204   2.130   7.957 -0.5390  0.0391 -0.1218
  159SAPE   H9X17840   5.205   2.228   8.009 -1.3677 -0.3793  0.6883
  159SAPE   H9Y17841   5.307   2.093   7.935 -0.7049  0.2526 -1.3097
  159SAPE  C31017842   5.144   2.040   8.068 -0.9057  0.3578  0.6456
  159SAPE  H10X17843   5.149   1.934   8.036  0.7342  0.2951  1.0559
  159SAPE  H10Y17844   5.034   2.051   8.075 -1.0234 -0.2430 -0.2269
  159SAPE  C31117845   5.226   2.046   8.198 -0.0257  0.2230  0.1436
  159SAPE  H11X17846   5.219   2.151   8.236  0.4006 -0.1172  1.1787
  159SAPE  H11Y17847   5.332   2.016   8.182 -1.0390 -2.9754 -0.7623
  159SAPE  C31217848   5.164   1.956   8.306 -1.4832  0.1831  0.1222
  159SAPE  H12X17849   5.185   1.853   8.269 -1.0909  0.2672  0.1049
  159SAPE  H12Y17850   5.057   1.981   8.324 -1.3309  0.1343  1.1689
  159SAPE  C31317851   5.239   1.978   8.438 -0.3065  0.2244 -0.1418
  159SAPE  H13X17852   5.228   2.086   8.462  1.9101  0.5982 -0.7219
  159SAPE  H13Y17853   5.349   1.972   8.420  0.0099  0.4736  1.6322
  159SAPE  C31417854   5.189   1.905   8.552 -0.4115  0.2072  0.5719
  159SAPE  H14X17855   5.233   1.803   8.557 -0.8009  0.0245  0.3461
  159SAPE  H14Y17856   5.080   1.892   8.533 -0.4589  2.0330 -0.5547
  159SAPE  C31517857   5.184   1.974   8.683  0.3355  0.4184 -0.4247
  159SAPE  H15X17858   5.145   2.078   8.679  1.3281  0.8254  0.3155
  159SAPE  H15Y17859   5.288   1.987   8.720  1.4799 -4.6126 -1.5506
  159SAPE  C31617860   5.114   1.897   8.794  0.0708  0.4346 -0.3011
  159SAPE  H16X17861   5.105   1.791   8.762 -2.3160  0.7380 -0.7428
  159SAPE  H16Y17862   5.012   1.939   8.812  0.2592  0.7805 -0.0275
  159SAPE  C31717863   5.183   1.903   8.930 -0.6559 -0.1180 -0.0230
  159SAPE  H17X17864   5.183   2.011   8.958 -0.3251  0.4469 -2.1388
  159SAPE  H17Y17865   5.285   1.862   8.917 -0.7583  0.4889 -3.2042
  159SAPE  C31817866   5.106   1.830   9.036 -0.2340  0.0245 -0.9708
  159SAPE  H18X17867   5.009   1.875   9.065 -0.3037 -0.6858 -0.0580
  159SAPE  H18Y17868   5.157   1.820   9.134  0.2779 -1.0945 -1.3426
  159SAPE  H18Z17869   5.095   1.723   9.007 -0.9096 -0.2222  0.1572
  160SAPE     N17870   3.856   2.906   6.597 -0.2236  0.2260  0.1874
  160SAPE   HN117871   3.960   2.913   6.590  0.1942 -2.7488  2.2051
  160SAPE   HN217872   3.847   2.809   6.634  0.7105 -0.2275 -0.7540
  160SAPE   HN317873   3.801   2.910   6.509  1.5857 -0.1986 -0.9921
  160SAPE   C1217874   3.809   3.011   6.692 -0.4179 -0.0508  0.1806
  160SAPE  H12A17875   3.874   3.006   6.782 -0.1583  0.1276  0.0026
  160SAPE  H12B17876   3.704   2.995   6.725  0.1043 -0.3433  1.7395
  160SAPE   C1117877   3.831   3.153   6.633 -0.5538 -0.1454  0.2272
  160SAPE  H11A17878   3.796   3.227   6.707 -2.9678  0.2644 -1.2761
  160SAPE  H11B17879   3.767   3.174   6.545 -1.4626 -0.0631  0.9006
  160SAPE     P17880   4.010   3.272   6.503 -0.2827 -0.5420  0.1804
  160SAPE   O1317881   4.154   3.300   6.520  0.4889  0.3436  0.0366
  160SAPE   O1417882   3.971   3.219   6.375  0.3246 -0.2836  0.6194
  160SAPE   O1217883   3.970   3.172   6.615 -0.6365 -0.0400 -0.3750
  160SAPE   O1117884   3.918   3.395   6.534  0.8024 -0.0547  0.0143
  160SAPE    C117885   3.972   3.506   6.608  0.1477 -0.3241  0.3070
  160SAPE    HA17886   4.081   3.522   6.592 -0.4178  0.9709 -2.3610
  160SAPE    HB17887   3.936   3.603   6.569 -2.0898 -1.4856 -0.5797
  160SAPE    C217888   3.941   3.506   6.758 -0.2799  0.1812 -0.0473
  160SAPE    HS17889   3.961   3.400   6.787  1.7402  0.2095 -1.2262
  160SAPE   O2117890   3.806   3.549   6.778  0.1490 -0.5049  0.2889
  160SAPE   C2117891   3.720   3.487   6.853  0.6889 -0.5949 -0.6184
  160SAPE   O2217892   3.731   3.373   6.897  0.2555  0.1225 -0.3161
  160SAPE   C2217893   3.611   3.587   6.891  0.0212 -0.5650  0.3406
  160SAPE   H2R17894   3.662   3.684   6.910 -1.3230  0.1384  0.4307
  160SAPE   H2S17895   3.545   3.603   6.804 -0.0121  1.9309  0.7975
  160SAPE    C317896   4.043   3.592   6.844  0.2779  0.5662 -0.2140
  160SAPE    HX17897   4.150   3.568   6.828 -0.1688 -0.7890 -1.3072
  160SAPE    HY17898   4.024   3.551   6.945  0.8684  1.2078  0.1596
  160SAPE   O3117899   4.017   3.732   6.832 -0.2639  0.4609  0.4279
  160SAPE   C3117900   3.979   3.797   6.945 -0.2593 -0.4254  0.1210
  160SAPE   O3217901   3.932   3.744   7.044 -0.1466  0.1836  0.6018
  160SAPE   C3217902   3.993   3.947   6.921  0.2838 -0.0097 -0.0969
  160SAPE   H2X17903   3.935   3.979   6.831 -0.0336  0.5461  0.2970
  160SAPE   H2Y17904   4.102   3.967   6.910  0.2559  0.5205  0.5182
  160SAPE   C2317905   3.527   3.539   7.014  0.1877 -0.1105 -0.3451
  160SAPE   H3R17906   3.468   3.446   6.998 -0.7173 -0.2855  3.5768
  160SAPE   H3S17907   3.458   3.623   7.037  0.3978  0.0000 -0.1109
  160SAPE   C2417908   3.608   3.527   7.147 -0.0593 -0.2084 -0.2488
  160SAPE   H4R17909   3.694   3.456   7.141  2.9200  3.2362 -0.3487
  160SAPE   H4S17910   3.546   3.472   7.220 -0.0642 -1.6956 -1.3490
  160SAPE   C2517911   3.661   3.660   7.201 -0.7845 -0.3466 -0.7578
  160SAPE   H5R17912   3.763   3.685   7.168  0.5644 -1.8625  2.1328
  160SAPE   C2617913   3.601   3.749   7.279 -0.3159  0.8864 -0.4015
  160SAPE   H6R17914   3.651   3.845   7.298 -2.3338  1.8717 -0.0055
  160SAPE   C2717915   3.464   3.732   7.337  0.1756 -0.4737  0.0947
  160SAPE   H7R17916   3.441   3.625   7.356  0.9630 -0.9375 -1.4582
  160SAPE   H7S17917   3.396   3.759   7.254  0.6057 -0.3013 -0.2055
  160SAPE   C2817918   3.434   3.825   7.451  0.3568 -0.5852 -0.0826
  160SAPE   H8R17919   3.360   3.903   7.428 -0.5206 -1.4049 -0.1009
  160SAPE   C2917920   3.493   3.823   7.574 -0.2257  0.4076 -0.1022
  160SAPE   H9R17921   3.470   3.892   7.657 -2.6628  0.5990 -0.8838
  160SAPE  C21017922   3.592   3.710   7.612 -0.2336  0.2999  0.1096
  160SAPE  H10R17923   3.628   3.646   7.530  0.6471  0.5208  0.3200
  160SAPE  H10S17924   3.526   3.646   7.674  0.0146  0.3515  0.4309
  160SAPE  C21117925   3.713   3.757   7.678  0.1070 -0.2578 -0.9103
  160SAPE  H11R17926   3.796   3.756   7.605  3.8575 -1.4359  3.1399
  160SAPE  C21217927   3.738   3.778   7.809 -0.1402  0.0412  0.5146
  160SAPE  H12R17928   3.841   3.810   7.827 -0.2422  0.3002  0.6309
  160SAPE  C21317929   3.636   3.767   7.924 -0.5327  0.2017  0.1385
  160SAPE  H13R17930   3.616   3.662   7.954 -2.2723  0.4754 -0.0322
  160SAPE  H13S17931   3.539   3.809   7.892 -0.4674  0.1759 -0.0914
  160SAPE  C21417932   3.672   3.848   8.048 -0.8428 -0.0024  0.4668
  160SAPE  H14R17933   3.771   3.896   8.052 -0.2089 -1.2702  0.6291
  160SAPE  C21517934   3.596   3.853   8.157  0.2591  0.4687  0.3120
  160SAPE  H15R17935   3.644   3.894   8.247  0.8964 -3.2680  1.7397
  160SAPE  C21617936   3.465   3.787   8.178 -0.0649 -0.2251  0.4822
  160SAPE  H16R17937   3.464   3.678   8.160  1.1458 -0.2448  0.4718
  160SAPE  H16S17938   3.396   3.825   8.100  0.7291 -2.9220 -1.6191
  160SAPE  C21717939   3.392   3.818   8.310  0.5450 -0.2095 -0.3163
  160SAPE  H17R17940   3.453   3.774   8.391 -1.4003 -0.0941  1.2539
  160SAPE  H17S17941   3.298   3.759   8.319 -0.1757  1.2592  2.1258
  160SAPE  C21817942   3.354   3.961   8.346 -0.2980 -0.0076 -0.0091
  160SAPE  H18R17943   3.310   4.004   8.254 -1.5275 -0.8231  0.1988
  160SAPE  H18S17944   3.449   4.017   8.364  0.2763 -1.1792  0.6865
  160SAPE  C21917945   3.264   3.982   8.463  0.4218 -0.0724  0.2300
  160SAPE  H19R17946   3.159   3.948   8.451  0.9240 -1.5904  0.0542
  160SAPE  H19S17947   3.260   4.092   8.480  2.2899  0.0853 -0.2820
  160SAPE  C22017948   3.322   3.913   8.592 -0.5338  0.0953 -0.6891
  160SAPE  H20R17949   3.317   3.803   8.587  0.4810 -0.0671  1.4443
  160SAPE  H20S17950   3.265   3.954   8.678 -0.0267 -0.5744 -0.0397
  160SAPE  H20T17951   3.429   3.935   8.611 -0.7347 -0.1482  0.7667
  160SAPE   C3317952   3.945   4.038   7.039 -0.4368  0.1067  0.2206
  160SAPE   H3X17953   3.987   4.137   7.010 -1.5054  0.8033  0.9918
  160SAPE   H3Y17954   3.994   4.003   7.132 -4.1058 -2.8085  1.1976
  160SAPE   C3417955   3.796   4.052   7.057  0.1621 -1.2356 -0.1224
  160SAPE   H4X17956   3.757   3.949   7.076 -0.5948 -1.6964 -3.7802
  160SAPE   H4Y17957   3.741   4.076   6.964 -3.1664 -0.5940  1.9025
  160SAPE   C3517958   3.748   4.160   7.162  0.0799 -0.0564 -0.4483
  160SAPE   H5X17959   3.637   4.152   7.166  0.1495 -0.5003  0.9787
  160SAPE   H5Y17960   3.773   4.258   7.117  1.1726  0.2157  0.7136
  160SAPE   C3617961   3.812   4.145   7.297 -0.5752 -0.0119 -0.5753
  160SAPE   H6X17962   3.915   4.183   7.281  0.0281 -1.2879  0.1799
  160SAPE   H6Y17963   3.824   4.041   7.334 -3.4871 -0.0115  0.4778
  160SAPE   C3717964   3.747   4.237   7.407 -0.5692 -0.2046 -0.4458
  160SAPE   H7X17965   3.636   4.231   7.402 -0.6048  1.5065 -2.9648
  160SAPE   H7Y17966   3.774   4.342   7.385  1.4737 -0.5923  0.1717
  160SAPE   C3817967   3.786   4.191   7.552 -0.5285 -0.2773 -0.0926
  160SAPE   H8X17968   3.895   4.213   7.553 -0.5669 -0.0743 -0.4165
  160SAPE   H8Y17969   3.753   4.088   7.579  0.4950 -1.0477 -1.7449
  160SAPE   C3917970   3.714   4.279   7.659 -0.1855  0.5290  0.3925
  160SAPE   H9X17971   3.605   4.263   7.648  0.2798 -1.5955 -1.3092
  160SAPE   H9Y17972   3.745   4.385   7.647  4.7492 -0.6886  1.1785
  160SAPE  C31017973   3.763   4.236   7.793  0.0347  0.2269 -0.3080
  160SAPE  H10X17974   3.866   4.277   7.799  0.5083 -0.7930 -1.4600
  160SAPE  H10Y17975   3.755   4.127   7.813 -2.7823  0.6490  1.1536
  160SAPE  C31117976   3.681   4.310   7.898 -0.0074 -0.0953 -0.3415
  160SAPE  H11X17977   3.579   4.268   7.892 -0.2900  0.5662 -0.1596
  160SAPE  H11Y17978   3.662   4.412   7.859 -2.4139 -0.0640  0.8458
  160SAPE  C31217979   3.738   4.309   8.037  0.1544 -0.7619 -0.2307
  160SAPE  H12X17980   3.831   4.370   8.037  1.1025 -2.1727  0.5789
  160SAPE  H12Y17981   3.773   4.210   8.073 -1.1388 -1.6049 -1.2520
  160SAPE  C31317982   3.646   4.374   8.141  0.0355  0.5208  0.1488
  160SAPE  H13X17983   3.562   4.306   8.168 -0.4585  1.6965  1.5854
  160SAPE  H13Y17984   3.600   4.465   8.097  0.5296  1.2950  1.2250
  160SAPE  C31417985   3.712   4.417   8.273  0.5248  0.8031 -0.0467
  160SAPE  H14X17986   3.646   4.473   8.342 -0.0568  1.1016 -0.8443
  160SAPE  H14Y17987   3.787   4.495   8.249  0.6263  0.5730 -0.4894
  160SAPE  C31517988   3.774   4.302   8.356  0.2497 -0.0515 -0.1542
  160SAPE  H15X17989   3.823   4.343   8.447 -0.9945 -1.6494  1.2756
  160SAPE  H15Y17990   3.849   4.245   8.297  0.3245 -0.5306  0.3955
  160SAPE  C31617991   3.680   4.188   8.398 -0.7778 -0.1876 -0.0250
  160SAPE  H16X17992   3.634   4.148   8.305 -2.7578 -0.1177  0.9159
  160SAPE  H16Y17993   3.600   4.218   8.469  0.1850  1.7761  0.2517
  160SAPE  C31717994   3.761   4.071   8.461  0.0698 -0.3607 -0.7046
  160SAPE  H17X17995   3.835   4.037   8.386  1.4362  0.2403  0.3475
  160SAPE  H17Y17996   3.696   3.986   8.490  3.3983 -2.8089 -0.1880
  160SAPE  C31817997   3.829   4.104   8.599 -0.1545 -0.1761  0.4609
  160SAPE  H18X17998   3.872   4.206   8.589  0.7257 -0.5144  0.7727
  160SAPE  H18Y17999   3.890   4.014   8.622  1.8605  0.4290 -2.3216
  160SAPE  H18Z18000   3.751   4.115   8.678 -1.9458  1.9055 -1.5281
  161SAPE     N18001   6.204   1.216   5.998  0.0348  0.6604 -0.8814
  161SAPE   HN118002   6.210   1.254   5.901 -0.9622  0.1652 -1.1391
  161SAPE   HN218003   6.188   1.294   6.065 -2.0150 -1.8628  1.6822
  161SAPE   HN318004   6.292   1.167   6.024  0.6402  3.3297  2.5307
  161SAPE   C1218005   6.074   1.128   6.013 -1.0608 -0.4991 -0.0530
  161SAPE  H12A18006   6.097   1.031   5.964  0.7567 -0.0831 -0.0585
  161SAPE  H12B18007   5.991   1.175   5.955 -0.7090 -0.1594 -0.2884
  161SAPE   C1118008   6.036   1.114   6.159 -0.1960  0.2113  0.3649
  161SAPE  H11A18009   5.947   1.048   6.171  2.3814 -3.0735  2.5693
  161SAPE  H11B18010   6.010   1.213   6.201  1.3480 -0.3255  2.6863
  161SAPE     P18011   6.155   1.072   6.391 -0.0646 -0.1093 -0.4722
  161SAPE   O1318012   6.026   1.061   6.465  0.5301 -0.3806 -0.2119
  161SAPE   O1418013   6.266   0.979   6.435 -0.5599 -0.4123  0.0904
  161SAPE   O1218014   6.138   1.058   6.239 -0.4922  0.1982  0.2322
  161SAPE   O1118015   6.217   1.220   6.399  0.1278  0.0781 -0.4471
  161SAPE    C118016   6.129   1.331   6.431  0.3912 -0.1482  0.1641
  161SAPE    HA18017   6.145   1.412   6.356 -0.6537 -1.0217 -1.0245
  161SAPE    HB18018   6.020   1.308   6.428  0.4075 -0.1336 -0.6545
  161SAPE    C218019   6.146   1.387   6.583  0.8088 -0.2138  0.2671
  161SAPE    HS18020   6.256   1.399   6.594  0.7643  2.0949 -1.4769
  161SAPE   O2118021   6.077   1.299   6.669 -0.2665 -0.5167  0.4701
  161SAPE   C2118022   6.152   1.246   6.768  0.1820 -0.4856 -0.2719
  161SAPE   O2218023   6.259   1.290   6.801  0.2936 -1.0413 -0.7143
  161SAPE   C2218024   6.068   1.141   6.846  0.2856 -0.4963  1.2969
  161SAPE   H2R18025   5.964   1.153   6.810  1.1599 -2.9773 -2.3222
  161SAPE   H2S18026   6.096   1.037   6.818  1.8913 -0.1950  1.6943
  161SAPE    C318027   6.091   1.529   6.604 -0.5164  0.2960  0.2385
  161SAPE    HX18028   5.984   1.501   6.595  0.3406 -2.4408 -1.8678
  161SAPE    HY18029   6.110   1.603   6.523 -2.0612  0.0699 -0.3446
  161SAPE   O3118030   6.109   1.585   6.735  0.0913 -0.0011  0.9640
  161SAPE   C3118031   6.227   1.621   6.765 -0.1214 -0.1438 -0.2325
  161SAPE   O3218032   6.327   1.613   6.698 -0.5588 -0.1058  0.0692
  161SAPE   C3218033   6.224   1.682   6.910 -0.2145  0.0455  0.8307
  161SAPE   H2X18034   6.138   1.640   6.967 -2.7230  2.7707 -0.7823
  161SAPE   H2Y18035   6.195   1.787   6.892  0.7730 -0.0382 -1.3414
  161SAPE   C2318036   6.070   1.168   6.999  0.4409 -0.1096 -0.7590
  161SAPE   H3R18037   6.166   1.131   7.042  0.4600  2.3444  1.4558
  161SAPE   H3S18038   6.000   1.092   7.040  0.3691 -0.1375 -0.9343
  161SAPE   C2418039   6.030   1.311   7.046  0.6960 -0.3941  0.5386
  161SAPE   H4R18040   6.087   1.390   6.994 -0.9475  0.4703  0.0345
  161SAPE   H4S18041   6.050   1.312   7.155  1.8441  0.6235  0.3335
  161SAPE   C2518042   5.883   1.332   7.028  0.3881 -1.3846  0.2100
  161SAPE   H5R18043   5.843   1.295   6.933  1.1283 -0.0104 -0.6505
  161SAPE   C2618044   5.805   1.395   7.121 -0.4103 -1.0612 -0.1436
  161SAPE   H6R18045   5.698   1.400   7.100  0.0172  0.9408 -2.0619
  161SAPE   C2718046   5.863   1.458   7.251  0.9682 -0.1265  0.6671
  161SAPE   H7R18047   5.944   1.400   7.299  0.7142 -0.6666  0.4456
  161SAPE   H7S18048   5.777   1.468   7.321 -1.0793 -0.5538 -1.7189
  161SAPE   C2818049   5.912   1.599   7.237  0.7796 -0.0654 -0.5019
  161SAPE   H8R18050   5.894   1.645   7.139  0.1747 -0.6966 -0.6924
  161SAPE   C2918051   5.965   1.679   7.338 -0.6238  0.2275  0.0810
  161SAPE   H9R18052   6.005   1.779   7.317 -0.4575  0.0373 -0.5097
  161SAPE  C21018053   5.991   1.635   7.482  0.5209 -0.0259  0.5637
  161SAPE  H10R18054   5.953   1.532   7.499  1.3822  0.2500  4.5881
  161SAPE  H10S18055   5.938   1.699   7.557  0.2220  0.4074 -0.0139
  161SAPE  C21118056   6.145   1.629   7.513 -0.3057 -0.7873  0.1592
  161SAPE  H11R18057   6.198   1.566   7.441 -0.4409 -2.2972  1.3734
  161SAPE  C21218058   6.211   1.693   7.609 -0.0722  0.4761  0.0840
  161SAPE  H12R18059   6.320   1.681   7.614 -0.1866 -0.6605 -0.1215
  161SAPE  C21318060   6.145   1.788   7.706  0.5804 -0.3538  0.3547
  161SAPE  H13R18061   6.055   1.830   7.657 -1.3824 -1.1242  3.1914
  161SAPE  H13S18062   6.207   1.880   7.715 -1.3150  1.0700 -0.7362
  161SAPE  C21418063   6.102   1.742   7.839 -0.1210 -0.2049  0.5064
  161SAPE  H14R18064   6.051   1.644   7.841 -1.1397  0.3440  3.3582
  161SAPE  C21518065   6.127   1.805   7.957 -0.4944 -0.4698 -0.2552
  161SAPE  H15R18066   6.075   1.771   8.047 -0.6619  0.8133  0.1415
  161SAPE  C21618067   6.203   1.933   7.977  0.2272  0.9153 -0.3650
  161SAPE  H16R18068   6.136   2.016   7.946 -0.5887  0.2935 -0.2636
  161SAPE  H16S18069   6.286   1.926   7.903  0.2888 -1.5584 -0.1037
  161SAPE  C21718070   6.253   1.939   8.121 -0.5272 -0.2311  0.1591
  161SAPE  H17R18071   6.164   1.940   8.188  1.0289  0.5467  2.2729
  161SAPE  H17S18072   6.287   2.040   8.151  2.6230 -1.4262  0.7772
  161SAPE  C21818073   6.350   1.827   8.162 -0.2759  0.8560  0.0394
  161SAPE  H18R18074   6.451   1.850   8.120 -0.7522  0.8110 -1.1733
  161SAPE  H18S18075   6.324   1.721   8.142  1.2229  0.2560  1.1914
  161SAPE  C21918076   6.370   1.834   8.320  0.4568 -0.8819 -0.1885
  161SAPE  H19R18077   6.273   1.858   8.369  1.1276 -2.1053  1.7873
  161SAPE  H19S18078   6.434   1.920   8.347  3.3735 -2.9289 -0.3455
  161SAPE  C22018079   6.414   1.703   8.370  0.1917  0.3189 -0.0029
  161SAPE  H20R18080   6.506   1.672   8.315  1.2695 -0.9596  2.4184
  161SAPE  H20S18081   6.331   1.629   8.363  0.8290 -0.4864  0.6801
  161SAPE  H20T18082   6.433   1.711   8.480 -1.1329  0.7843  0.2047
  161SAPE   C3318083   6.355   1.650   6.987  0.1763  0.2592 -0.4510
  161SAPE   H3X18084   6.342   1.728   7.065 -1.1680  0.4426 -0.8349
  161SAPE   H3Y18085   6.440   1.661   6.917  1.3341 -0.4250  0.8382
  161SAPE   C3418086   6.356   1.519   7.066  0.7721  0.0584  0.2794
  161SAPE   H4X18087   6.375   1.434   6.997  0.7766  1.0424 -0.9509
  161SAPE   H4Y18088   6.252   1.504   7.101  1.2169 -1.1029  1.1337
  161SAPE   C3518089   6.452   1.519   7.182 -0.0212 -0.2052  0.1080
  161SAPE   H5X18090   6.408   1.578   7.266 -2.1680 -1.5318 -0.0546
  161SAPE   H5Y18091   6.543   1.563   7.137 -1.3945 -0.1270 -2.6758
  161SAPE   C3618092   6.477   1.376   7.236  0.5034 -0.6021  0.1120
  161SAPE   H6X18093   6.494   1.312   7.147 -1.6780  0.9424 -1.4802
  161SAPE   H6Y18094   6.389   1.330   7.285 -0.1897 -1.6341 -2.0195
  161SAPE   C3718095   6.610   1.368   7.316 -0.5907 -0.3211 -0.5121
  161SAPE   H7X18096   6.610   1.463   7.374  3.1719 -1.3448  1.2760
  161SAPE   H7Y18097   6.698   1.361   7.248  0.0423  4.1197 -0.3140
  161SAPE   C3818098   6.618   1.246   7.412 -0.2702 -0.3238 -0.0934
  161SAPE   H8X18099   6.622   1.152   7.353  0.2460 -1.6112  1.9098
  161SAPE   H8Y18100   6.530   1.237   7.478 -0.5449 -0.4434 -0.4774
  161SAPE   C3918101   6.745   1.245   7.497 -0.2375  0.2742  0.3206
  161SAPE   H9X18102   6.812   1.331   7.476 -1.1375  1.1207  0.8940
  161SAPE   H9Y18103   6.808   1.157   7.469 -1.0792 -0.5869  1.0734
  161SAPE  C31018104   6.718   1.239   7.652  0.4467  0.2224 -0.4323
  161SAPE  H10X18105   6.815   1.229   7.704 -0.7495 -4.0289  1.1680
  161SAPE  H10Y18106   6.659   1.146   7.665  1.0636  0.1373  2.0539
  161SAPE  C31118107   6.638   1.366   7.698  0.2821 -0.2016  0.1643
  161SAPE  H11X18108   6.540   1.355   7.646  1.5226  1.9357 -2.7856
  161SAPE  H11Y18109   6.687   1.460   7.662  0.4240 -0.9157 -1.5593
  161SAPE  C31218110   6.609   1.358   7.854 -0.0636 -1.0849  0.4167
  161SAPE  H12X18111   6.561   1.261   7.877 -0.4743 -0.8438  0.5875
  161SAPE  H12Y18112   6.544   1.444   7.882  2.4447  0.2303  2.5289
  161SAPE  C31318113   6.732   1.390   7.938  0.5189  0.1114  0.0359
  161SAPE  H13X18114   6.780   1.477   7.889 -0.4163 -0.9295 -2.8500
  161SAPE  H13Y18115   6.808   1.313   7.914 -0.8505 -2.0513  2.3368
  161SAPE  C31418116   6.704   1.395   8.082 -0.3673  0.0649  0.6132
  161SAPE  H14X18117   6.654   1.299   8.106  0.8861 -1.5733 -2.9452
  161SAPE  H14Y18118   6.625   1.473   8.094  0.8240  1.9595 -2.8600
  161SAPE  C31518119   6.832   1.425   8.168  0.1365  0.6420  0.7162
  161SAPE  H15X18120   6.874   1.526   8.145 -0.6061  0.2676 -2.4358
  161SAPE  H15Y18121   6.905   1.344   8.146 -1.3693 -0.0970 -1.6949
  161SAPE  C31618122   6.806   1.418   8.324 -0.0245  0.6780 -0.0164
  161SAPE  H16X18123   6.706   1.466   8.324  0.2211  1.2642 -2.4022
  161SAPE  H16Y18124   6.860   1.485   8.394  0.6034 -1.4614  1.5684
  161SAPE  C31718125   6.806   1.270   8.370  0.1544  0.4455  0.9659
  161SAPE  H17X18126   6.908   1.227   8.363  0.4180  1.6046 -4.2648
  161SAPE  H17Y18127   6.751   1.217   8.290  3.1367  0.1635 -0.9967
  161SAPE  C31818128   6.732   1.263   8.505 -0.1759  0.2230  0.2749
  161SAPE  H18X18129   6.631   1.307   8.490 -0.3476 -0.2010  0.1791
  161SAPE  H18Y18130   6.787   1.309   8.590 -1.1880 -0.7801  1.4913
  161SAPE  H18Z18131   6.731   1.154   8.527 -1.0116  0.3290  0.7371
  162SAPE     N18132   4.524   4.183   6.121  0.1911 -0.6789  0.0898
  162SAPE   HN118133   4.526   4.134   6.030  2.8159  0.5273 -0.5334
  162SAPE   HN218134   4.578   4.271   6.116 -0.2062 -0.4036  0.5756
  162SAPE   HN318135   4.571   4.117   6.186 -0.8547 -0.9371  0.6026
  162SAPE   C1218136   4.370   4.204   6.152 -0.4798 -0.1991  0.1736
  162SAPE  H12A18137   4.322   4.107   6.124 -0.9213  0.4010 -1.2111
  162SAPE  H12B18138   4.334   4.286   6.086 -1.5268  0.4340  1.5270
  162SAPE   C1118139   4.361   4.243   6.301 -0.4119  0.9393  0.8122
  162SAPE  H11A18140   4.400   4.347   6.309 -1.0927  1.2413  0.2823
  162SAPE  H11B18141   4.423   4.171   6.358 -0.3706 -1.7226 -2.3956
  162SAPE     P18142   4.153   4.101   6.366 -0.0729  0.0281  0.2665
  162SAPE   O1318143   4.013   4.136   6.385  0.0711 -0.2395 -0.0680
  162SAPE   O1418144   4.172   4.004   6.253  0.4992 -0.2148 -0.0908
  162SAPE   O1218145   4.229   4.240   6.349 -0.2975  0.6638 -0.0784
  162SAPE   O1118146   4.215   4.047   6.497  0.1031 -0.2390 -0.3599
  162SAPE    C118147   4.187   4.109   6.624  0.6385  0.1515 -0.0410
  162SAPE    HA18148   4.078   4.115   6.644  1.0674  0.9338  2.1332
  162SAPE    HB18149   4.225   4.036   6.698 -1.4678 -2.0548 -1.0850
  162SAPE    C218150   4.252   4.246   6.650 -0.6779  0.1969  0.2653
  162SAPE    HS18151   4.216   4.314   6.569 -0.6515  0.9391  0.8785
  162SAPE   O2118152   4.398   4.232   6.642  0.0907 -0.2148  0.2102
  162SAPE   C2118153   4.473   4.341   6.640  0.3086  0.1197 -0.5527
  162SAPE   O2218154   4.427   4.454   6.625  0.3965 -0.0667  0.2629
  162SAPE   C2218155   4.616   4.299   6.674  0.1524 -0.8632 -0.5723
  162SAPE   H2R18156   4.619   4.201   6.726  2.8080 -0.4494  0.0952
  162SAPE   H2S18157   4.659   4.275   6.575 -1.5749  1.5963 -1.9740
  162SAPE    C318158   4.204   4.307   6.788 -0.4715 -0.2041  0.0909
  162SAPE    HX18159   4.094   4.304   6.779 -0.5373 -0.8238  1.1284
  162SAPE    HY18160   4.246   4.409   6.802  2.4751 -1.1079 -1.5626
  162SAPE   O3118161   4.230   4.212   6.889 -0.0233 -0.1707  0.2808
  162SAPE   C3118162   4.340   4.230   6.955  0.2328  0.2094  0.1747
  162SAPE   O3218163   4.423   4.318   6.941 -0.1090 -0.5905 -0.2039
  162SAPE   C3218164   4.361   4.102   7.050  0.3203 -0.1785  0.1691
  162SAPE   H2X18165   4.434   4.041   6.993  0.1191  0.0213 -0.3013
  162SAPE   H2Y18166   4.264   4.049   7.053  0.5393 -0.6143 -0.3869
  162SAPE   C2318167   4.692   4.409   6.751  0.3267 -0.2545 -0.3070
  162SAPE   H3R18168   4.641   4.426   6.848 -0.3544  2.2593 -1.0444
  162SAPE   H3S18169   4.670   4.501   6.691 -1.4510 -0.7123 -0.3985
  162SAPE   C2418170   4.843   4.392   6.778 -0.1989 -1.0182 -0.6134
  162SAPE   H4R18171   4.889   4.373   6.679  1.8359 -0.7563  0.2490
  162SAPE   H4S18172   4.844   4.294   6.830 -2.3752 -0.2867  0.8977
  162SAPE   C2518173   4.920   4.494   6.861  0.2121  0.2407  0.3100
  162SAPE   H5R18174   4.975   4.562   6.794  0.3848 -1.3739 -1.2095
  162SAPE   C2618175   4.915   4.514   6.994 -0.2033 -0.6929 -0.0911
  162SAPE   H6R18176   4.970   4.595   7.045 -1.4436 -0.3300  0.6890
  162SAPE   C2718177   4.824   4.434   7.088  0.0388 -0.6900  0.5224
  162SAPE   H7R18178   4.778   4.352   7.029  0.9055 -2.0273  1.6617
  162SAPE   H7S18179   4.742   4.502   7.121 -0.2862  0.4502 -2.4657
  162SAPE   C2818180   4.909   4.378   7.204  0.4302  0.2097  0.3211
  162SAPE   H8R18181   5.000   4.324   7.175  0.3187 -0.9506  2.0502
  162SAPE   C2918182   4.876   4.397   7.337  0.7903 -0.3695  0.4921
  162SAPE   H9R18183   4.938   4.344   7.410  2.1026 -0.2896 -0.5559
  162SAPE  C21018184   4.753   4.448   7.408  1.0956  0.4888  0.0620
  162SAPE  H10R18185   4.704   4.523   7.342  2.0211  0.3484 -0.7839
  162SAPE  H10S18186   4.773   4.507   7.500  0.3858  1.3939 -0.3557
  162SAPE  C21118187   4.646   4.343   7.430  0.0917  1.1231  0.0285
  162SAPE  H11R18188   4.563   4.344   7.358  2.1026 -3.5378 -2.6199
  162SAPE  C21218189   4.647   4.258   7.535  0.4582 -0.0608  0.0339
  162SAPE  H12R18190   4.567   4.183   7.545 -1.0044  1.2677 -1.5926
  162SAPE  C21318191   4.744   4.255   7.645 -0.4869 -0.0804 -0.9063
  162SAPE  H13R18192   4.774   4.360   7.665 -1.3878 -0.0408  0.3410
  162SAPE  H13S18193   4.836   4.204   7.609 -0.6420 -2.4162  1.8208
  162SAPE  C21418194   4.694   4.193   7.772 -0.2240 -0.0625  0.5653
  162SAPE  H14R18195   4.709   4.084   7.779  1.0292  0.0610 -0.2020
  162SAPE  C21518196   4.650   4.261   7.881 -0.3835 -0.1905 -0.0772
  162SAPE  H15R18197   4.618   4.212   7.974 -0.8570 -0.1850 -0.2392
  162SAPE  C21618198   4.644   4.409   7.901 -0.7237 -0.6685 -0.1072
  162SAPE  H16R18199   4.539   4.446   7.902 -0.0319  1.3603 -0.0421
  162SAPE  H16S18200   4.692   4.465   7.818 -1.0132  0.0402  0.1995
  162SAPE  C21718201   4.705   4.441   8.042 -0.2418 -0.1601  0.7577
  162SAPE  H17R18202   4.655   4.382   8.121 -3.0154  0.2682 -0.6113
  162SAPE  H17S18203   4.671   4.545   8.060 -0.9556 -0.5244  1.5431
  162SAPE  C21818204   4.854   4.417   8.049  0.0499  0.1158 -0.1790
  162SAPE  H18R18205   4.889   4.459   7.952 -0.6671 -2.7011 -1.7318
  162SAPE  H18S18206   4.874   4.308   8.035  1.4491  0.2422  0.7032
  162SAPE  C21918207   4.904   4.442   8.192 -0.2155  0.2645  0.6982
  162SAPE  H19R18208   4.828   4.394   8.258  0.9043 -0.3730  1.5479
  162SAPE  H19S18209   4.906   4.552   8.207  0.8900  0.9058 -3.4881
  162SAPE  C22018210   5.049   4.389   8.213 -0.2230  0.1970 -0.2669
  162SAPE  H20R18211   5.113   4.411   8.125  0.6832 -0.7162  0.1434
  162SAPE  H20S18212   5.056   4.279   8.226  0.0059  0.3300  0.8199
  162SAPE  H20T18213   5.104   4.436   8.298 -0.1554 -0.4261  0.0372
  162SAPE   C3318214   4.409   4.140   7.192 -0.1440  0.0453  0.2137
  162SAPE   H3X18215   4.471   4.233   7.186  0.9737 -0.7173 -0.2040
  162SAPE   H3Y18216   4.474   4.056   7.223 -1.7482 -1.0082  0.7511
  162SAPE   C3418217   4.301   4.149   7.300  0.0370  0.0145  0.7115
  162SAPE   H4X18218   4.343   4.132   7.401  3.0229 -0.9075 -0.6288
  162SAPE   H4Y18219   4.219   4.075   7.283  0.9416 -0.5843 -1.1805
  162SAPE   C3518220   4.236   4.289   7.296 -0.1845 -0.5925 -0.6715
  162SAPE   H5X18221   4.169   4.294   7.208  0.3893 -0.4371 -1.1011
  162SAPE   H5Y18222   4.315   4.367   7.299 -0.7492 -0.0450  0.0643
  162SAPE   C3618223   4.135   4.301   7.418 -0.3498 -0.1804  0.5072
  162SAPE   H6X18224   4.089   4.202   7.435  1.6850 -1.0396  1.0875
  162SAPE   H6Y18225   4.059   4.381   7.403 -0.8201 -0.2142  2.4949
  162SAPE   C3718226   4.217   4.331   7.544  0.1575 -0.3247  0.5761
  162SAPE   H7X18227   4.278   4.423   7.532  1.0400 -1.2671 -2.4174
  162SAPE   H7Y18228   4.285   4.246   7.566  2.1091  1.0647  0.0576
  162SAPE   C3818229   4.136   4.359   7.674 -0.3652 -0.3923 -0.4924
  162SAPE   H8X18230   4.074   4.270   7.701 -2.9904  1.1493 -1.2502
  162SAPE   H8Y18231   4.070   4.447   7.656 -0.1814 -0.2012 -0.2278
  162SAPE   C3918232   4.224   4.398   7.797  0.2743  0.6228 -0.1082
  162SAPE   H9X18233   4.257   4.504   7.788  1.6301  0.2030 -0.2831
  162SAPE   H9Y18234   4.313   4.333   7.812 -1.5670 -1.0587  4.3808
  162SAPE  C31018235   4.143   4.382   7.923 -0.4161 -0.0209 -0.4007
  162SAPE  H10X18236   4.101   4.279   7.924  0.2314 -0.2869 -0.5792
  162SAPE  H10Y18237   4.058   4.446   7.892 -1.1552 -1.1772 -0.8111
  162SAPE  C31118238   4.229   4.405   8.051 -0.3071 -0.6840 -0.2624
  162SAPE  H11X18239   4.317   4.338   8.038 -0.1306 -0.2767 -1.2524
  162SAPE  H11Y18240   4.169   4.373   8.138 -0.7981  1.7846  0.3510
  162SAPE  C31218241   4.298   4.546   8.065 -0.1298  0.1140  0.2809
  162SAPE  H12X18242   4.225   4.628   8.056  1.4971  1.6886  1.0446
  162SAPE  H12Y18243   4.375   4.555   7.985  0.1363 -0.8246  0.4214
  162SAPE  C31318244   4.366   4.562   8.197  0.7258  0.0050 -0.0120
  162SAPE  H13X18245   4.433   4.473   8.188  0.2319 -0.5851  1.8214
  162SAPE  H13Y18246   4.288   4.549   8.275 -2.2799 -0.6766 -3.0046
  162SAPE  C31418247   4.437   4.698   8.211 -0.1607 -0.7354 -0.6177
  162SAPE  H14X18248   4.358   4.777   8.204  0.4830  0.1571  1.6282
  162SAPE  H14Y18249   4.519   4.707   8.137 -1.3761  0.0933 -1.8984
  162SAPE  C31518250   4.484   4.726   8.353  0.0598  0.6037 -0.2926
  162SAPE  H15X18251   4.401   4.688   8.416  0.9735 -0.4517  0.3005
  162SAPE  H15Y18252   4.485   4.833   8.386 -0.6020  0.8930 -1.1908
  162SAPE  C31618253   4.616   4.648   8.397  0.0258  0.3887 -0.3147
  162SAPE  H16X18254   4.683   4.641   8.309  1.5632  2.1505  0.6998
  162SAPE  H16Y18255   4.587   4.546   8.431 -0.7867  0.4827 -0.7250
  162SAPE  C31718256   4.676   4.726   8.512  0.1183 -0.2858  0.1494
  162SAPE  H17X18257   4.602   4.739   8.594  1.1762 -1.1910  1.2550
  162SAPE  H17Y18258   4.710   4.826   8.476 -1.2777  0.2251  0.2057
  162SAPE  C31818259   4.798   4.660   8.582 -0.3467 -0.3482 -0.0152
  162SAPE  H18X18260   4.845   4.736   8.649  1.6812  0.3613 -2.1579
  162SAPE  H18Y18261   4.872   4.616   8.513 -0.8570 -1.5218  0.1756
  162SAPE  H18Z18262   4.772   4.573   8.646  0.5677  0.4978  1.5530
  163SAPE     N18263   3.396   2.857   6.427 -0.0408 -0.0258 -0.8921
  163SAPE   HN118264   3.328   2.924   6.387  0.0916  0.7054  0.0799
  163SAPE   HN218265   3.486   2.908   6.438  1.5903 -3.4666  2.7734
  163SAPE   HN318266   3.407   2.772   6.368  0.3146 -0.2431 -0.5145
  163SAPE   C1218267   3.345   2.807   6.567  0.1672  0.2281  1.2466
  163SAPE  H12A18268   3.248   2.758   6.546  2.4965 -2.7957 -3.4706
  163SAPE  H12B18269   3.369   2.894   6.632  1.5208  1.4495 -0.8180
  163SAPE   C1118270   3.420   2.686   6.616  0.2377  0.5037 -0.1090
  163SAPE  H11A18271   3.423   2.604   6.540  1.5903 -0.4777  0.9842
  163SAPE  H11B18272   3.356   2.643   6.696  2.4707  0.6445  1.8018
  163SAPE     P18273   3.646   2.625   6.731 -0.2092 -0.2837 -0.2225
  163SAPE   O1318274   3.609   2.483   6.720 -0.5397  0.7865 -0.0069
  163SAPE   O1418275   3.783   2.654   6.698 -0.3861 -0.8122  0.7466
  163SAPE   O1218276   3.546   2.727   6.664 -0.5914  0.3400  0.2184
  163SAPE   O1118277   3.633   2.662   6.891 -0.2120  0.3953  0.1315
  163SAPE    C118278   3.596   2.793   6.936  0.2900  0.4669  0.2292
  163SAPE    HA18279   3.685   2.860   6.935 -0.0798  0.9812  1.4962
  163SAPE    HB18280   3.516   2.839   6.873  0.8476  1.6155  0.3484
  163SAPE    C218281   3.536   2.787   7.080 -0.1802  0.6345 -0.0340
  163SAPE    HS18282   3.499   2.888   7.109  0.0710  0.0738  2.4062
  163SAPE   O2118283   3.647   2.761   7.160  0.4091  0.0085 -0.2066
  163SAPE   C2118284   3.634   2.776   7.291 -0.3670 -0.1956  0.4821
  163SAPE   O2218285   3.540   2.832   7.342  0.4901 -0.0509  0.2606
  163SAPE   C2218286   3.769   2.736   7.358 -0.0156  0.1142  0.6620
  163SAPE   H2R18287   3.775   2.628   7.333 -0.9940  0.8332 -2.9884
  163SAPE   H2S18288   3.856   2.795   7.320 -1.0604 -0.4907 -2.8987
  163SAPE    C318289   3.418   2.680   7.085 -0.0682  0.0984 -0.5725
  163SAPE    HX18290   3.386   2.662   6.980  0.8442 -0.2110 -0.8121
  163SAPE    HY18291   3.341   2.726   7.150  2.2559  1.6500  1.1613
  163SAPE   O3118292   3.461   2.557   7.152  0.1678 -0.2981  0.2049
  163SAPE   C3118293   3.395   2.453   7.112 -0.0776  0.7247  0.5873
  163SAPE   O3218294   3.307   2.450   7.029 -0.3824 -0.4481  0.1241
  163SAPE   C3218295   3.450   2.332   7.182  0.5379 -0.3007  0.1770
  163SAPE   H2X18296   3.561   2.332   7.190  0.4219 -1.5575  2.3205
  163SAPE   H2Y18297   3.426   2.239   7.125  0.6732 -0.0349 -0.3175
  163SAPE   C2318298   3.765   2.743   7.509  0.4616 -0.0826  0.2097
  163SAPE   H3R18299   3.811   2.659   7.566  0.6031 -0.1330  0.0219
  163SAPE   H3S18300   3.666   2.761   7.556  1.1534  0.5816  1.4653
  163SAPE   C2418301   3.820   2.878   7.563  0.0843 -0.1511 -0.7536
  163SAPE   H4R18302   3.791   2.882   7.670  0.2688 -2.9381 -0.5649
  163SAPE   H4S18303   3.769   2.963   7.512  1.6097  1.0251 -0.3466
  163SAPE   C2518304   3.976   2.893   7.562  0.1449 -0.2232  0.2848
  163SAPE   H5R18305   4.018   2.940   7.473 -1.6137 -0.5719 -0.7578
  163SAPE   C2618306   4.050   2.868   7.675  0.4231 -0.5028  0.0014
  163SAPE   H6R18307   4.156   2.896   7.686  0.5435 -0.6515 -0.7463
  163SAPE   C2718308   4.011   2.807   7.807  0.1966 -0.6000  0.2048
  163SAPE   H7R18309   4.103   2.751   7.834  1.0825  2.0420  2.9363
  163SAPE   H7S18310   3.928   2.737   7.784 -1.3713  1.4357 -0.4261
  163SAPE   C2818311   3.962   2.888   7.919  0.4582 -0.3512  0.6521
  163SAPE   H8R18312   3.856   2.914   7.906  1.0006  2.0192  0.7056
  163SAPE   C2918313   4.033   2.931   8.024  0.2764 -0.4545  0.7445
  163SAPE   H9R18314   3.983   2.998   8.095  2.2813 -1.2446  2.9316
  163SAPE  C21018315   4.182   2.913   8.031 -0.0331 -0.3069  0.3815
  163SAPE  H10R18316   4.233   2.997   7.979  0.9259 -1.3992 -0.4822
  163SAPE  H10S18317   4.224   2.822   7.983  2.8183  1.1138  0.0575
  163SAPE  C21118318   4.236   2.914   8.176 -0.5317 -0.2565  0.2911
  163SAPE  H11R18319   4.218   2.822   8.233 -0.4585 -0.4801 -0.0396
  163SAPE  C21218320   4.306   3.008   8.244 -0.8175 -0.7655 -0.0821
  163SAPE  H12R18321   4.321   2.993   8.352 -1.1695  2.0164  0.3902
  163SAPE  C21318322   4.330   3.149   8.201 -0.5754  0.6381  0.5252
  163SAPE  H13R18323   4.342   3.218   8.287  0.4429  1.4321 -0.2355
  163SAPE  H13S18324   4.245   3.178   8.134 -1.1518 -1.3474  0.3748
  163SAPE  C21418325   4.457   3.163   8.124  0.2366  0.0243  0.5958
  163SAPE  H14R18326   4.549   3.135   8.178  0.0315 -0.6138  0.6220
  163SAPE  C21518327   4.466   3.195   7.995 -0.3898  0.2129 -0.0878
  163SAPE  H15R18328   4.559   3.187   7.938  0.3840 -2.2367  1.4214
  163SAPE  C21618329   4.365   3.234   7.893  0.0583 -0.6970 -0.0236
  163SAPE  H16R18330   4.404   3.330   7.853 -2.1033  0.2423  0.0355
  163SAPE  H16S18331   4.263   3.250   7.934 -0.1855 -3.5208  0.5819
  163SAPE  C21718332   4.354   3.146   7.771  0.7994  1.2614  0.0054
  163SAPE  H17R18333   4.277   3.067   7.785 -1.5344  3.0953 -2.1974
  163SAPE  H17S18334   4.446   3.085   7.754  0.9289  0.8462  2.0836
  163SAPE  C21818335   4.316   3.224   7.646  0.0210  0.3245 -0.5054
  163SAPE  H18R18336   4.404   3.281   7.610 -1.8229  2.5135 -1.6621
  163SAPE  H18S18337   4.236   3.297   7.669 -0.5889 -1.0913  2.0799
  163SAPE  C21918338   4.280   3.132   7.528  0.4267  0.0952  0.6847
  163SAPE  H19R18339   4.185   3.084   7.560 -0.6153  0.2845 -1.9715
  163SAPE  H19S18340   4.365   3.065   7.506  3.4109  4.0061 -0.2561
  163SAPE  C22018341   4.265   3.203   7.399 -0.1613 -0.6364  0.1157
  163SAPE  H20R18342   4.356   3.253   7.357  0.5848 -0.0809  2.3064
  163SAPE  H20S18343   4.193   3.286   7.418  0.3456 -0.1605 -0.0227
  163SAPE  H20T18344   4.224   3.142   7.316 -1.3804  0.4900 -0.1235
  163SAPE   C3318345   3.410   2.311   7.332  0.0851 -0.4855 -0.0850
  163SAPE   H3X18346   3.418   2.202   7.350  1.4107 -0.3898 -0.0141
  163SAPE   H3Y18347   3.303   2.337   7.348 -0.2433 -0.6576 -1.9668
  163SAPE   C3418348   3.505   2.394   7.419  0.1578 -0.0125  0.4458
  163SAPE   H4X18349   3.506   2.502   7.392 -0.0964  0.2381  1.4170
  163SAPE   H4Y18350   3.610   2.357   7.417 -0.5966 -2.1105 -0.8366
  163SAPE   C3518351   3.464   2.396   7.563 -0.8234  0.0499  0.1241
  163SAPE   H5X18352   3.469   2.298   7.614 -2.6176  0.4417  1.1049
  163SAPE   H5Y18353   3.357   2.422   7.576 -1.0182  0.8500 -2.7551
  163SAPE   C3618354   3.552   2.492   7.647 -0.3900  1.1294  0.7458
  163SAPE   H6X18355   3.547   2.592   7.597  1.0270  1.4301  1.1629
  163SAPE   H6Y18356   3.658   2.460   7.641 -0.4453  1.0932 -0.0826
  163SAPE   C3718357   3.503   2.503   7.791  0.6587  0.6019 -0.3525
  163SAPE   H7X18358   3.508   2.403   7.840 -2.9833  1.0497  1.1008
  163SAPE   H7Y18359   3.396   2.534   7.793  0.1524 -1.0957 -0.2124
  163SAPE   C3818360   3.586   2.598   7.880 -0.2950 -0.7449 -0.1469
  163SAPE   H8X18361   3.548   2.702   7.871  2.2457  0.1430 -0.8773
  163SAPE   H8Y18362   3.695   2.592   7.859 -0.3628  0.3353 -0.8411
  163SAPE   C3918363   3.569   2.567   8.034  0.2281  0.2891  0.2036
  163SAPE   H9X18364   3.621   2.471   8.056  0.5990  0.4270 -0.0663
  163SAPE   H9Y18365   3.463   2.549   8.060  0.5944 -1.2736  0.6961
  163SAPE  C31018366   3.635   2.669   8.139 -0.3401 -0.1474  0.0670
  163SAPE  H10X18367   3.595   2.768   8.111  1.0170  0.1051 -1.0114
  163SAPE  H10Y18368   3.746   2.668   8.142 -0.3674 -2.8549  1.4151
  163SAPE  C31118369   3.580   2.644   8.285 -0.6921  0.2086 -0.0332
  163SAPE  H11X18370   3.595   2.536   8.309  1.7297  1.1755  3.0780
  163SAPE  H11Y18371   3.470   2.658   8.288 -0.8798 -1.4334  1.9733
  163SAPE  C31218372   3.643   2.732   8.389 -0.4651 -0.0518  0.0874
  163SAPE  H12X18373   3.628   2.832   8.342 -1.1995  0.0237  0.4708
  163SAPE  H12Y18374   3.751   2.707   8.400 -0.4231 -0.8116 -1.9277
  163SAPE  C31318375   3.576   2.721   8.521 -0.7153 -0.0848  0.1247
  163SAPE  H13X18376   3.568   2.615   8.552  0.0064 -0.1748  0.0054
  163SAPE  H13Y18377   3.472   2.757   8.502 -0.7585 -0.4558 -0.3495
  163SAPE  C31418378   3.655   2.791   8.632  0.0764  0.0876  0.2549
  163SAPE  H14X18379   3.689   2.890   8.596 -1.5467 -0.5109 -3.1464
  163SAPE  H14Y18380   3.749   2.737   8.658 -0.4592 -1.4820 -0.9788
  163SAPE  C31518381   3.569   2.811   8.758 -0.3316  0.7487 -0.3814
  163SAPE  H15X18382   3.536   2.713   8.799  0.2252  1.2558  1.3166
  163SAPE  H15Y18383   3.481   2.878   8.751 -2.0005 -1.2201  1.0890
  163SAPE  C31618384   3.666   2.877   8.859 -0.0841 -0.5428 -0.1183
  163SAPE  H16X18385   3.696   2.976   8.818 -1.9328  0.6801  1.3892
  163SAPE  H16Y18386   3.748   2.804   8.879  0.5826 -0.1034 -1.2151
  163SAPE  C31718387   3.603   2.910   8.992 -0.5098 -0.5205 -0.0964
  163SAPE  H17X18388   3.529   2.992   8.981 -1.1603 -0.8623  1.5199
  163SAPE  H17Y18389   3.683   2.961   9.050 -0.0857 -2.3535  0.9873
  163SAPE  C31818390   3.549   2.793   9.067 -0.3968  0.3437 -0.2635
  163SAPE  H18X18391   3.471   2.734   9.014 -2.2431  0.7145  1.9880
  163SAPE  H18Y18392   3.496   2.829   9.157  0.1010  0.0730  0.1421
  163SAPE  H18Z18393   3.637   2.725   9.079 -1.2669 -0.7646 -0.1380
  164SAPE     N18394   6.172   5.737   5.610 -0.3468  0.4461 -0.2581
  164SAPE   HN118395   6.083   5.693   5.581 -1.7390  1.9857  1.4925
  164SAPE   HN218396   6.185   5.812   5.540  1.8801 -0.8849 -1.3114
  164SAPE   HN318397   6.252   5.671   5.608 -0.3620  0.3281  1.6859
  164SAPE   C1218398   6.154   5.804   5.744 -0.1939  0.2517  0.6868
  164SAPE  H12A18399   6.122   5.739   5.828  0.8597 -1.0621  0.0847
  164SAPE  H12B18400   6.069   5.873   5.721 -0.5443 -1.1238 -2.2575
  164SAPE   C1118401   6.277   5.897   5.782  0.0398  0.1498 -0.0760
  164SAPE  H11A18402   6.237   5.978   5.848  1.2106 -0.5393  1.4970
  164SAPE  H11B18403   6.326   5.946   5.696  1.1604  1.7629  1.4406
  164SAPE     P18404   6.493   5.900   5.908 -0.0933  0.3967 -0.3214
  164SAPE   O1318405   6.576   5.815   5.994 -0.6032  0.1110  0.5713
  164SAPE   O1418406   6.552   5.969   5.786 -0.6614  0.2863 -0.2114
  164SAPE   O1218407   6.369   5.825   5.861  0.1030  0.6486  0.2151
  164SAPE   O1118408   6.432   6.009   5.996  0.4780  0.1238 -0.2928
  164SAPE    C118409   6.332   5.985   6.098 -0.2074 -0.8106  0.0925
  164SAPE    HA18410   6.231   6.015   6.060 -0.0294  1.5309  1.3961
  164SAPE    HB18411   6.325   5.877   6.124  1.7395 -0.8088  0.6937
  164SAPE    C218412   6.351   6.070   6.235  0.1253  0.1399 -0.1376
  164SAPE    HS18413   6.275   6.015   6.296  1.2476 -1.7049 -0.3687
  164SAPE   O2118414   6.340   6.212   6.223  1.1102  0.0203  0.0156
  164SAPE   C2118415   6.212   6.252   6.203 -0.1857  0.2595 -0.3698
  164SAPE   O2218416   6.116   6.175   6.189 -0.7043  0.1783 -0.8590
  164SAPE   C2218417   6.196   6.400   6.224  0.2317  0.3832 -0.1494
  164SAPE   H2R18418   6.266   6.421   6.308 -0.2075 -0.6509  0.4733
  164SAPE   H2S18419   6.225   6.444   6.126  1.5007 -1.7706 -0.7691
  164SAPE    C318420   6.482   6.029   6.310  0.6183  0.0096 -0.2750
  164SAPE    HX18421   6.564   5.997   6.241  1.1011 -1.2199  0.8393
  164SAPE    HY18422   6.457   5.940   6.371 -1.4993 -0.3967 -1.6629
  164SAPE   O3118423   6.530   6.130   6.402  0.0245  0.2265 -0.0500
  164SAPE   C3118424   6.616   6.214   6.349  0.3311  1.4906  0.0771
  164SAPE   O3218425   6.650   6.219   6.234 -0.4692 -0.0179  0.7546
  164SAPE   C3218426   6.682   6.285   6.462  0.0727 -0.0686 -0.2135
  164SAPE   H2X18427   6.770   6.228   6.499 -1.5757 -1.7026  1.2532
  164SAPE   H2Y18428   6.610   6.291   6.547  1.5159 -2.7481  1.2626
  164SAPE   C2318429   6.050   6.441   6.260  0.4066 -0.5186 -0.2130
  164SAPE   H3R18430   5.979   6.388   6.193  0.8231 -1.7142  0.2812
  164SAPE   H3S18431   6.052   6.548   6.228  0.6510 -0.3890  0.2322
  164SAPE   C2418432   6.025   6.453   6.417  0.9827 -0.1300 -0.2589
  164SAPE   H4R18433   5.942   6.522   6.440  2.0954  0.5135  1.9671
  164SAPE   H4S18434   6.113   6.497   6.469  0.2349  0.8539  0.1828
  164SAPE   C2518435   5.992   6.318   6.479 -0.4338  0.2946  0.1051
  164SAPE   H5R18436   5.894   6.273   6.458  0.5740 -0.6015 -2.9008
  164SAPE   C2618437   6.075   6.252   6.565  0.8819 -0.2593  0.2238
  164SAPE   H6R18438   6.034   6.160   6.609 -1.6938  0.1093 -1.2852
  164SAPE   C2718439   6.216   6.276   6.601  0.0480  0.2004  0.2942
  164SAPE   H7R18440   6.222   6.331   6.697 -1.3821  1.5001 -0.3513
  164SAPE   H7S18441   6.269   6.339   6.527  0.6826 -0.5154  0.1344
  164SAPE   C2818442   6.289   6.142   6.604  0.3602  0.2463 -0.3067
  164SAPE   H8R18443   6.267   6.077   6.518 -0.7281 -1.4287  1.2237
  164SAPE   C2918444   6.388   6.106   6.688  0.3539 -0.2751  0.0277
  164SAPE   H9R18445   6.432   6.006   6.674 -1.6125 -1.0016 -1.1858
  164SAPE  C21018446   6.443   6.184   6.807 -0.0207 -0.0949 -0.5007
  164SAPE  H10R18447   6.366   6.250   6.852  0.1053 -1.5926  1.9888
  164SAPE  H10S18448   6.513   6.264   6.774 -1.1351  0.9034 -0.4773
  164SAPE  C21118449   6.506   6.095   6.922 -0.5064  0.5318  0.0538
  164SAPE  H11R18450   6.609   6.063   6.903 -1.0281 -1.5403  0.5938
  164SAPE  C21218451   6.448   6.053   7.036 -0.1690  0.3185 -0.3396
  164SAPE  H12R18452   6.519   5.992   7.094 -2.7463 -0.9433  1.6093
  164SAPE  C21318453   6.310   6.075   7.090  0.9101 -0.7175 -0.0724
  164SAPE  H13R18454   6.249   6.153   7.038  2.9748 -0.1446 -1.6903
  164SAPE  H13S18455   6.326   6.109   7.194 -2.2211  2.7191 -0.5803
  164SAPE  C21418456   6.234   5.942   7.084 -0.1977 -0.1643  0.2951
  164SAPE  H14R18457   6.207   5.900   6.986 -0.4337  0.3656  0.1346
  164SAPE  C21518458   6.177   5.889   7.189  0.6134  0.1590 -0.0967
  164SAPE  H15R18459   6.122   5.795   7.173 -1.3076  1.2793 -0.2089
  164SAPE  C21618460   6.170   5.928   7.335  0.3755 -0.2213  0.5690
  164SAPE  H16R18461   6.071   5.898   7.375 -0.4117  1.0586 -0.3916
  164SAPE  H16S18462   6.172   6.039   7.340 -1.9610 -0.0985 -0.4139
  164SAPE  C21718463   6.306   5.900   7.409 -0.1554  0.9859 -0.4280
  164SAPE  H17R18464   6.385   5.959   7.358  0.5084 -0.5807 -1.2431
  164SAPE  H17S18465   6.324   5.791   7.398  0.5266  0.8955  1.4941
  164SAPE  C21818466   6.304   5.942   7.559  0.5819  0.0449  0.2593
  164SAPE  H18R18467   6.227   5.877   7.606 -0.2120  0.8573  0.0997
  164SAPE  H18S18468   6.256   6.042   7.563  0.7509  0.1682 -0.5521
  164SAPE  C21918469   6.433   5.936   7.643 -0.3214  0.0511 -0.0322
  164SAPE  H19R18470   6.509   6.012   7.613  1.0378 -0.9946  0.7037
  164SAPE  H19S18471   6.475   5.834   7.631  0.9003  0.3146  1.9313
  164SAPE  C22018472   6.418   5.956   7.793 -0.6216 -0.3740  0.3333
  164SAPE  H20R18473   6.429   6.066   7.806 -0.8293 -0.2705 -0.3517
  164SAPE  H20S18474   6.491   5.900   7.855 -0.4341 -0.6793 -0.1578
  164SAPE  H20T18475   6.317   5.916   7.814 -1.4783 -0.3601 -3.4819
  164SAPE   C3318476   6.728   6.431   6.421 -0.4677 -0.8330 -0.5398
  164SAPE   H3X18477   6.640   6.497   6.404  1.4343  1.7158 -0.6464
  164SAPE   H3Y18478   6.789   6.420   6.329  1.0917  0.6688  0.2919
  164SAPE   C3418479   6.802   6.501   6.531 -0.0344 -0.5745 -0.6651
  164SAPE   H4X18480   6.817   6.606   6.496 -0.2421 -0.4030 -0.2504
  164SAPE   H4Y18481   6.902   6.453   6.528  0.1962 -0.2697  1.3059
  164SAPE   C3518482   6.730   6.497   6.665  0.0662 -0.5308  0.0107
  164SAPE   H5X18483   6.732   6.394   6.706 -1.2107  0.0349  1.5542
  164SAPE   H5Y18484   6.623   6.526   6.655  0.5323  0.7953 -1.4034
  164SAPE   C3618485   6.791   6.608   6.760  1.0210  0.3444 -0.0007
  164SAPE   H6X18486   6.780   6.709   6.715  0.4494 -0.7423 -2.3537
  164SAPE   H6Y18487   6.900   6.590   6.759  1.3101  2.0752 -0.2027
  164SAPE   C3718488   6.747   6.595   6.909  0.0464  0.1777  0.4267
  164SAPE   H7X18489   6.781   6.498   6.952  0.4644 -0.0519 -0.3954
  164SAPE   H7Y18490   6.638   6.604   6.922  0.0649  0.8756  0.1183
  164SAPE   C3818491   6.809   6.697   7.003  0.1326 -0.1937  0.2322
  164SAPE   H8X18492   6.786   6.800   6.967 -2.3222 -0.0037  2.2164
  164SAPE   H8Y18493   6.920   6.694   7.007  0.1231  0.0502  0.6775
  164SAPE   C3918494   6.758   6.684   7.148 -0.7525 -0.5327 -0.4209
  164SAPE   H9X18495   6.662   6.631   7.134 -1.6756  1.1720 -0.7120
  164SAPE   H9Y18496   6.731   6.778   7.201 -0.7229 -1.2138  0.8068
  164SAPE  C31018497   6.847   6.604   7.247  0.1967  0.0150  0.3406
  164SAPE  H10X18498   6.873   6.507   7.198  0.7059 -0.9863  2.5311
  164SAPE  H10Y18499   6.783   6.578   7.334 -0.1872  2.2754  0.7636
  164SAPE  C31118500   6.983   6.675   7.279  0.6272  0.6387 -0.1846
  164SAPE  H11X18501   6.953   6.774   7.319 -4.3243  0.1765 -2.4285
  164SAPE  H11Y18502   7.043   6.685   7.187  0.7440  2.0941  0.0429
  164SAPE  C31218503   7.077   6.598   7.372 -0.4221  0.5464 -0.4303
  164SAPE  H12X18504   7.179   6.640   7.379 -0.2266  0.1705 -0.9801
  164SAPE  H12Y18505   7.081   6.492   7.340  1.1623  0.1125  1.1267
  164SAPE  C31318506   7.036   6.614   7.520 -0.2787  0.5726  0.2934
  164SAPE  H13X18507   6.927   6.596   7.535 -0.1178  1.1315  2.3399
  164SAPE  H13Y18508   7.054   6.720   7.552 -0.7131  0.5468  0.6281
  164SAPE  C31418509   7.116   6.517   7.609  0.4747  0.2027  0.0178
  164SAPE  H14X18510   7.222   6.549   7.602  0.4056  0.3998 -0.1492
  164SAPE  H14Y18511   7.102   6.418   7.562 -2.6839  0.1524  0.9489
  164SAPE  C31518512   7.086   6.510   7.757 -0.3123  0.0960 -0.5769
  164SAPE  H15X18513   6.982   6.475   7.776  0.7827 -2.6797  0.6499
  164SAPE  H15Y18514   7.081   6.611   7.802 -2.1695 -0.1467 -0.2112
  164SAPE  C31618515   7.185   6.423   7.844 -0.5231 -0.7057 -0.4597
  164SAPE  H16X18516   7.164   6.315   7.826 -1.7695 -0.5336 -0.0499
  164SAPE  H16Y18517   7.167   6.436   7.953 -4.2065  1.4977 -1.2874
  164SAPE  C31718518   7.329   6.437   7.814 -0.1950  0.7405 -0.0240
  164SAPE  H17X18519   7.358   6.544   7.810 -0.4798  0.9046  1.9235
  164SAPE  H17Y18520   7.343   6.397   7.712 -0.3081 -0.3830  0.3974
  164SAPE  C31818521   7.420   6.371   7.917  0.4642  0.5314 -0.1326
  164SAPE  H18X18522   7.403   6.262   7.931  0.4708  0.6604  0.8786
  164SAPE  H18Y18523   7.420   6.428   8.012  1.4784 -1.7949  1.3172
  164SAPE  H18Z18524   7.524   6.379   7.878  0.3907 -0.6612 -0.6133
  165SAPE     N18525   6.267   2.036   5.953  0.8040 -0.2607  0.0199
  165SAPE   HN118526   6.181   2.095   5.959  1.3878  0.4336  1.7626
  165SAPE   HN218527   6.343   2.107   5.952 -0.7732  1.5690 -3.2823
  165SAPE   HN318528   6.258   1.978   5.867  1.8429 -0.6038  0.1400
  165SAPE   C1218529   6.263   1.957   6.079  0.5255  0.2536 -0.2304
  165SAPE  H12A18530   6.360   1.904   6.082 -1.0561 -2.7641 -0.3546
  165SAPE  H12B18531   6.193   1.870   6.075 -0.1764  0.8176 -0.4363
  165SAPE   C1118532   6.231   2.033   6.218 -0.3462  0.5900  0.4259
  165SAPE  H11A18533   6.241   1.956   6.298  0.6280  0.9058  0.6220
  165SAPE  H11B18534   6.135   2.087   6.210  0.4106  1.8824 -0.2180
  165SAPE     P18535   6.341   2.218   6.364 -0.3443  0.1110 -0.2853
  165SAPE   O1318536   6.473   2.220   6.424 -0.1325  0.0121  0.0378
  165SAPE   O1418537   6.302   2.349   6.305  0.4151  0.7265 -0.8088
  165SAPE   O1218538   6.336   2.121   6.241  0.4976  0.1032  0.5539
  165SAPE   O1118539   6.228   2.179   6.466  0.6439 -0.5761 -0.2936
  165SAPE    C118540   6.242   2.084   6.573  0.6294 -0.5892 -0.5317
  165SAPE    HA18541   6.164   2.005   6.569 -1.0733  1.1166 -2.4321
  165SAPE    HB18542   6.337   2.028   6.559  0.4268 -0.8771 -0.7593
  165SAPE    C218543   6.250   2.136   6.718 -0.4861 -0.1258 -0.2395
  165SAPE    HS18544   6.151   2.130   6.768  0.7064 -4.0752  1.8825
  165SAPE   O2118545   6.307   2.260   6.722  0.1393 -0.0481 -0.5744
  165SAPE   C2118546   6.244   2.363   6.685  0.3912  0.3022  0.1653
  165SAPE   O2218547   6.122   2.372   6.662  0.4820 -0.1523  0.2971
  165SAPE   C2218548   6.350   2.480   6.668  0.7541  1.2758  0.6461
  165SAPE   H2R18549   6.455   2.443   6.671  0.7013  1.0877  0.1567
  165SAPE   H2S18550   6.338   2.519   6.565 -3.0563  0.6985  0.8055
  165SAPE    C318551   6.348   2.057   6.798  0.3283 -0.0594 -0.0819
  165SAPE    HX18552   6.454   2.071   6.769  0.5142  0.9956  1.0953
  165SAPE    HY18553   6.324   1.950   6.780  0.2620 -0.1373  0.4771
  165SAPE   O3118554   6.335   2.071   6.944  0.1303 -0.2037 -0.0038
  165SAPE   C3118555   6.442   2.033   7.010  0.0182 -0.9620 -0.6421
  165SAPE   O3218556   6.545   1.991   6.967 -0.2034 -0.5899 -0.0715
  165SAPE   C3218557   6.420   2.065   7.163 -0.4789 -0.1656  0.5343
  165SAPE   H2X18558   6.330   2.018   7.208 -0.4449  0.2649  1.0569
  165SAPE   H2Y18559   6.398   2.173   7.152  0.7633 -0.0386 -0.8100
  165SAPE   C2318560   6.330   2.597   6.766 -0.4022 -0.4898  0.6376
  165SAPE   H3R18561   6.223   2.627   6.765 -0.3202 -0.1615 -1.0614
  165SAPE   H3S18562   6.380   2.682   6.715  0.1864 -0.3373  1.4784
  165SAPE   C2418563   6.386   2.581   6.912  0.2950 -0.7807  1.1994
  165SAPE   H4R18564   6.496   2.594   6.899 -0.2431  1.7612 -1.3698
  165SAPE   H4S18565   6.366   2.484   6.961  0.5816 -0.5296  1.8241
  165SAPE   C2518566   6.325   2.695   6.993  0.2821 -0.8186  0.5247
  165SAPE   H5R18567   6.258   2.767   6.943  1.2081  0.6441  1.3462
  165SAPE   C2618568   6.318   2.706   7.124 -0.1988 -0.7852 -0.7464
  165SAPE   H6R18569   6.261   2.791   7.163  2.3747 -0.4970  2.6558
  165SAPE   C2718570   6.385   2.599   7.210  0.2969  0.4893  0.3462
  165SAPE   H7R18571   6.492   2.620   7.231  0.3731 -0.3880  0.8649
  165SAPE   H7S18572   6.388   2.495   7.171 -0.9624  0.4537  0.3417
  165SAPE   C2818573   6.318   2.606   7.346  0.0601  0.2665 -0.3044
  165SAPE   H8R18574   6.245   2.688   7.357 -0.3769 -0.2445  0.6991
  165SAPE   C2918575   6.342   2.515   7.447  0.8682 -0.5888 -0.0517
  165SAPE   H9R18576   6.284   2.517   7.540  1.6298  0.3891  0.4208
  165SAPE  C21018577   6.427   2.392   7.441  0.4427 -0.5126  0.1594
  165SAPE  H10R18578   6.517   2.402   7.506 -0.9075 -0.3669  2.0649
  165SAPE  H10S18579   6.468   2.377   7.339 -1.3560  0.8411 -0.7705
  165SAPE  C21118580   6.341   2.274   7.483  0.3151 -0.1196 -0.4163
  165SAPE  H11R18581   6.258   2.252   7.416 -0.4833 -2.6051  1.3148
  165SAPE  C21218582   6.347   2.213   7.607 -0.0153  0.1394  0.1528
  165SAPE  H12R18583   6.284   2.125   7.630 -1.1344  1.5291  2.5989
  165SAPE  C21318584   6.436   2.249   7.733  0.1717 -0.3995  0.2550
  165SAPE  H13R18585   6.542   2.233   7.707  0.0232 -0.3286 -0.4029
  165SAPE  H13S18586   6.414   2.164   7.801 -1.8992  0.3078  0.5107
  165SAPE  C21418587   6.420   2.386   7.794  0.9077  0.1414 -0.3377
  165SAPE  H14R18588   6.498   2.459   7.767 -0.4061  2.0932  1.0044
  165SAPE  C21518589   6.311   2.435   7.857 -0.0352  0.9340 -0.2683
  165SAPE  H15R18590   6.323   2.537   7.898  0.2523  0.9286 -0.3331
  165SAPE  C21618591   6.183   2.356   7.884 -0.5352 -0.0365  0.2279
  165SAPE  H16R18592   6.193   2.252   7.846 -0.3542  0.3647 -0.8438
  165SAPE  H16S18593   6.108   2.412   7.825 -3.1589 -1.7523  1.8295
  165SAPE  C21718594   6.150   2.370   8.037 -0.1817  0.0543 -0.1202
  165SAPE  H17R18595   6.121   2.477   8.033  1.0543  0.5490  2.7730
  165SAPE  H17S18596   6.237   2.356   8.104 -0.6642 -3.0080 -0.0376
  165SAPE  C21818597   6.043   2.275   8.084  0.6964 -0.3456 -0.1055
  165SAPE  H18R18598   6.091   2.174   8.087  0.1992 -0.5587  0.9948
  165SAPE  H18S18599   5.965   2.262   8.006  0.2185  0.6535  0.2071
  165SAPE  C21918600   5.972   2.312   8.211  0.3648  0.2389 -0.3073
  165SAPE  H19R18601   5.946   2.419   8.231 -2.6087 -0.4364 -0.3375
  165SAPE  H19S18602   6.040   2.292   8.296 -0.4263 -0.4493  0.1801
  165SAPE  C22018603   5.846   2.227   8.241  0.1898 -0.6126  0.1109
  165SAPE  H20R18604   5.872   2.119   8.248  1.9072 -0.1764  0.6064
  165SAPE  H20S18605   5.772   2.228   8.158  0.9876 -3.1422 -0.6772
  165SAPE  H20T18606   5.795   2.252   8.336 -0.2478 -0.8972 -0.0486
  165SAPE   C3318607   6.544   2.047   7.243 -1.2135  0.1252 -0.5006
  165SAPE   H3X18608   6.556   2.133   7.313 -0.9128 -1.2430  1.1717
  165SAPE   H3Y18609   6.631   2.061   7.175 -0.6091 -0.4091  0.1514
  165SAPE   C3418610   6.562   1.915   7.308  0.0638 -0.2681  0.3261
  165SAPE   H4X18611   6.666   1.881   7.290  0.2742 -0.1055  1.2206
  165SAPE   H4Y18612   6.486   1.840   7.276 -0.8787  0.8080 -0.0072
  165SAPE   C3518613   6.567   1.926   7.460  0.6226  0.1446  0.4736
  165SAPE   H5X18614   6.469   1.970   7.489  0.9860 -0.7447  3.2804
  165SAPE   H5Y18615   6.638   2.008   7.482  0.1036 -0.1196  3.4044
  165SAPE   C3618616   6.605   1.811   7.533 -0.3298 -0.0282  0.0454
  165SAPE   H6X18617   6.703   1.767   7.504  0.0066  0.0671  1.0107
  165SAPE   H6Y18618   6.528   1.732   7.525 -1.6867  1.0730  1.7748
  165SAPE   C3718619   6.611   1.836   7.686  0.2552 -0.5535  0.4676
  165SAPE   H7X18620   6.622   1.733   7.725  0.5338 -0.8335 -0.3285
  165SAPE   H7Y18621   6.512   1.874   7.718  0.7305 -0.5439  1.9467
  165SAPE   C3818622   6.720   1.942   7.721  0.3856 -0.0476 -0.5185
  165SAPE   H8X18623   6.714   2.031   7.654 -1.7716  0.9760  0.9761
  165SAPE   H8Y18624   6.823   1.911   7.691 -0.0442  0.5793 -2.7677
  165SAPE   C3918625   6.711   2.006   7.864  0.5294  0.5334 -0.1385
  165SAPE   H9X18626   6.614   2.058   7.879 -0.0499 -0.3091 -0.8967
  165SAPE   H9Y18627   6.790   2.085   7.862  1.1836 -0.0831  0.9912
  165SAPE  C31018628   6.739   1.904   7.972 -0.1714 -0.0981 -0.1013
  165SAPE  H10X18629   6.825   1.843   7.937  1.5841  2.1127  0.1959
  165SAPE  H10Y18630   6.647   1.852   8.004  0.3691 -0.5499  0.7726
  165SAPE  C31118631   6.785   1.984   8.098 -0.3530 -0.0795 -0.0368
  165SAPE  H11X18632   6.715   2.070   8.107 -0.6751 -0.3140 -0.3089
  165SAPE  H11Y18633   6.887   2.012   8.066 -0.0582 -0.5122  0.5036
  165SAPE  C31218634   6.775   1.905   8.231  0.3271  0.9141  0.2749
  165SAPE  H12X18635   6.836   1.812   8.223 -1.3123 -0.3118  1.6746
  165SAPE  H12Y18636   6.674   1.861   8.241 -0.0596  1.7622  0.0941
  165SAPE  C31318637   6.836   1.992   8.342  0.3334 -0.6184  0.3571
  165SAPE  H13X18638   6.791   2.091   8.363  3.0903  0.8839 -0.4397
  165SAPE  H13Y18639   6.934   2.019   8.297  0.3839 -2.8301 -0.9576
  165SAPE  C31418640   6.861   1.923   8.473 -0.0683 -0.2441 -0.3382
  165SAPE  H14X18641   6.937   1.971   8.538 -0.4258 -0.9705  0.6306
  165SAPE  H14Y18642   6.906   1.823   8.457 -1.3167 -0.9476  0.4882
  165SAPE  C31518643   6.728   1.906   8.547 -0.1348 -1.0684 -1.1705
  165SAPE  H15X18644   6.666   1.820   8.515 -2.0782 -0.2416  0.2641
  165SAPE  H15Y18645   6.661   1.991   8.523  0.7857 -0.2525 -0.8723
  165SAPE  C31618646   6.747   1.925   8.695  0.1707 -0.6104 -0.1790
  165SAPE  H16X18647   6.825   1.854   8.730  0.3256  0.2499  1.2471
  165SAPE  H16Y18648   6.648   1.901   8.740 -0.8211 -0.5937 -2.2381
  165SAPE  C31718649   6.789   2.061   8.738  0.1784 -0.0783  0.0177
  165SAPE  H17X18650   6.730   2.148   8.700 -2.6136 -1.8454  0.1563
  165SAPE  H17Y18651   6.893   2.076   8.703  0.5785 -1.8329  0.4579
  165SAPE  C31818652   6.794   2.082   8.891 -0.2088  0.4703 -0.5190
  165SAPE  H18X18653   6.800   2.191   8.911 -2.6326  0.1137  2.4964
  165SAPE  H18Y18654   6.885   2.029   8.925 -0.3049  0.1026 -0.8349
  165SAPE  H18Z18655   6.705   2.039   8.942 -0.1493 -0.0816 -0.8789
  166SAPE     N18656   5.086   5.879   5.782  0.7430  0.2438 -0.3420
  166SAPE   HN118657   5.183   5.860   5.749  1.0561  1.7163 -0.3405
  166SAPE   HN218658   5.020   5.809   5.742 -1.3576  1.9180  0.0957
  166SAPE   HN318659   5.054   5.971   5.744 -1.0152 -0.2184 -0.0029
  166SAPE   C1218660   5.088   5.874   5.931  0.2134 -0.1541 -0.2206
  166SAPE  H12A18661   4.991   5.834   5.967 -0.1652  0.5517 -0.4421
  166SAPE  H12B18662   5.092   5.982   5.958  1.6755 -0.0766 -0.7384
  166SAPE   C1118663   5.203   5.793   5.982 -0.0969 -0.1675  0.4819
  166SAPE  H11A18664   5.189   5.684   5.968  0.1216 -0.0823 -0.4508
  166SAPE  H11B18665   5.205   5.804   6.092 -0.3349  0.0599  0.4636
  166SAPE     P18666   5.458   5.756   5.930  0.2268  0.1942 -0.1475
  166SAPE   O1318667   5.422   5.619   5.886  0.6640 -0.7944  0.5793
  166SAPE   O1418668   5.560   5.835   5.852  0.3645  0.4499  0.5573
  166SAPE   O1218669   5.330   5.840   5.934 -0.1406 -0.0886 -0.0582
  166SAPE   O1118670   5.492   5.767   6.084  0.0138 -0.4866  0.3286
  166SAPE    C118671   5.570   5.880   6.130 -0.9712  0.5872  0.4671
  166SAPE    HA18672   5.673   5.867   6.090 -0.7677  1.6336  0.6376
  166SAPE    HB18673   5.525   5.974   6.091  1.8162  1.4375 -0.8388
  166SAPE    C218674   5.564   5.881   6.287  1.2440 -0.2827  0.0725
  166SAPE    HS18675   5.627   5.967   6.318  2.6969 -1.6519  0.9548
  166SAPE   O2118676   5.613   5.757   6.345 -0.6075 -0.4139 -0.3597
  166SAPE   C2118677   5.748   5.751   6.353 -0.0499 -0.4765 -0.2213
  166SAPE   O2218678   5.827   5.838   6.324 -0.4181  0.1601  0.1862
  166SAPE   C2218679   5.803   5.626   6.416  0.1871 -0.4378  0.2899
  166SAPE   H2R18680   5.728   5.544   6.421 -0.5378  0.3146  2.2097
  166SAPE   H2S18681   5.895   5.601   6.360  1.2837  2.3790  0.7236
  166SAPE    C318682   5.423   5.902   6.342 -0.5202 -0.8063 -0.2359
  166SAPE    HX18683   5.349   5.843   6.285 -1.1985 -0.7379  0.5727
  166SAPE    HY18684   5.389   6.006   6.320 -0.6489 -0.7353  0.2910
  166SAPE   O3118685   5.419   5.880   6.485  0.2161  0.9813  0.6200
  166SAPE   C3118686   5.358   5.763   6.523 -0.4192 -0.1969 -0.3611
  166SAPE   O3218687   5.312   5.683   6.444 -0.3769 -0.5840 -0.9170
  166SAPE   C3218688   5.372   5.741   6.677 -0.0206  0.1451 -0.0113
  166SAPE   H2X18689   5.275   5.714   6.726 -0.1250  1.0122  0.2732
  166SAPE   H2Y18690   5.389   5.840   6.724  0.9738  0.0838 -0.2435
  166SAPE   C2318691   5.869   5.646   6.557  0.6044  0.3135 -0.3396
  166SAPE   H3R18692   5.786   5.670   6.627  1.7023 -0.4213  1.2534
  166SAPE   H3S18693   5.950   5.722   6.548  0.8130  0.0339 -0.8804
  166SAPE   C2418694   5.928   5.516   6.619 -0.3555 -0.5906 -0.3755
  166SAPE   H4R18695   5.845   5.443   6.603 -1.1169  0.3086 -0.6125
  166SAPE   H4S18696   5.926   5.519   6.731 -1.7678 -0.8287 -0.3736
  166SAPE   C2518697   6.055   5.456   6.562 -0.3111 -0.6375  0.0174
  166SAPE   H5R18698   6.055   5.445   6.452 -0.0276  1.5841 -0.2245
  166SAPE   C2618699   6.153   5.406   6.639 -0.4669  0.2456  0.0454
  166SAPE   H6R18700   6.236   5.359   6.585 -1.8610 -0.4100 -1.5773
  166SAPE   C2718701   6.157   5.407   6.793  0.3090  0.0822  0.0470
  166SAPE   H7R18702   6.234   5.333   6.825  1.0321  0.7668 -0.0743
  166SAPE   H7S18703   6.060   5.376   6.836 -0.2920  1.7708 -0.0477
  166SAPE   C2818704   6.211   5.536   6.860  0.2771  0.4264  0.9518
  166SAPE   H8R18705   6.262   5.607   6.792 -2.5254  1.5001 -0.1134
  166SAPE   C2918706   6.203   5.569   6.987  0.6934 -0.0473  0.4177
  166SAPE   H9R18707   6.256   5.661   7.014  3.8185 -1.1734 -1.6578
  166SAPE  C21018708   6.130   5.497   7.105  0.4471  0.2499  0.2515
  166SAPE  H10R18709   6.034   5.453   7.073  0.9635  0.5436 -1.7867
  166SAPE  H10S18710   6.095   5.558   7.190  1.3904  0.0225  0.8143
  166SAPE  C21118711   6.210   5.381   7.150  0.6048  0.2786 -0.3873
  166SAPE  H11R18712   6.252   5.313   7.075  0.7743 -1.3087  1.1107
  166SAPE  C21218713   6.235   5.333   7.272 -0.2292 -0.4964  0.6589
  166SAPE  H12R18714   6.306   5.251   7.285  1.3225  0.9418  1.4768
  166SAPE  C21318715   6.169   5.386   7.404 -0.3952 -0.1595 -0.0018
  166SAPE  H13R18716   6.207   5.321   7.486  1.4750  1.9057  0.8117
  166SAPE  H13S18717   6.058   5.379   7.400 -0.3246 -2.2188  1.1330
  166SAPE  C21418718   6.208   5.528   7.441  0.5138 -0.6171 -0.3393
  166SAPE  H14R18719   6.181   5.610   7.372  0.6674  1.2248  1.7506
  166SAPE  C21518720   6.264   5.552   7.553  0.2326  0.3584 -0.2461
  166SAPE  H15R18721   6.277   5.660   7.570 -2.9834  1.0956 -1.9076
  166SAPE  C21618722   6.316   5.455   7.658 -0.0607 -0.6464 -0.0721
  166SAPE  H16R18723   6.372   5.365   7.625  1.5740 -0.6134  2.4584
  166SAPE  H16S18724   6.230   5.407   7.709 -0.7372  1.2750  0.6083
  166SAPE  C21718725   6.404   5.525   7.766 -0.2334  0.2476  0.3847
  166SAPE  H17R18726   6.332   5.583   7.827 -0.8173  3.2800 -3.0115
  166SAPE  H17S18727   6.470   5.600   7.716  0.2435 -0.5519 -0.2168
  166SAPE  C21818728   6.480   5.424   7.843  0.1205 -0.3309  0.0192
  166SAPE  H18R18729   6.549   5.370   7.775  0.8447  1.2749 -0.5428
  166SAPE  H18S18730   6.423   5.341   7.888  1.3632 -1.7107 -0.9157
  166SAPE  C21918731   6.575   5.486   7.946 -0.7003  0.6147 -0.3945
  166SAPE  H19R18732   6.637   5.565   7.897  0.1944  0.3484  0.3108
  166SAPE  H19S18733   6.631   5.396   7.978  0.4426  2.3190  2.5527
  166SAPE  C22018734   6.501   5.549   8.063 -0.2274  0.1315  1.3775
  166SAPE  H20R18735   6.404   5.495   8.074 -1.3742  2.5490  3.4318
  166SAPE  H20S18736   6.473   5.655   8.048  0.5077  0.0615 -0.6232
  166SAPE  H20T18737   6.559   5.540   8.158  0.2722  4.4091  1.5413
  166SAPE   C3318738   5.482   5.650   6.712  0.0041 -0.1347  0.5011
  166SAPE   H3X18739   5.568   5.676   6.647  1.2858 -1.0951  1.7747
  166SAPE   H3Y18740   5.454   5.543   6.706 -0.1134 -0.2065  2.0333
  166SAPE   C3418741   5.510   5.664   6.861 -0.2104  0.2487  0.5116
  166SAPE   H4X18742   5.566   5.574   6.895 -0.9036 -1.1487 -1.9139
  166SAPE   H4Y18743   5.410   5.656   6.910  0.4218 -1.6664  1.5616
  166SAPE   C3518744   5.593   5.784   6.908 -0.0057  0.0840  0.3418
  166SAPE   H5X18745   5.523   5.865   6.876  1.0156  0.4835 -0.9209
  166SAPE   H5Y18746   5.690   5.783   6.854  0.5168  2.9222  1.1870
  166SAPE   C3618747   5.619   5.801   7.064  0.2450 -0.1650  0.2410
  166SAPE   H6X18748   5.521   5.803   7.117  1.4842  0.4514  2.5283
  166SAPE   H6Y18749   5.659   5.904   7.074 -0.8254  0.4072 -1.0436
  166SAPE   C3718750   5.703   5.690   7.128 -0.2567  0.4195  0.1972
  166SAPE   H7X18751   5.808   5.711   7.096  0.1027 -1.3892  0.1360
  166SAPE   H7Y18752   5.685   5.590   7.084 -0.1724  0.1210  0.8398
  166SAPE   C3818753   5.693   5.695   7.280 -1.1251 -0.7822 -0.5261
  166SAPE   H8X18754   5.753   5.606   7.307 -0.1810  0.0177  0.0429
  166SAPE   H8Y18755   5.596   5.677   7.331 -2.5711  1.6913 -2.2484
  166SAPE   C3918756   5.753   5.825   7.348 -0.4268  0.1424  0.1003
  166SAPE   H9X18757   5.677   5.899   7.315 -0.8875  0.1310  1.1379
  166SAPE   H9Y18758   5.846   5.865   7.303 -0.7914  2.2655  1.1867
  166SAPE  C31018759   5.757   5.818   7.500 -0.1210 -0.8007  0.4797
  166SAPE  H10X18760   5.664   5.770   7.535 -0.1014  1.0738  3.2279
  166SAPE  H10Y18761   5.778   5.913   7.553 -2.8913  0.0808  0.0848
  166SAPE  C31118762   5.880   5.739   7.552  0.1539 -0.0584 -0.6968
  166SAPE  H11X18763   5.969   5.805   7.557 -1.1680  1.8293 -1.4228
  166SAPE  H11Y18764   5.903   5.663   7.474 -0.6981 -0.6089 -0.4191
  166SAPE  C31218765   5.864   5.674   7.697 -0.3160 -0.6694 -0.0047
  166SAPE  H12X18766   5.787   5.729   7.755  2.3553  2.6991  0.4923
  166SAPE  H12Y18767   5.962   5.697   7.744  0.0251 -1.0115 -0.5404
  166SAPE  C31318768   5.836   5.531   7.686  0.5339  0.0206  0.8406
  166SAPE  H13X18769   5.911   5.481   7.622  1.4140  1.4238  0.7563
  166SAPE  H13Y18770   5.739   5.521   7.632  1.9772 -6.1672 -0.9474
  166SAPE  C31418771   5.829   5.462   7.820  0.2584 -0.6835 -0.0661
  166SAPE  H14X18772   5.765   5.371   7.818 -0.9183  0.1238 -0.0901
  166SAPE  H14Y18773   5.801   5.530   7.903  1.7745  1.3634 -1.2041
  166SAPE  C31518774   5.964   5.413   7.866 -1.0330 -0.5293 -0.0641
  166SAPE  H15X18775   6.035   5.498   7.869  1.3142 -2.3927 -1.4368
  166SAPE  H15Y18776   6.009   5.356   7.782  1.0969 -0.4352  0.9823
  166SAPE  C31618777   5.978   5.366   8.015 -0.8593  0.3566 -0.3421
  166SAPE  H16X18778   5.970   5.452   8.085  3.3983  1.6036 -1.2751
  166SAPE  H16Y18779   6.077   5.316   8.027 -0.1382  1.6467 -0.8103
  166SAPE  C31718780   5.871   5.268   8.064  0.0881  0.2504 -0.1856
  166SAPE  H17X18781   5.871   5.186   7.988 -0.0045  0.1208 -0.0470
  166SAPE  H17Y18782   5.773   5.320   8.061 -0.9405 -1.4116  2.3747
  166SAPE  C31818783   5.887   5.205   8.206  0.1478  0.1570 -0.6717
  166SAPE  H18X18784   5.909   5.294   8.269  0.8916 -1.2419  1.1005
  166SAPE  H18Y18785   5.957   5.119   8.219 -0.2287  0.2517  2.2167
  166SAPE  H18Z18786   5.789   5.164   8.239  0.4142 -0.8967 -1.1584
  167SAPE     N18787   0.430   4.867   5.851  0.7981 -0.3979  0.0417
  167SAPE   HN118788   0.378   4.956   5.832  2.3956  0.2759 -1.3015
  167SAPE   HN218789   0.487   4.842   5.768  1.1602 -0.0886  0.1960
  167SAPE   HN318790   0.365   4.786   5.857 -0.7362  0.8011 -0.0004
  167SAPE   C1218791   0.496   4.884   5.979  0.9614  0.7246  0.2537
  167SAPE  H12A18792   0.579   4.809   5.982  0.0653 -0.2857  0.1207
  167SAPE  H12B18793   0.422   4.861   6.059 -1.2506  2.2699 -1.3119
  167SAPE   C1118794   0.533   5.030   5.988  0.3235 -0.2861  0.2406
  167SAPE  H11A18795   0.587   5.056   5.894 -2.1507  1.7263 -0.7064
  167SAPE  H11B18796   0.584   5.055   6.083 -0.5937  0.8316  0.4511
  167SAPE     P18797   0.401   5.244   6.039  0.0694  0.1931  0.2624
  167SAPE   O1318798   0.522   5.318   6.014 -0.1609 -0.0087  0.4604
  167SAPE   O1418799   0.276   5.308   5.999 -0.2087  0.5233 -0.3347
  167SAPE   O1218800   0.416   5.104   5.969  0.0885 -0.4562 -0.1027
  167SAPE   O1118801   0.409   5.226   6.192  0.5323  0.6274 -0.0961
  167SAPE    C118802   0.343   5.123   6.262  0.9521 -0.1351 -0.1014
  167SAPE    HA18803   0.292   5.050   6.196 -0.7165  0.6611  0.2676
  167SAPE    HB18804   0.416   5.065   6.323  0.2025 -2.2988 -1.2166
  167SAPE    C218805   0.238   5.193   6.355 -0.3145 -0.2406 -0.2395
  167SAPE    HS18806   0.195   5.118   6.424 -0.9561 -0.2490 -0.6391
  167SAPE   O2118807   0.126   5.250   6.278  0.5661 -0.3493 -0.1390
  167SAPE   C2118808   0.045   5.170   6.218  0.2930  0.2114 -0.3031
  167SAPE   O2218809   0.069   5.049   6.198 -0.4498 -0.0886  0.6174
  167SAPE   C2218810  -0.071   5.247   6.154  0.6671  0.0262 -0.5431
  167SAPE   H2R18811  -0.081   5.345   6.206 -2.2583 -0.2686 -0.5076
  167SAPE   H2S18812  -0.046   5.265   6.047 -1.9389  1.2247 -0.9808
  167SAPE    C318813   0.301   5.312   6.447 -0.5738  0.3190 -0.2714
  167SAPE    HX18814   0.222   5.370   6.499 -0.3046 -0.3219  0.8785
  167SAPE    HY18815   0.362   5.378   6.381  0.5190 -0.3912 -0.0008
  167SAPE   O3118816   0.393   5.247   6.536 -0.3715  0.4650  0.1083
  167SAPE   C3118817   0.391   5.278   6.667  0.0088 -0.3652  0.7469
  167SAPE   O3218818   0.338   5.368   6.721  0.1043  0.1385 -0.5131
  167SAPE   C3218819   0.499   5.193   6.736  0.6203 -0.3325 -0.2023
  167SAPE   H2X18820   0.536   5.233   6.833  1.1821  0.5166 -0.7619
  167SAPE   H2Y18821   0.584   5.196   6.665  1.0923 -1.3222  0.3079
  167SAPE   C2318822  -0.208   5.168   6.167  0.5441  0.5993  0.5250
  167SAPE   H3R18823  -0.189   5.059   6.155  0.6790  0.3279  3.0081
  167SAPE   H3S18824  -0.296   5.197   6.105 -0.8332 -0.6274  1.8751
  167SAPE   C2418825  -0.264   5.187   6.312  0.3035 -0.1482 -0.5303
  167SAPE   H4R18826  -0.373   5.166   6.320 -0.0226  1.8119  0.5926
  167SAPE   H4S18827  -0.263   5.294   6.341 -2.5831 -0.2781  0.1949
  167SAPE   C2518828  -0.191   5.100   6.420 -0.3362 -0.1155  0.1206
  167SAPE   H5R18829  -0.201   4.993   6.397  0.2900  0.0772 -1.1012
  167SAPE   C2618830  -0.122   5.152   6.525  0.1296  0.0909 -0.1711
  167SAPE   H6R18831  -0.084   5.089   6.607  3.3746  1.9456 -0.2028
  167SAPE   C2718832  -0.114   5.300   6.554 -0.3090  0.4192  0.0833
  167SAPE   H7R18833  -0.098   5.347   6.455 -1.4387 -1.1969 -0.8898
  167SAPE   H7S18834  -0.013   5.316   6.597 -0.2023  0.4945 -0.1969
  167SAPE   C2818835  -0.229   5.372   6.626  0.4621 -0.1859 -0.5668
  167SAPE   H8R18836  -0.319   5.392   6.566  0.6857 -1.0437 -1.2166
  167SAPE   C2918837  -0.219   5.404   6.763 -0.6259 -0.3349 -0.2644
  167SAPE   H9R18838  -0.303   5.463   6.803  0.3565  0.7660  0.2027
  167SAPE  C21018839  -0.103   5.377   6.861  0.8292  0.6720 -0.6523
  167SAPE  H10R18840  -0.076   5.471   6.915 -2.4265  0.7061  0.9918
  167SAPE  H10S18841  -0.013   5.344   6.804  0.9688  1.2072 -0.7501
  167SAPE  C21118842  -0.147   5.273   6.963  0.9136 -0.4690  0.4447
  167SAPE  H11R18843  -0.160   5.170   6.925 -0.6884 -0.5972  1.2841
  167SAPE  C21218844  -0.166   5.295   7.093 -0.0070 -0.5566  0.0958
  167SAPE  H12R18845  -0.193   5.208   7.155 -0.1483 -1.6595 -1.4830
  167SAPE  C21318846  -0.155   5.428   7.170  0.3648 -0.4751  0.3705
  167SAPE  H13R18847  -0.233   5.497   7.129 -2.0234 -1.8602  2.4194
  167SAPE  H13S18848  -0.056   5.478   7.160  1.1819 -2.0185  0.7055
  167SAPE  C21418849  -0.191   5.418   7.314  0.5364  0.1304  0.0332
  167SAPE  H14R18850  -0.279   5.479   7.337 -0.1509 -0.4659 -0.9928
  167SAPE  C21518851  -0.137   5.346   7.413 -1.4563 -0.5181  1.0408
  167SAPE  H15R18852  -0.180   5.339   7.514 -2.1178 -2.0383  0.6799
  167SAPE  C21618853  -0.011   5.271   7.397  0.2248 -0.0567  1.0145
  167SAPE  H16R18854   0.028   5.278   7.293 -0.9055  2.2966  0.7091
  167SAPE  H16S18855  -0.043   5.169   7.425  1.3096 -1.1300 -1.4971
  167SAPE  C21718856   0.101   5.312   7.493 -0.2683  0.5195 -0.3302
  167SAPE  H17R18857   0.128   5.419   7.482  1.4584 -0.0243 -1.4675
  167SAPE  H17S18858   0.195   5.256   7.481  0.5535  1.5937  0.9273
  167SAPE  C21818859   0.071   5.290   7.644  0.0778 -0.1252  0.3724
  167SAPE  H18R18860   0.015   5.194   7.654  0.7194 -0.8143 -2.2622
  167SAPE  H18S18861  -0.003   5.367   7.677 -0.5891 -1.2367  1.4929
  167SAPE  C21918862   0.194   5.310   7.735 -0.2322  0.0548 -0.3874
  167SAPE  H19R18863   0.255   5.400   7.714  1.7049 -0.8653  1.1008
  167SAPE  H19S18864   0.269   5.230   7.713 -0.5199  0.7283 -4.0747
  167SAPE  C22018865   0.170   5.315   7.889 -0.5238 -0.7384  0.4188
  167SAPE  H20R18866   0.124   5.219   7.919  0.1958 -1.1116  0.3359
  167SAPE  H20S18867   0.102   5.399   7.915  2.4580  1.8037  0.3099
  167SAPE  H20T18868   0.263   5.330   7.948  1.0477  1.2139 -2.4410
  167SAPE   C3318869   0.459   5.050   6.753  0.2519  0.0071 -0.2341
  167SAPE   H3X18870   0.550   4.986   6.756  1.2928  1.3600 -1.8000
  167SAPE   H3Y18871   0.388   5.009   6.677  1.0886  0.4495 -1.2670
  167SAPE   C3418872   0.380   5.031   6.889 -0.0985 -0.3354  0.1387
  167SAPE   H4X18873   0.297   5.105   6.892 -0.1545 -0.3620 -0.6903
  167SAPE   H4Y18874   0.453   5.059   6.968 -1.0422 -1.0582  1.2885
  167SAPE   C3518875   0.318   4.893   6.900 -0.1216  0.5648 -0.2008
  167SAPE   H5X18876   0.383   4.812   6.937 -0.2953  1.1357  1.4141
  167SAPE   H5Y18877   0.271   4.854   6.808 -0.7879  1.9018 -0.4479
  167SAPE   C3618878   0.206   4.890   7.012 -0.1826  0.0742 -0.4305
  167SAPE   H6X18879   0.155   4.793   6.990 -2.2653  1.0070  0.1251
  167SAPE   H6Y18880   0.135   4.974   6.996  0.4291  0.3611 -1.7011
  167SAPE   C3718881   0.273   4.902   7.147 -1.1748  0.0058  0.6104
  167SAPE   H7X18882   0.314   5.005   7.153 -2.2813  0.5833 -1.3466
  167SAPE   H7Y18883   0.364   4.839   7.151 -0.3315  1.2289  0.8680
  167SAPE   C3818884   0.180   4.867   7.261 -0.0960 -0.1137 -0.3239
  167SAPE   H8X18885   0.156   4.761   7.241  1.0113 -0.2887 -0.7809
  167SAPE   H8Y18886   0.082   4.917   7.245 -0.4263 -0.4145  0.7110
  167SAPE   C3918887   0.242   4.897   7.394 -0.5027  0.1246  0.0461
  167SAPE   H9X18888   0.271   5.004   7.402 -1.0609  0.3097 -0.3868
  167SAPE   H9Y18889   0.333   4.835   7.410 -0.8863 -0.7281 -0.9925
  167SAPE  C31018890   0.138   4.874   7.507 -0.7795 -0.0108  0.0934
  167SAPE  H10X18891   0.050   4.817   7.472  0.1860 -0.6775 -1.2623
  167SAPE  H10Y18892   0.110   4.980   7.529  0.1522  0.3078 -0.2571
  167SAPE  C31118893   0.194   4.797   7.625 -0.2597 -0.1051  0.0025
  167SAPE  H11X18894   0.300   4.824   7.643  0.6757 -1.2935 -3.2452
  167SAPE  H11Y18895   0.182   4.692   7.589 -2.4939 -0.6545  2.1957
  167SAPE  C31218896   0.110   4.823   7.753 -0.2884  0.3043  0.3851
  167SAPE  H12X18897   0.110   4.725   7.805  0.1846  0.3647  0.4975
  167SAPE  H12Y18898   0.010   4.835   7.706 -0.7268 -0.1101  1.2074
  167SAPE  C31318899   0.153   4.931   7.846  0.7761  0.7548  0.1405
  167SAPE  H13X18900   0.115   5.029   7.811  1.2544  1.3478  1.2454
  167SAPE  H13Y18901   0.263   4.933   7.834  0.7108 -1.2200 -1.0179
  167SAPE  C31418902   0.103   4.925   7.993 -0.1176  0.0422 -0.2730
  167SAPE  H14X18903   0.171   4.983   8.058 -1.5271  1.2286  0.1607
  167SAPE  H14Y18904   0.099   4.822   8.033 -1.2233  0.6934  1.2966
  167SAPE  C31518905  -0.034   4.991   8.007  0.3549 -0.6351  0.0383
  167SAPE  H15X18906  -0.109   4.930   7.951  1.8992  1.2974 -4.3810
  167SAPE  H15Y18907  -0.050   5.083   7.947 -1.0736 -0.9487 -0.0858
  167SAPE  C31618908  -0.080   5.020   8.153  0.8891  0.6905 -0.3021
  167SAPE  H16X18909   0.008   5.064   8.204  1.2713 -0.6939  0.2708
  167SAPE  H16Y18910  -0.102   4.923   8.203  1.2527  0.9631  0.3921
  167SAPE  C31718911  -0.196   5.113   8.158 -0.4786  0.0891 -0.2233
  167SAPE  H17X18912  -0.279   5.067   8.100 -0.0047 -0.4755 -0.4733
  167SAPE  H17Y18913  -0.165   5.209   8.111 -1.1571  0.2478 -0.3509
  167SAPE  C31818914  -0.240   5.133   8.303  0.1814  0.7099 -0.3951
  167SAPE  H18X18915  -0.343   5.176   8.305  0.1022  0.5836 -1.2746
  167SAPE  H18Y18916  -0.167   5.207   8.342  0.2161 -1.1924  3.3945
  167SAPE  H18Z18917  -0.246   5.038   8.360 -3.9343  0.5790 -0.8678
  168SAPE     N18918   1.471   0.762   6.435  0.3670 -0.0231  0.0245
  168SAPE   HN118919   1.425   0.846   6.394 -2.4611 -1.9730 -0.9661
  168SAPE   HN218920   1.413   0.678   6.453  0.1027  0.1348 -0.0914
  168SAPE   HN318921   1.496   0.798   6.529  1.2879  0.8261 -0.5284
  168SAPE   C1218922   1.596   0.712   6.368 -0.1135 -0.0368 -0.4725
  168SAPE  H12A18923   1.688   0.761   6.408  0.1528 -0.8043 -0.1081
  168SAPE  H12B18924   1.589   0.726   6.258 -1.7578  0.0609 -0.3589
  168SAPE   C1118925   1.623   0.564   6.393  0.3490  0.8307  0.0938
  168SAPE  H11A18926   1.645   0.541   6.500 -3.6630  0.5562  0.9323
  168SAPE  H11B18927   1.720   0.539   6.345  0.0571  0.7271 -0.4465
  168SAPE     P18928   1.539   0.328   6.374  0.2850 -0.0804 -0.1208
  168SAPE   O1318929   1.408   0.268   6.365  0.4108 -0.3478  0.4493
  168SAPE   O1418930   1.643   0.283   6.282 -0.5037  0.4673 -0.0671
  168SAPE   O1218931   1.516   0.482   6.353  0.5193 -0.2173 -0.2843
  168SAPE   O1118932   1.582   0.320   6.521 -0.0087 -0.2420 -0.2141
  168SAPE    C118933   1.512   0.252   6.629 -0.4587 -0.0652  0.3463
  168SAPE    HA18934   1.431   0.321   6.661 -0.8126  0.0515 -0.7672
  168SAPE    HB18935   1.466   0.154   6.603  0.8988 -0.4825 -0.5635
  168SAPE    C218936   1.613   0.239   6.748 -0.4381  0.3020  0.0703
  168SAPE    HS18937   1.663   0.147   6.711  0.9895  1.2782 -0.4926
  168SAPE   O2118938   1.546   0.220   6.874 -0.3673  0.6414 -0.3761
  168SAPE   C2118939   1.491   0.102   6.896  0.5381 -0.3241  0.5443
  168SAPE   O2218940   1.513   0.000   6.829 -0.4998  0.1090  0.2664
  168SAPE   C2218941   1.408   0.101   7.024  0.6833  0.1429  0.8234
  168SAPE   H2R18942   1.388  -0.004   7.056  4.1090 -1.2555 -1.3756
  168SAPE   H2S18943   1.461   0.149   7.108 -3.7472  1.8572  2.8182
  168SAPE    C318944   1.712   0.364   6.765 -0.5567 -0.3854  0.0646
  168SAPE    HX18945   1.651   0.453   6.791  0.5589 -0.0649  1.6218
  168SAPE    HY18946   1.760   0.377   6.665 -0.9867  2.2627  0.1610
  168SAPE   O3118947   1.820   0.335   6.856 -0.0665 -0.5320 -0.1004
  168SAPE   C3118948   1.923   0.270   6.800  0.0548  0.7019 -0.1669
  168SAPE   O3218949   1.937   0.239   6.685 -0.0816 -0.1220  0.3527
  168SAPE   C3218950   2.014   0.227   6.919 -0.0888  0.7800 -0.4465
  168SAPE   H2X18951   2.000   0.294   7.007  0.2177  1.8113 -1.1619
  168SAPE   H2Y18952   2.116   0.243   6.879  0.0389 -0.4420 -0.6114
  168SAPE   C2318953   1.275   0.178   7.003  0.0126 -0.3335  0.0913
  168SAPE   H3R18954   1.225   0.142   6.910  0.2721  0.3796 -0.3352
  168SAPE   H3S18955   1.313   0.280   6.981  0.6173 -0.0999  2.1749
  168SAPE   C2418956   1.186   0.182   7.131 -0.1984 -0.1074 -1.0755
  168SAPE   H4R18957   1.121   0.272   7.130 -0.1215 -0.0323  0.0395
  168SAPE   H4S18958   1.245   0.200   7.224 -3.8809 -0.2250  1.4145
  168SAPE   C2518959   1.113   0.054   7.137 -0.6234 -0.1180 -0.2199
  168SAPE   H5R18960   1.055   0.030   7.047 -0.3711 -2.9420  0.3143
  168SAPE   C2618961   1.114  -0.037   7.234 -0.3398  0.5359 -0.4874
  168SAPE   H6R18962   1.062  -0.130   7.210  0.6504 -0.3057  0.5905
  168SAPE   C2718963   1.199  -0.023   7.358 -0.1406  0.0237 -0.5827
  168SAPE   H7R18964   1.302   0.015   7.343  0.4514 -1.0657  0.5828
  168SAPE   H7S18965   1.211  -0.124   7.403 -0.1223  0.6502  0.8456
  168SAPE   C2818966   1.133   0.080   7.444 -0.3933 -0.1606  0.1676
  168SAPE   H8R18967   1.117   0.181   7.404  0.0977 -0.3276 -0.4525
  168SAPE   C2918968   1.103   0.074   7.577  0.2891 -0.4081 -0.1975
  168SAPE   H9R18969   1.051   0.156   7.628  0.7395  0.2099 -0.7175
  168SAPE  C21018970   1.130  -0.046   7.666 -0.5739 -0.0811  0.0672
  168SAPE  H10R18971   1.196  -0.119   7.615 -0.8077  0.0674 -0.4520
  168SAPE  H10S18972   1.037  -0.102   7.691  0.5167 -1.7344  0.5470
  168SAPE  C21118973   1.207   0.012   7.786 -0.3904  0.3834 -0.2398
  168SAPE  H11R18974   1.278   0.093   7.765  1.1678 -1.2561 -1.4902
  168SAPE  C21218975   1.211  -0.019   7.917 -0.1350  0.1705  0.2932
  168SAPE  H12R18976   1.259   0.053   7.985  1.0826  1.8751 -2.2820
  168SAPE  C21318977   1.133  -0.135   7.979  0.1713 -0.4232 -0.6702
  168SAPE  H13R18978   1.129  -0.226   7.915 -1.1934 -1.6246  1.0848
  168SAPE  H13S18979   1.028  -0.101   7.992  0.4604 -0.4365  1.8879
  168SAPE  C21418980   1.188  -0.185   8.111 -0.2953 -0.0089 -0.0192
  168SAPE  H14R18981   1.274  -0.254   8.108  0.1187  0.2826  3.3354
  168SAPE  C21518982   1.130  -0.171   8.233  0.3717  0.0590  0.2591
  168SAPE  H15R18983   1.187  -0.209   8.318  1.9560  0.1604 -0.7324
  168SAPE  C21618984   1.004  -0.102   8.269  0.7384 -0.4012  0.9778
  168SAPE  H16R18985   0.929  -0.184   8.267  0.8366 -0.4649 -1.4286
  168SAPE  H16S18986   0.981  -0.022   8.196  0.1628 -0.4374  1.1127
  168SAPE  C21718987   1.016  -0.044   8.406  0.5637 -0.1135  0.0558
  168SAPE  H17R18988   1.110   0.012   8.424  1.1922 -1.6013  1.5772
  168SAPE  H17S18989   1.001  -0.130   8.476 -1.5671  1.1445  1.1822
  168SAPE  C21818990   0.888   0.038   8.430 -0.3733 -0.3356 -0.4522
  168SAPE  H18R18991   0.802  -0.025   8.399  0.3657 -0.7895 -1.6216
  168SAPE  H18S18992   0.896   0.118   8.353  1.9172  0.4799  0.5683
  168SAPE  C21918993   0.866   0.094   8.567  0.0364  0.4166  0.5395
  168SAPE  H19R18994   0.953   0.163   8.575  0.7966 -0.7467  2.7555
  168SAPE  H19S18995   0.879   0.013   8.642  1.4063  0.9292  0.8820
  168SAPE  C22018996   0.734   0.168   8.590 -0.0291  0.1289 -0.2347
  168SAPE  H20R18997   0.742   0.226   8.684  0.8006  0.2017 -0.3484
  168SAPE  H20S18998   0.645   0.101   8.596  0.4863 -0.5354  0.0057
  168SAPE  H20T18999   0.710   0.237   8.507 -0.3542 -0.0586 -0.2975
  168SAPE   C3319000   1.979   0.082   6.956 -0.2326 -0.5340  0.9424
  168SAPE   H3X19001   2.054   0.039   7.027 -1.8544 -0.3035  2.8563
  168SAPE   H3Y19002   1.981   0.026   6.861  0.5447  2.1207 -0.6644
  168SAPE   C3419003   1.837   0.065   7.003  0.3673 -0.3958 -0.0014
  168SAPE   H4X19004   1.792  -0.036   6.989  0.7515 -0.6016  0.2073
  168SAPE   H4Y19005   1.762   0.138   6.967  1.6930  1.9901  1.9233
  168SAPE   C3519006   1.833   0.082   7.151  0.1296 -0.2403 -0.5671
  168SAPE   H5X19007   1.891   0.175   7.171 -0.1286 -0.0541 -0.6788
  168SAPE   H5Y19008   1.889   0.006   7.209 -0.2190 -0.6814 -0.8058
  168SAPE   C3619009   1.699   0.135   7.199  0.0901  0.0255  0.3002
  168SAPE   H6X19010   1.622   0.060   7.173 -0.3526 -0.7596  3.6745
  168SAPE   H6Y19011   1.686   0.233   7.147 -0.3915 -0.7105 -0.9976
  168SAPE   C3719012   1.693   0.154   7.353 -0.2020 -0.7480 -0.4004
  168SAPE   H7X19013   1.758   0.240   7.380 -0.2371 -0.5893 -0.8229
  168SAPE   H7Y19014   1.735   0.063   7.401  0.0120 -0.8180 -0.7150
  168SAPE   C3819015   1.552   0.192   7.398  0.1687  0.2241 -0.1480
  168SAPE   H8X19016   1.493   0.107   7.357  0.7472 -0.0061 -0.5114
  168SAPE   H8Y19017   1.517   0.281   7.343 -1.1674 -0.2354 -0.0625
  168SAPE   C3919018   1.546   0.220   7.549  0.7047 -0.3134 -0.1096
  168SAPE   H9X19019   1.582   0.132   7.606  0.8330  1.0488  1.9702
  168SAPE   H9Y19020   1.438   0.230   7.573  0.8730  1.5263 -0.0812
  168SAPE  C31019021   1.622   0.344   7.600 -0.2930 -0.1534 -0.2038
  168SAPE  H10X19022   1.614   0.426   7.525  2.5767  0.2721 -0.0884
  168SAPE  H10Y19023   1.729   0.319   7.615 -0.4013  1.0765  3.1819
  168SAPE  C31119024   1.563   0.392   7.737  1.2445  0.5433  0.1619
  168SAPE  H11X19025   1.462   0.437   7.725  1.0364 -0.4709 -2.0470
  168SAPE  H11Y19026   1.631   0.468   7.781  1.9567  0.4165 -0.7028
  168SAPE  C31219027   1.572   0.274   7.841 -0.0801 -0.2355  0.8778
  168SAPE  H12X19028   1.679   0.252   7.821 -0.9022 -0.5792 -3.8934
  168SAPE  H12Y19029   1.498   0.197   7.811  0.5851 -0.0541 -1.3374
  168SAPE  C31319030   1.547   0.318   7.981 -0.7220  0.2274  0.9575
  168SAPE  H13X19031   1.627   0.392   8.004 -0.4930  0.2166  0.2138
  168SAPE  H13Y19032   1.565   0.229   8.045  1.5551 -1.7491 -2.2719
  168SAPE  C31419033   1.398   0.349   8.000 -0.4920  0.4526 -0.6681
  168SAPE  H14X19034   1.327   0.275   7.958 -0.7026  0.1277  0.2506
  168SAPE  H14Y19035   1.373   0.447   7.955  1.2360  0.8421 -0.7975
  168SAPE  C31519036   1.368   0.357   8.154  0.3833  0.4901  1.0608
  168SAPE  H15X19037   1.456   0.406   8.199  0.6799  1.2484 -0.3087
  168SAPE  H15Y19038   1.374   0.251   8.187  0.3023  0.1216 -0.0718
  168SAPE  C31619039   1.238   0.427   8.174 -0.6305 -0.1044  0.4323
  168SAPE  H16X19040   1.164   0.372   8.112  0.4835 -1.9318  0.6849
  168SAPE  H16Y19041   1.237   0.535   8.148  0.9209  0.0758  1.0897
  168SAPE  C31719042   1.190   0.426   8.321  0.4512  0.0696 -0.0549
  168SAPE  H17X19043   1.285   0.424   8.378  0.8596  0.6152 -0.7130
  168SAPE  H17Y19044   1.148   0.325   8.343  0.0570  0.6174  1.7496
  168SAPE  C31819045   1.096   0.545   8.364  0.3145 -0.2759  0.2876
  168SAPE  H18X19046   1.083   0.629   8.293 -2.0915 -0.5302  0.3687
  168SAPE  H18Y19047   1.101   0.571   8.472 -0.5024  0.7061  0.0930
  168SAPE  H18Z19048   0.991   0.509   8.355 -0.7193  1.8540  3.2536
  169SAPE     N19049   1.531   2.360   6.416 -0.1877 -0.1605 -0.0588
  169SAPE   HN119050   1.595   2.429   6.372  0.3742 -0.9061 -0.4367
  169SAPE   HN219051   1.571   2.342   6.511 -1.9263  1.3277  0.9899
  169SAPE   HN319052   1.545   2.271   6.364  1.2339  0.4717 -0.7749
  169SAPE   C1219053   1.388   2.396   6.428  0.3157  0.6193 -0.8608
  169SAPE  H12A19054   1.352   2.429   6.328 -0.0212  0.5323 -0.7674
  169SAPE  H12B19055   1.385   2.486   6.492 -0.4491 -0.7408  1.0424
  169SAPE   C1119056   1.295   2.281   6.474  0.1185  0.1752 -0.0795
  169SAPE  H11A19057   1.198   2.320   6.513 -0.0695  0.5548 -0.9247
  169SAPE  H11B19058   1.335   2.248   6.572 -1.4245  0.9940  0.8528
  169SAPE     P19059   1.193   2.166   6.260 -0.0128  0.1310 -0.0788
  169SAPE   O1319060   1.183   2.294   6.194 -0.0787 -0.3794  0.1875
  169SAPE   O1419061   1.230   2.050   6.178  0.0557  0.1069  0.8991
  169SAPE   O1219062   1.303   2.181   6.374  0.2255 -0.9009 -0.3554
  169SAPE   O1119063   1.054   2.158   6.336 -0.0038 -0.2038  0.4695
  169SAPE    C119064   1.026   2.037   6.408 -0.3250  0.4905 -0.5183
  169SAPE    HA19065   0.986   1.962   6.336  0.4933 -0.2124 -0.2478
  169SAPE    HB19066   1.122   2.006   6.454 -0.7497 -1.3035 -0.7857
  169SAPE    C219067   0.917   2.054   6.513 -0.1343 -0.1628  0.0981
  169SAPE    HS19068   0.820   2.088   6.471 -1.4776 -1.2736  2.1954
  169SAPE   O2119069   0.978   2.129   6.620 -0.4454 -0.0916  0.4404
  169SAPE   C2119070   0.885   2.172   6.707  0.8648 -0.1356 -0.0750
  169SAPE   O2219071   0.765   2.161   6.696 -0.4116  0.2258 -0.1224
  169SAPE   C2219072   0.961   2.234   6.823  0.1259 -0.0357  0.0114
  169SAPE   H2R19073   1.008   2.155   6.886  0.1634 -0.1071 -0.1052
  169SAPE   H2S19074   1.053   2.282   6.783 -0.6899  1.4607 -0.0841
  169SAPE    C319075   0.890   1.911   6.562 -0.7511 -0.2228  0.3830
  169SAPE    HX19076   0.982   1.851   6.577 -1.7874 -1.7869  0.6112
  169SAPE    HY19077   0.838   1.862   6.477 -1.1293  0.0909  0.4309
  169SAPE   O3119078   0.810   1.901   6.681 -0.1955  0.8958 -0.0497
  169SAPE   C3119079   0.682   1.860   6.679  0.5954  0.0168  0.5632
  169SAPE   O3219080   0.619   1.842   6.575  0.6159 -0.1802 -0.4059
  169SAPE   C3219081   0.621   1.828   6.815 -0.4510  0.1243 -0.4046
  169SAPE   H2X19082   0.606   1.718   6.826  1.9436 -0.1531  0.5496
  169SAPE   H2Y19083   0.519   1.869   6.802 -0.0285  1.0217 -0.9704
  169SAPE   C2319084   0.871   2.325   6.907 -0.9352 -0.4212 -0.1725
  169SAPE   H3R19085   0.911   2.349   7.008 -2.5994  0.5765  0.2732
  169SAPE   H3S19086   0.775   2.271   6.917 -0.9538 -0.5017 -0.7957
  169SAPE   C2419087   0.844   2.466   6.854  0.8452  0.5157 -0.3246
  169SAPE   H4R19088   0.763   2.514   6.914  1.3141 -0.7196  1.3214
  169SAPE   H4S19089   0.801   2.456   6.752  0.2226 -0.9070  0.0658
  169SAPE   C2519090   0.969   2.547   6.836  0.2317 -0.4364 -0.1627
  169SAPE   H5R19091   1.023   2.532   6.741 -2.5556 -0.4972 -1.8021
  169SAPE   C2619092   1.032   2.627   6.929 -0.1306  0.4680  0.3730
  169SAPE   H6R19093   1.123   2.684   6.904  0.3115 -0.8670 -1.1540
  169SAPE   C2719094   0.967   2.658   7.058  0.2834  0.8627 -0.6169
  169SAPE   H7R19095   0.991   2.592   7.144 -1.4159 -0.4027 -1.0806
  169SAPE   H7S19096   0.856   2.648   7.050  0.2682 -1.9970  2.1633
  169SAPE   C2819097   1.010   2.794   7.098 -0.6364 -0.0031  0.1171
  169SAPE   H8R19098   1.021   2.855   7.007  1.8361  0.3025  0.5878
  169SAPE   C2919099   1.033   2.844   7.224 -0.3209  0.7451  0.1188
  169SAPE   H9R19100   1.062   2.948   7.242 -1.5171  0.8713  1.4211
  169SAPE  C21019101   1.006   2.767   7.358 -0.1170 -0.6020  0.3675
  169SAPE  H10R19102   1.098   2.774   7.419 -0.2901  0.7330  0.4868
  169SAPE  H10S19103   1.000   2.657   7.342  0.3532 -0.7280  1.0683
  169SAPE  C21119104   0.875   2.817   7.423  0.2000 -0.3746  0.3762
  169SAPE  H11R19105   0.787   2.791   7.362 -0.4792  0.8777  0.7856
  169SAPE  C21219106   0.859   2.885   7.535 -0.7286 -0.8709 -0.6657
  169SAPE  H12R19107   0.761   2.920   7.571  0.3204  1.4299  0.1061
  169SAPE  C21319108   0.964   2.927   7.635 -0.0747  0.8750  0.0815
  169SAPE  H13R19109   0.979   3.037   7.629  1.2710  0.7428  0.9178
  169SAPE  H13S19110   1.057   2.875   7.604 -1.6876 -1.1256 -1.5306
  169SAPE  C21419111   0.919   2.892   7.778 -0.6298 -0.4492 -0.3596
  169SAPE  H14R19112   0.924   2.786   7.806  1.0334  0.1870  1.9842
  169SAPE  C21519113   0.871   2.977   7.870  0.6800  0.2216 -0.7010
  169SAPE  H15R19114   0.843   2.937   7.968  0.4486  0.4909 -0.6599
  169SAPE  C21619115   0.874   3.126   7.865 -0.0289 -1.0211 -0.0996
  169SAPE  H16R19116   0.780   3.156   7.915 -0.3531 -1.4909 -0.4200
  169SAPE  H16S19117   0.864   3.160   7.760  2.2539 -1.1167 -0.3686
  169SAPE  C21719118   1.010   3.185   7.909  0.5256 -0.2468 -0.4826
  169SAPE  H17R19119   1.075   3.182   7.819  0.8951 -2.0802 -0.1588
  169SAPE  H17S19120   1.068   3.122   7.978  0.5866  1.1255  0.7512
  169SAPE  C21819121   1.004   3.326   7.960  0.2350 -0.1582 -0.3692
  169SAPE  H18R19122   0.960   3.399   7.888 -0.9350  1.1108  1.6063
  169SAPE  H18S19123   1.109   3.351   7.985  0.4882 -1.0834 -0.5082
  169SAPE  C21919124   0.930   3.337   8.099 -0.9455 -0.4181  0.3157
  169SAPE  H19R19125   0.987   3.284   8.178 -0.8818  1.7584  1.7644
  169SAPE  H19S19126   0.824   3.302   8.094 -0.9952 -0.0284 -2.4627
  169SAPE  C22019127   0.920   3.485   8.139  0.8800 -0.2199 -0.2651
  169SAPE  H20R19128   1.007   3.522   8.197 -0.1986 -0.0000  1.2374
  169SAPE  H20S19129   0.834   3.486   8.209  1.0823 -2.5268  0.0405
  169SAPE  H20T19130   0.879   3.548   8.056  0.8120  0.9153  0.6179
  169SAPE   C3319131   0.702   1.878   6.931 -0.2906  0.1273 -0.4516
  169SAPE   H3X19132   0.716   1.988   6.933  0.4021  0.0495 -0.8792
  169SAPE   H3Y19133   0.800   1.826   6.926 -1.1037 -1.3058 -1.9647
  169SAPE   C3419134   0.656   1.847   7.074 -0.2772 -0.2069 -0.9116
  169SAPE   H4X19135   0.642   1.736   7.077  2.0423 -0.5253 -1.1228
  169SAPE   H4Y19136   0.560   1.895   7.102 -0.5047 -3.2240  4.2026
  169SAPE   C3519137   0.764   1.885   7.177  0.4727  0.7374  0.1112
  169SAPE   H5X19138   0.781   1.992   7.151 -0.9297  0.6476 -1.2626
  169SAPE   H5Y19139   0.854   1.822   7.164 -0.5294 -0.7551  0.3759
  169SAPE   C3619140   0.705   1.871   7.314 -0.1860  0.9567  0.2091
  169SAPE   H6X19141   0.682   1.763   7.329  1.6698  0.4119 -0.6685
  169SAPE   H6Y19142   0.609   1.925   7.327 -0.6600  0.1955 -0.0961
  169SAPE   C3719143   0.800   1.906   7.426 -0.3214 -0.2930 -0.1927
  169SAPE   H7X19144   0.820   2.015   7.424 -0.8086 -0.2075 -0.4542
  169SAPE   H7Y19145   0.887   1.839   7.410 -0.5117 -0.8904  1.2065
  169SAPE   C3819146   0.733   1.875   7.560 -0.3506  0.3992 -0.0033
  169SAPE   H8X19147   0.718   1.766   7.576 -0.5299  0.7174  2.0022
  169SAPE   H8Y19148   0.631   1.920   7.559 -1.0147 -1.0739  0.8341
  169SAPE   C3919149   0.806   1.921   7.682  0.7907 -0.3781  0.0719
  169SAPE   H9X19150   0.813   2.032   7.688 -0.9443 -0.3186  1.4798
  169SAPE   H9Y19151   0.912   1.893   7.665  0.6508 -0.7873 -0.1249
  169SAPE  C31019152   0.742   1.868   7.815 -0.1247  0.3691 -0.2132
  169SAPE  H10X19153   0.702   1.764   7.806 -0.7550  0.7956 -2.9964
  169SAPE  H10Y19154   0.663   1.939   7.847  0.9218  1.1635  0.6124
  169SAPE  C31119155   0.850   1.853   7.920  0.0478  0.2129 -0.5795
  169SAPE  H11X19156   0.923   1.778   7.885 -2.1492 -2.9247  1.3382
  169SAPE  H11Y19157   0.796   1.810   8.007  2.7675 -0.5721  0.7842
  169SAPE  C31219158   0.902   1.989   7.965 -0.6325  0.0915  0.2323
  169SAPE  H12X19159   0.832   2.071   7.938  2.9981  2.4675 -2.5684
  169SAPE  H12Y19160   0.993   2.009   7.905 -0.6383  0.9672  0.5156
  169SAPE  C31319161   0.946   1.992   8.113  0.0232 -0.1200 -0.0559
  169SAPE  H13X19162   1.020   1.909   8.116 -1.5859 -1.5642 -0.1480
  169SAPE  H13Y19163   0.859   1.953   8.170 -0.2597 -0.2699 -0.5899
  169SAPE  C31419164   1.009   2.120   8.155  0.1258  0.3678  0.0595
  169SAPE  H14X19165   0.928   2.194   8.166 -1.4996 -1.1254 -1.6042
  169SAPE  H14Y19166   1.082   2.150   8.077 -0.4603 -0.8101 -0.9539
  169SAPE  C31519167   1.073   2.108   8.294 -0.5780  0.0351  0.0728
  169SAPE  H15X19168   1.128   2.200   8.323  0.6286 -0.1527 -1.5500
  169SAPE  H15Y19169   1.148   2.026   8.288 -1.0620 -0.4439  0.5100
  169SAPE  C31619170   0.981   2.063   8.413 -0.0168 -0.2180  0.0287
  169SAPE  H16X19171   1.030   2.022   8.504 -1.6703 -1.2811  0.4728
  169SAPE  H16Y19172   0.912   1.986   8.372 -0.2749  1.1372 -2.1856
  169SAPE  C31719173   0.890   2.173   8.462 -0.7051 -0.3103  0.2355
  169SAPE  H17X19174   0.843   2.231   8.380  0.7159  0.5980  0.0445
  169SAPE  H17Y19175   0.955   2.246   8.515 -1.4134  0.3163  0.2400
  169SAPE  C31819176   0.780   2.123   8.558  0.2021 -0.0855  0.7685
  169SAPE  H18X19177   0.725   2.209   8.600 -0.5364 -0.7976  1.2867
  169SAPE  H18Y19178   0.830   2.073   8.644 -0.5327 -1.2460  0.5298
  169SAPE  H18Z19179   0.715   2.048   8.507  0.2770 -0.0285  0.5884
  170SAPE     N19180   1.823   0.031   6.041 -0.5841 -0.1214  0.0008
  170SAPE   HN119181   1.791   0.130   6.049  0.3546  0.0609  1.6518
  170SAPE   HN219182   1.926   0.027   6.048 -0.6934 -2.3161  0.5054
  170SAPE   HN319183   1.791  -0.007   5.950 -1.2519  0.1713  0.1053
  170SAPE   C1219184   1.769  -0.075   6.136  0.0858  0.4476 -0.0656
  170SAPE  H12A19185   1.710  -0.155   6.086  0.2784  1.0152 -1.2178
  170SAPE  H12B19186   1.694  -0.032   6.205  2.2141  0.3978  2.3380
  170SAPE   C1119187   1.881  -0.156   6.204  0.2166 -0.3166  0.2985
  170SAPE  H11A19188   1.842  -0.220   6.286  0.5921 -2.0648 -0.8412
  170SAPE  H11B19189   1.945  -0.086   6.260  0.8483 -1.7259  1.3506
  170SAPE     P19190   2.088  -0.197   6.051 -0.3876 -0.2551  0.1921
  170SAPE   O1319191   2.098  -0.281   5.924  0.0177 -0.1059  0.0482
  170SAPE   O1419192   2.098  -0.051   6.033  0.6283  0.2411 -0.5412
  170SAPE   O1219193   1.953  -0.243   6.112 -0.3687  0.4322 -1.0434
  170SAPE   O1119194   2.199  -0.242   6.154 -0.7226 -0.1095  0.3321
  170SAPE    C119195   2.195  -0.385   6.196 -0.8303 -0.2935 -0.3621
  170SAPE    HA19196   2.112  -0.451   6.162 -0.7589 -0.9599  0.7184
  170SAPE    HB19197   2.293  -0.434   6.178 -0.6183 -0.0846  0.2041
  170SAPE    C219198   2.181  -0.378   6.354 -0.0764  0.1855  0.1793
  170SAPE    HS19199   2.071  -0.368   6.369 -0.4063 -0.6334 -1.5964
  170SAPE   O2119200   2.252  -0.263   6.407  0.1073 -0.0241 -0.1312
  170SAPE   C2119201   2.195  -0.192   6.501  0.0678  0.2912 -0.7229
  170SAPE   O2219202   2.078  -0.210   6.545  0.4355 -0.2956 -0.1765
  170SAPE   C2219203   2.287  -0.084   6.547 -0.3484  0.2473 -0.4319
  170SAPE   H2R19204   2.393  -0.118   6.549 -0.0361  1.2551  1.3128
  170SAPE   H2S19205   2.273  -0.005   6.470  0.0791  2.9827  2.2281
  170SAPE    C319206   2.229  -0.508   6.426 -0.5833 -0.1384 -0.5713
  170SAPE    HX19207   2.338  -0.520   6.406 -0.0527  0.7453  1.6584
  170SAPE    HY19208   2.175  -0.590   6.374 -1.4165 -0.6813  1.1171
  170SAPE   O3119209   2.208  -0.496   6.568 -0.5274 -0.4070 -0.8351
  170SAPE   C3119210   2.088  -0.527   6.620 -0.9990 -0.3933 -0.0200
  170SAPE   O3219211   1.986  -0.546   6.558 -0.1546 -0.5641  0.2546
  170SAPE   C3219212   2.103  -0.549   6.765  0.6591  0.4140 -0.1608
  170SAPE   H2X19213   2.138  -0.454   6.811 -1.5963  0.9010  0.6067
  170SAPE   H2Y19214   2.176  -0.630   6.786  0.4876  0.4355  0.5269
  170SAPE   C2319215   2.241  -0.006   6.673  0.3862 -0.0973 -0.6111
  170SAPE   H3R19216   2.133   0.019   6.667  0.6186  1.5746  1.6130
  170SAPE   H3S19217   2.295   0.091   6.677  3.9440 -2.0541  0.9384
  170SAPE   C2419218   2.287  -0.083   6.802  0.3531 -0.1009 -0.5228
  170SAPE   H4R19219   2.246  -0.185   6.789  2.0395 -0.8836  0.1916
  170SAPE   H4S19220   2.236  -0.036   6.889  2.3003  1.6310 -0.3041
  170SAPE   C2519221   2.439  -0.074   6.822 -0.3727  0.4986  0.7630
  170SAPE   H5R19222   2.497  -0.103   6.733 -0.5141  0.6864  0.6109
  170SAPE   C2619223   2.495  -0.043   6.938  0.0931 -0.2748 -0.0301
  170SAPE   H6R19224   2.605  -0.040   6.941  0.1528  0.3824 -1.9909
  170SAPE   C2719225   2.414  -0.005   7.062 -0.2252 -0.3759 -0.9243
  170SAPE   H7R19226   2.470  -0.014   7.158 -2.8501  3.3004  1.0640
  170SAPE   H7S19227   2.328  -0.072   7.082  1.9466 -2.7238  1.0259
  170SAPE   C2819228   2.374   0.140   7.066  0.2977 -0.0322 -0.6013
  170SAPE   H8R19229   2.414   0.203   6.985  0.8940  0.8940  0.4088
  170SAPE   C2919230   2.276   0.186   7.154  0.3087  0.3415 -0.4384
  170SAPE   H9R19231   2.243   0.291   7.143 -0.3188  0.2094  0.1947
  170SAPE  C21019232   2.206   0.103   7.259 -0.3162  0.0925 -0.1660
  170SAPE  H10R19233   2.196   0.004   7.209 -2.0869 -0.6999  1.6986
  170SAPE  H10S19234   2.098   0.130   7.265 -0.1830  0.4844  0.5251
  170SAPE  C21119235   2.275   0.109   7.396 -0.2747  0.0366  0.4909
  170SAPE  H11R19236   2.382   0.087   7.392 -0.5217 -1.1701  0.3162
  170SAPE  C21219237   2.227   0.137   7.513 -0.3333  0.5845  0.1358
  170SAPE  H12R19238   2.296   0.131   7.598 -2.0251  0.5456  1.5381
  170SAPE  C21319239   2.084   0.169   7.548  0.3098 -0.0359  0.2749
  170SAPE  H13R19240   2.046   0.112   7.636  2.2570  0.0781  1.2077
  170SAPE  H13S19241   2.016   0.146   7.463  0.1490  1.4216 -0.0048
  170SAPE  C21419242   2.064   0.317   7.572 -0.3540  0.0765  0.6998
  170SAPE  H14R19243   2.078   0.372   7.477  2.8943 -0.2019  0.9607
  170SAPE  C21519244   2.045   0.382   7.692 -0.2480 -0.2849 -0.2929
  170SAPE  H15R19245   2.040   0.492   7.698  0.4198 -0.1658 -1.7233
  170SAPE  C21619246   2.026   0.310   7.823 -0.1017  0.5178 -0.3377
  170SAPE  H16R19247   2.097   0.224   7.834 -1.6047 -0.5566  1.1233
  170SAPE  H16S19248   1.932   0.254   7.806  1.5232 -2.9444  1.5041
  170SAPE  C21719249   2.005   0.401   7.946 -0.8299 -0.2371  0.1795
  170SAPE  H17R19250   1.917   0.465   7.921 -0.2457 -0.3831 -2.3590
  170SAPE  H17S19251   2.090   0.469   7.964 -0.5523  0.1932 -2.5003
  170SAPE  C21819252   1.976   0.316   8.073  0.4450 -0.6915 -0.0246
  170SAPE  H18R19253   2.056   0.240   8.089  0.5122 -0.1417  2.6148
  170SAPE  H18S19254   1.874   0.273   8.062 -0.1565  1.2571 -2.3420
  170SAPE  C21919255   1.957   0.402   8.201  0.5590  0.2757  0.4355
  170SAPE  H19R19256   1.875   0.471   8.172 -1.3414 -1.4358  1.5792
  170SAPE  H19S19257   2.049   0.461   8.221  0.8518 -0.0848  0.1758
  170SAPE  C22019258   1.945   0.326   8.327  0.3844 -0.0783 -0.3248
  170SAPE  H20R19259   2.036   0.263   8.342  1.0991  1.1428  0.5752
  170SAPE  H20S19260   1.848   0.271   8.329  1.2460 -1.6009  2.6726
  170SAPE  H20T19261   1.939   0.404   8.405  0.7849 -1.6860  1.3574
  170SAPE   C3319262   1.973  -0.593   6.837  0.5320 -0.6447 -0.1651
  170SAPE   H3X19263   1.935  -0.685   6.787 -1.0690 -0.4824  0.7425
  170SAPE   H3Y19264   1.898  -0.511   6.828 -1.3625 -2.2824  0.5123
  170SAPE   C3419265   1.997  -0.611   6.984  0.0686 -0.2256  0.3635
  170SAPE   H4X19266   2.026  -0.510   7.022 -1.4160  0.0593  0.7747
  170SAPE   H4Y19267   2.066  -0.693   7.014 -0.5944 -1.0466 -0.3411
  170SAPE   C3519268   1.864  -0.646   7.058 -0.3189  0.8839  0.1795
  170SAPE   H5X19269   1.849  -0.755   7.076 -0.9229  1.1576  1.3741
  170SAPE   H5Y19270   1.792  -0.589   6.996  0.8256  2.0319 -0.1212
  170SAPE   C3619271   1.864  -0.593   7.201  0.1064  0.5668  0.2008
  170SAPE   H6X19272   1.763  -0.570   7.240  0.5642 -1.8179  2.9855
  170SAPE   H6Y19273   1.936  -0.509   7.208  1.6191 -0.5064 -1.7846
  170SAPE   C3719274   1.922  -0.706   7.292  0.9695 -0.0008 -0.6363
  170SAPE   H7X19275   2.018  -0.733   7.241  1.3332 -3.9812  1.9340
  170SAPE   H7Y19276   1.855  -0.794   7.282  1.1708 -0.1135 -1.0302
  170SAPE   C3819277   1.936  -0.664   7.437  0.3129 -0.1880 -0.2483
  170SAPE   H8X19278   1.960  -0.556   7.439  1.0251 -0.3490  0.0411
  170SAPE   H8Y19279   2.021  -0.722   7.479 -2.1501 -3.4662  0.4186
  170SAPE   C3919280   1.804  -0.679   7.517 -0.2412  0.7459  0.3705
  170SAPE   H9X19281   1.769  -0.784   7.512  0.4448  0.5215  0.3646
  170SAPE   H9Y19282   1.724  -0.616   7.473  0.4736  1.2408 -0.2239
  170SAPE  C31019283   1.813  -0.639   7.668  0.3368 -0.9626 -0.1266
  170SAPE  H10X19284   1.861  -0.538   7.674 -0.5173 -0.5537 -0.1288
  170SAPE  H10Y19285   1.886  -0.712   7.709 -1.7586 -2.8057  0.3942
  170SAPE  C31119286   1.686  -0.659   7.757 -0.2966 -0.2291  0.5895
  170SAPE  H11X19287   1.635  -0.753   7.727  0.3531 -0.9287  1.6516
  170SAPE  H11Y19288   1.620  -0.577   7.721  0.5225  1.5046  2.9277
  170SAPE  C31219289   1.711  -0.623   7.901 -0.0565 -0.1250 -0.4051
  170SAPE  H12X19290   1.774  -0.533   7.912  1.7536 -1.5559  1.5138
  170SAPE  H12Y19291   1.774  -0.708   7.937 -1.2251 -0.3230  1.2286
  170SAPE  C31319292   1.583  -0.603   7.975  0.0806  0.2338  0.0443
  170SAPE  H13X19293   1.517  -0.688   7.946 -0.8290  0.5777  1.0702
  170SAPE  H13Y19294   1.537  -0.508   7.941 -0.9349  0.1214  1.0814
  170SAPE  C31419295   1.600  -0.592   8.131 -0.4104 -0.2423  0.5195
  170SAPE  H14X19296   1.650  -0.495   8.151  0.0847 -0.9186  2.7294
  170SAPE  H14Y19297   1.670  -0.671   8.167 -0.2106 -1.3260 -2.1381
  170SAPE  C31519298   1.463  -0.593   8.207 -0.6034 -0.3006 -0.2039
  170SAPE  H15X19299   1.397  -0.668   8.158  1.7417 -1.8334 -1.1483
  170SAPE  H15Y19300   1.418  -0.493   8.191 -0.3530  0.4447  3.3568
  170SAPE  C31619301   1.488  -0.631   8.353  0.4641  0.4398  0.1260
  170SAPE  H16X19302   1.415  -0.594   8.428 -0.9976 -1.6332 -0.2434
  170SAPE  H16Y19303   1.585  -0.582   8.377  0.2725  0.5897  0.6008
  170SAPE  C31719304   1.493  -0.784   8.368 -0.0359  0.3088  0.0915
  170SAPE  H17X19305   1.540  -0.806   8.466 -1.4472  0.8987  0.9006
  170SAPE  H17Y19306   1.564  -0.829   8.295 -0.3370  0.1310 -0.0948
  170SAPE  C31819307   1.358  -0.855   8.335 -0.0382  0.0455 -0.5225
  170SAPE  H18X19308   1.319  -0.846   8.231  0.3410  0.5283 -0.6218
  170SAPE  H18Y19309   1.279  -0.812   8.400 -0.7482 -2.4339  0.2939
  170SAPE  H18Z19310   1.358  -0.963   8.358  0.1175  0.2397  0.4050
  171SAPE     N19311   3.677   0.490   6.013  0.7787 -1.2265 -0.0810
  171SAPE   HN119312   3.656   0.515   5.915  2.4244 -2.2870 -0.7302
  171SAPE   HN219313   3.584   0.494   6.059 -0.7946 -1.8112 -3.1053
  171SAPE   HN319314   3.747   0.555   6.054 -2.1444  0.6659  2.0532
  171SAPE   C1219315   3.718   0.349   6.037 -0.2934 -0.0584  0.6519
  171SAPE  H12A19316   3.737   0.347   6.146 -1.8727  0.3261  0.9420
  171SAPE  H12B19317   3.817   0.323   5.993 -0.7905 -0.3813 -0.2794
  171SAPE   C1119318   3.617   0.240   5.990 -0.5196  0.0149 -0.1162
  171SAPE  H11A19319   3.676   0.155   5.950 -1.0687 -0.7444  0.6616
  171SAPE  H11B19320   3.560   0.272   5.900 -1.1214 -0.4403  0.1004
  171SAPE     P19321   3.534   0.119   6.219  0.2708  0.3570 -0.6079
  171SAPE   O1319322   3.521   0.204   6.336 -0.0313 -0.5183 -0.4675
  171SAPE   O1419323   3.439   0.004   6.204  0.0679 -0.0786  0.2971
  171SAPE   O1219324   3.512   0.217   6.090 -0.0880 -0.7241 -0.4473
  171SAPE   O1119325   3.684   0.067   6.205  0.0248 -0.8191  0.2805
  171SAPE    C119326   3.740  -0.027   6.297 -0.5123 -0.3547  0.3709
  171SAPE    HA19327   3.673  -0.116   6.306 -1.5576  0.0521 -2.8768
  171SAPE    HB19328   3.833  -0.067   6.253 -1.3645 -1.9381 -0.0466
  171SAPE    C219329   3.772   0.026   6.436 -0.6202 -0.3604 -0.0676
  171SAPE    HS19330   3.670   0.051   6.472 -1.7809 -1.5819 -2.3877
  171SAPE   O2119331   3.853   0.147   6.426 -0.5015  0.1270  0.0846
  171SAPE   C2119332   3.850   0.242   6.520  0.1734  0.1152 -0.3471
  171SAPE   O2219333   3.777   0.240   6.616 -0.4114 -0.6588  0.3760
  171SAPE   C2219334   3.960   0.343   6.485  0.4803  0.4787 -0.3218
  171SAPE   H2R19335   3.954   0.387   6.384  0.2468 -0.8775 -0.9108
  171SAPE   H2S19336   3.928   0.422   6.557 -0.2557  0.6277 -0.8084
  171SAPE    C319337   3.832  -0.082   6.538  0.9653 -1.0198 -0.1962
  171SAPE    HX19338   3.921  -0.122   6.484  2.4985 -0.3705  1.7710
  171SAPE    HY19339   3.770  -0.174   6.546 -0.6794 -0.0003 -0.9923
  171SAPE   O3119340   3.875  -0.034   6.668 -0.3377 -0.1455 -0.0685
  171SAPE   C3119341   3.783  -0.043   6.758  0.9933  0.5186 -0.3766
  171SAPE   O3219342   3.672  -0.094   6.740 -0.6657 -0.3345 -0.1044
  171SAPE   C3219343   3.831   0.011   6.897  0.3918 -0.7310  0.1830
  171SAPE   H2X19344   3.882   0.109   6.886  0.9907 -1.1613 -0.8935
  171SAPE   H2Y19345   3.906  -0.057   6.944  0.7337  0.4514  1.3948
  171SAPE   C2319346   4.105   0.291   6.517 -0.0336 -0.8605  0.4860
  171SAPE   H3R19347   4.169   0.378   6.492 -0.5722 -0.7709 -0.6085
  171SAPE   H3S19348   4.139   0.203   6.458 -0.2179 -0.8008  0.2905
  171SAPE   C2419349   4.110   0.250   6.661  0.4846 -0.2962  0.6475
  171SAPE   H4R19350   4.066   0.148   6.673  1.4033 -0.6276  1.2083
  171SAPE   H4S19351   4.043   0.313   6.724  1.7155  1.8566 -0.1671
  171SAPE   C2519352   4.255   0.245   6.714 -0.2529  0.5478  0.6684
  171SAPE   H5R19353   4.331   0.200   6.649 -2.4941 -3.2124  0.5021
  171SAPE   C2619354   4.286   0.280   6.840 -0.1913 -0.4778 -0.4549
  171SAPE   H6R19355   4.391   0.276   6.872 -0.0515 -1.9289 -1.0579
  171SAPE   C2719356   4.188   0.319   6.948  0.8102  0.5761 -1.0136
  171SAPE   H7R19357   4.083   0.341   6.919  0.6740  1.0733 -0.1427
  171SAPE   H7S19358   4.222   0.410   7.001 -1.4975 -1.2479  3.8732
  171SAPE   C2819359   4.165   0.202   7.042 -0.3491 -0.6555 -0.6173
  171SAPE   H8R19360   4.139   0.108   6.992  0.2619 -1.3133  0.2760
  171SAPE   C2919361   4.162   0.206   7.180  0.1138  0.3472 -0.2648
  171SAPE   H9R19362   4.151   0.111   7.234  0.4690  0.5091  0.0982
  171SAPE  C21019363   4.195   0.324   7.272  0.0166  0.0334  0.1591
  171SAPE  H10R19364   4.105   0.349   7.332 -0.9997 -1.4398 -0.7043
  171SAPE  H10S19365   4.220   0.418   7.219  2.6345 -0.8569 -0.2280
  171SAPE  C21119366   4.320   0.285   7.354 -0.7586 -0.1092  0.3780
  171SAPE  H11R19367   4.414   0.271   7.298 -0.3933 -1.6229  1.3109
  171SAPE  C21219368   4.316   0.269   7.490 -0.0850 -0.5903  0.1965
  171SAPE  H12R19369   4.408   0.239   7.541 -0.2371  0.5061  1.1185
  171SAPE  C21319370   4.201   0.282   7.588  0.2878 -0.0938 -0.3762
  171SAPE  H13R19371   4.156   0.383   7.577 -2.0205 -0.7326  2.5084
  171SAPE  H13S19372   4.245   0.284   7.690  1.8436  1.0333 -1.0458
  171SAPE  C21419373   4.107   0.167   7.587  0.0788 -0.0485 -0.0948
  171SAPE  H14R19374   4.153   0.071   7.559 -1.0264 -0.1045 -1.7452
  171SAPE  C21519375   3.976   0.168   7.608 -0.5248  0.4666  0.1778
  171SAPE  H15R19376   3.924   0.071   7.603  1.9563 -0.8478 -0.9025
  171SAPE  C21619377   3.897   0.293   7.650 -0.7880 -0.2440 -0.1389
  171SAPE  H16R19378   3.796   0.256   7.675 -0.1084 -1.1651  1.2634
  171SAPE  H16S19379   3.887   0.369   7.569  1.4239  0.2735  0.0390
  171SAPE  C21719380   3.955   0.376   7.770 -0.4763  1.0733  0.1426
  171SAPE  H17R19381   4.041   0.441   7.743 -0.6742  1.5361  0.6084
  171SAPE  H17S19382   3.999   0.299   7.836 -0.6344 -0.3910 -1.4379
  171SAPE  C21819383   3.846   0.450   7.853 -0.2501  0.0863 -0.8888
  171SAPE  H18R19384   3.896   0.489   7.944  0.6309 -0.8448 -0.9634
  171SAPE  H18S19385   3.759   0.392   7.889 -0.1805  0.5438  0.0378
  171SAPE  C21919386   3.782   0.576   7.791  0.2001  0.0989 -0.2704
  171SAPE  H19R19387   3.691   0.606   7.847 -0.7167 -2.1215 -0.5150
  171SAPE  H19S19388   3.748   0.559   7.687  3.5092  0.5967 -1.4849
  171SAPE  C22019389   3.873   0.692   7.817 -0.6963 -0.2407  0.0705
  171SAPE  H20R19390   3.968   0.672   7.763 -0.0976  2.3249  0.1410
  171SAPE  H20S19391   3.896   0.704   7.925 -1.4332  2.2508 -0.0172
  171SAPE  H20T19392   3.823   0.782   7.777  0.8480  0.2471 -0.8364
  171SAPE   C3319393   3.711   0.022   6.993 -0.6759 -0.7927 -0.5054
  171SAPE   H3X19394   3.650  -0.071   6.998 -3.1895  0.5654 -3.8205
  171SAPE   H3Y19395   3.640   0.099   6.955 -2.4398 -1.4783  1.2896
  171SAPE   C3419396   3.754   0.068   7.132  0.5375  0.1442 -0.4343
  171SAPE   H4X19397   3.803   0.168   7.123 -1.4716  1.2863  0.8813
  171SAPE   H4Y19398   3.825  -0.002   7.180 -0.4776  0.4572  1.5748
  171SAPE   C3519399   3.635   0.084   7.233 -0.1554  0.5968  0.5439
  171SAPE   H5X19400   3.605  -0.022   7.247  0.7559  0.5150  1.9569
  171SAPE   H5Y19401   3.552   0.136   7.181  0.2888  1.0861  0.3254
  171SAPE   C3619402   3.651   0.148   7.360  0.3898  0.0159 -0.2834
  171SAPE   H6X19403   3.697   0.249   7.351  2.6805 -0.7857  1.8559
  171SAPE   H6Y19404   3.722   0.099   7.429  1.4795 -1.5931 -2.4736
  171SAPE   C3719405   3.520   0.137   7.437  0.1007  0.0826  0.0962
  171SAPE   H7X19406   3.508   0.027   7.446 -1.2179  0.3170  1.4636
  171SAPE   H7Y19407   3.447   0.174   7.363  0.1245 -2.2970 -1.1700
  171SAPE   C3819408   3.516   0.201   7.574  0.1530 -0.0810 -0.4798
  171SAPE   H8X19409   3.565   0.300   7.575 -0.5903  0.2855  1.3156
  171SAPE   H8Y19410   3.549   0.138   7.659 -1.9724  1.7583  1.7602
  171SAPE   C3919411   3.369   0.249   7.613  0.3035  0.3065  0.0341
  171SAPE   H9X19412   3.307   0.157   7.617 -1.8187  1.7306  0.5865
  171SAPE   H9Y19413   3.330   0.319   7.535  0.5902  0.6832  0.2237
  171SAPE  C31019414   3.348   0.323   7.749 -0.0372  0.5239  0.2557
  171SAPE  H10X19415   3.394   0.255   7.823  0.3182  0.2762 -0.1911
  171SAPE  H10Y19416   3.239   0.331   7.768  0.4102 -1.6515  4.3517
  171SAPE  C31119417   3.408   0.467   7.754 -0.2109 -0.2996  0.6773
  171SAPE  H11X19418   3.352   0.517   7.673  1.1472  1.1274  0.5894
  171SAPE  H11Y19419   3.518   0.478   7.745 -0.1639 -1.7181 -0.5038
  171SAPE  C31219420   3.368   0.519   7.894  0.1824 -0.9549  0.1679
  171SAPE  H12X19421   3.261   0.492   7.908 -0.9335  2.7614 -0.7050
  171SAPE  H12Y19422   3.376   0.630   7.889  0.7180 -0.9444  1.1896
  171SAPE  C31319423   3.458   0.479   8.009 -0.6402 -0.1716 -0.1141
  171SAPE  H13X19424   3.560   0.454   7.974 -0.6231  1.6491 -1.4162
  171SAPE  H13Y19425   3.421   0.381   8.048 -0.0364  0.3862  1.9429
  171SAPE  C31419426   3.469   0.573   8.129  0.4196  0.2068 -0.5549
  171SAPE  H14X19427   3.363   0.587   8.156  0.7983  1.2956  0.4038
  171SAPE  H14Y19428   3.506   0.674   8.098  0.3403  0.3113 -0.3084
  171SAPE  C31519429   3.540   0.517   8.249 -0.2822  0.3007 -0.2892
  171SAPE  H15X19430   3.502   0.417   8.281  1.2998  0.1695  1.2644
  171SAPE  H15Y19431   3.518   0.590   8.330 -3.8601 -2.0197  0.9709
  171SAPE  C31619432   3.689   0.493   8.234  0.1322  0.5657 -0.8982
  171SAPE  H16X19433   3.731   0.595   8.225  3.0935 -0.4536  0.5468
  171SAPE  H16Y19434   3.693   0.423   8.147 -4.5398  0.2471 -0.9879
  171SAPE  C31719435   3.760   0.425   8.355  0.1590 -0.0616  0.0155
  171SAPE  H17X19436   3.724   0.320   8.358  1.2234 -0.4433 -0.4002
  171SAPE  H17Y19437   3.721   0.471   8.448 -2.8823 -0.0451 -1.1987
  171SAPE  C31819438   3.915   0.436   8.351  0.2381 -0.1546 -0.3078
  171SAPE  H18X19439   3.950   0.385   8.258  0.3870  2.5843 -1.8111
  171SAPE  H18Y19440   3.966   0.398   8.442  1.5968  0.4276 -0.8148
  171SAPE  H18Z19441   3.948   0.542   8.344 -1.0226  0.2222 -0.6962
  172SAPE     N19442   2.398   5.565   6.259  0.1186  0.3049 -0.1472
  172SAPE   HN119443   2.464   5.532   6.332 -1.0521 -1.6358  0.0764
  172SAPE   HN219444   2.336   5.643   6.292 -1.9074 -2.1983  2.2630
  172SAPE   HN319445   2.318   5.500   6.243 -0.7270  0.4851  2.9968
  172SAPE   C1219446   2.487   5.575   6.138  0.0343 -0.0844 -0.1010
  172SAPE  H12A19447   2.420   5.593   6.052  1.1486  1.2318 -0.7172
  172SAPE  H12B19448   2.542   5.479   6.130 -0.4982 -0.4979  1.0608
  172SAPE   C1119449   2.582   5.699   6.138  0.2213 -0.8705 -0.2166
  172SAPE  H11A19450   2.524   5.791   6.115  1.1398 -0.1799  0.1711
  172SAPE  H11B19451   2.658   5.679   6.059 -1.6977 -0.4312 -2.2076
  172SAPE     P19452   2.785   5.778   6.285  0.3760 -0.1667  0.3206
  172SAPE   O1319453   2.904   5.692   6.259  0.6384 -0.2988  0.2202
  172SAPE   O1419454   2.776   5.910   6.219  0.0292  0.6117  0.0402
  172SAPE   O1219455   2.646   5.704   6.267 -0.2316  0.1099 -0.6957
  172SAPE   O1119456   2.784   5.799   6.440  1.0122  0.1633 -0.7366
  172SAPE    C119457   2.730   5.913   6.511  0.2335 -0.5492 -0.5314
  172SAPE    HA19458   2.813   5.965   6.562 -1.9614  2.7954 -0.2272
  172SAPE    HB19459   2.695   5.991   6.441 -2.9686 -1.4098  0.0072
  172SAPE    C219460   2.634   5.887   6.622  0.3646 -0.2902 -0.1083
  172SAPE    HS19461   2.632   5.967   6.699 -0.8644  0.7145 -1.1658
  172SAPE   O2119462   2.668   5.764   6.681 -0.4795 -0.0722 -0.4673
  172SAPE   C2119463   2.767   5.748   6.770 -0.4253 -0.7775 -0.0992
  172SAPE   O2219464   2.831   5.840   6.813 -0.2645 -0.6799 -0.1169
  172SAPE   C2219465   2.793   5.595   6.795 -0.8257  0.3004  0.3879
  172SAPE   H2R19466   2.699   5.535   6.797  0.7442 -2.2144  3.1670
  172SAPE   H2S19467   2.851   5.568   6.704 -1.1330 -1.6406  0.7386
  172SAPE    C319468   2.493   5.875   6.561 -0.8638  0.4104 -0.2387
  172SAPE    HX19469   2.493   5.830   6.459  1.9956  0.5667 -0.3554
  172SAPE    HY19470   2.460   5.980   6.544 -0.5172  0.0804 -3.2410
  172SAPE   O3119471   2.401   5.800   6.645  0.8869 -0.2117 -0.0607
  172SAPE   C3119472   2.283   5.859   6.677 -0.0002 -0.2767 -0.3588
  172SAPE   O3219473   2.240   5.962   6.637 -0.1322  0.2488  0.5159
  172SAPE   C3219474   2.219   5.768   6.776  0.0375  0.3973 -0.5936
  172SAPE   H2X19475   2.208   5.663   6.743  0.6615  0.4171 -0.8846
  172SAPE   H2Y19476   2.113   5.794   6.798 -1.0422 -2.9103 -1.6559
  172SAPE   C2319477   2.873   5.547   6.918 -0.5652 -0.3094  0.6693
  172SAPE   H3R19478   2.968   5.604   6.913 -0.8625  0.0619 -1.3128
  172SAPE   H3S19479   2.898   5.442   6.894  3.5487  0.2055  2.2173
  172SAPE   C2419480   2.787   5.562   7.047 -0.1214  0.0552 -0.8619
  172SAPE   H4R19481   2.687   5.516   7.031 -0.5523  0.8037 -0.3469
  172SAPE   H4S19482   2.772   5.670   7.066  1.0548  0.0903 -0.0507
  172SAPE   C2519483   2.863   5.500   7.160 -0.8133  0.2169  0.1005
  172SAPE   H5R19484   2.885   5.394   7.143 -0.4263  0.2165  0.6079
  172SAPE   C2619485   2.897   5.551   7.279 -0.6781 -0.3346 -0.6222
  172SAPE   H6R19486   2.943   5.482   7.352 -2.8242  0.1136  1.1752
  172SAPE   C2719487   2.846   5.686   7.331  0.0220  0.1088  0.6862
  172SAPE   H7R19488   2.783   5.675   7.421  1.3745  1.7295  1.8657
  172SAPE   H7S19489   2.780   5.729   7.253  0.8284 -0.5701 -0.3917
  172SAPE   C2819490   2.964   5.779   7.366 -0.0648  0.0904 -0.1687
  172SAPE   H8R19491   3.033   5.792   7.282  1.4360  0.1809  1.0395
  172SAPE   C2919492   2.985   5.838   7.486 -0.4696  0.2985 -0.5825
  172SAPE   H9R19493   3.065   5.909   7.512 -0.5506 -0.3842  1.6647
  172SAPE  C21019494   2.908   5.815   7.612  0.0047 -0.2873 -0.3409
  172SAPE  H10R19495   2.978   5.842   7.694 -0.8445 -0.1528  0.3498
  172SAPE  H10S19496   2.886   5.706   7.618 -3.3140  0.4695  3.2430
  172SAPE  C21119497   2.780   5.895   7.623 -0.6270 -0.1062  0.7136
  172SAPE  H11R19498   2.714   5.896   7.535 -0.6756 -0.6967  0.7412
  172SAPE  C21219499   2.722   5.927   7.741  0.2344 -0.0699 -0.2358
  172SAPE  H12R19500   2.634   5.992   7.728  0.2803  0.1665  0.5833
  172SAPE  C21319501   2.779   5.912   7.884  0.1657 -0.1936 -0.0415
  172SAPE  H13R19502   2.890   5.921   7.891 -0.0433  1.8142  0.8055
  172SAPE  H13S19503   2.771   5.813   7.934 -0.7030 -0.1683 -0.1279
  172SAPE  C21419504   2.705   6.010   7.973 -0.2042 -0.2748  0.2643
  172SAPE  H14R19505   2.728   6.116   7.953 -0.5916 -0.4679 -1.2060
  172SAPE  C21519506   2.622   5.984   8.080 -0.6776  0.1186 -0.5182
  172SAPE  H15R19507   2.574   6.061   8.141 -1.8200  0.6722 -2.0712
  172SAPE  C21619508   2.586   5.845   8.127  0.3922 -0.0027  0.0803
  172SAPE  H16R19509   2.589   5.847   8.238  3.2743  0.9162  0.0322
  172SAPE  H16S19510   2.671   5.777   8.105  2.4155  2.5038 -0.1809
  172SAPE  C21719511   2.446   5.782   8.104 -0.8620  0.1857  0.4050
  172SAPE  H17R19512   2.376   5.808   8.187 -0.0478  0.5505  0.9925
  172SAPE  H17S19513   2.469   5.674   8.117  1.0953  0.7352  1.7781
  172SAPE  C21819514   2.368   5.808   7.973  0.2435 -0.4125 -0.1328
  172SAPE  H18R19515   2.429   5.762   7.892 -0.7803 -2.3363  0.1703
  172SAPE  H18S19516   2.342   5.914   7.951 -1.8382 -0.8600  0.0944
  172SAPE  C21919517   2.231   5.738   7.974  0.0786 -0.2969  0.0589
  172SAPE  H19R19518   2.176   5.766   8.067  0.9265  0.0181  0.4736
  172SAPE  H19S19519   2.259   5.631   7.980 -2.2287 -1.0127 -1.3329
  172SAPE  C22019520   2.141   5.782   7.851 -0.4029  0.2996 -0.0154
  172SAPE  H20R19521   2.134   5.891   7.830 -1.9641  0.3579  0.7464
  172SAPE  H20S19522   2.043   5.734   7.867  0.1364 -0.6810  0.3950
  172SAPE  H20T19523   2.184   5.739   7.758 -1.3441  1.4211 -0.9846
  172SAPE   C3319524   2.308   5.757   6.909 -0.2394  0.2203 -0.0638
  172SAPE   H3X19525   2.417   5.757   6.886  0.1614 -1.2336  1.6662
  172SAPE   H3Y19526   2.291   5.658   6.957 -0.7679 -0.8360 -2.3794
  172SAPE   C3419527   2.261   5.856   7.014 -0.2629  0.4401  0.1210
  172SAPE   H4X19528   2.174   5.819   7.072 -0.3534  0.8405  0.2445
  172SAPE   H4Y19529   2.233   5.949   6.960  0.6785  0.9411  0.4707
  172SAPE   C3519530   2.381   5.889   7.105  0.5086 -0.6590 -0.0633
  172SAPE   H5X19531   2.442   5.966   7.053  0.3528 -1.2764 -1.1892
  172SAPE   H5Y19532   2.438   5.795   7.124 -1.2041 -1.3760  1.7370
  172SAPE   C3619533   2.335   5.959   7.242  0.7444 -0.0131  0.6345
  172SAPE   H6X19534   2.250   5.909   7.292  0.7467 -0.4732  0.1832
  172SAPE   H6Y19535   2.293   6.057   7.211 -0.1539 -0.1105  1.5195
  172SAPE   C3719536   2.447   5.975   7.334  0.6258 -0.0897  0.1647
  172SAPE   H7X19537   2.493   6.075   7.320  0.3823 -0.1318 -0.9752
  172SAPE   H7Y19538   2.518   5.891   7.320  2.2001  1.2725 -0.1254
  172SAPE   C3819539   2.408   5.970   7.483 -0.5469 -0.1320 -0.1536
  172SAPE   H8X19540   2.504   5.939   7.530  0.6171 -0.4395 -2.6612
  172SAPE   H8Y19541   2.333   5.893   7.511 -1.1627  0.5770  0.1725
  172SAPE   C3919542   2.367   6.106   7.540 -0.5684  0.4738 -0.5615
  172SAPE   H9X19543   2.270   6.137   7.494 -1.1939 -0.1686  0.3247
  172SAPE   H9Y19544   2.445   6.182   7.515 -0.8123  0.7531 -0.4742
  172SAPE  C31019545   2.337   6.090   7.692  0.0149 -0.1253  0.1051
  172SAPE  H10X19546   2.421   6.138   7.748 -1.6155  1.4637  1.2679
  172SAPE  H10Y19547   2.323   5.986   7.728  0.1746  0.0344  0.6362
  172SAPE  C31119548   2.214   6.178   7.728 -0.0930 -0.3738 -0.1468
  172SAPE  H11X19549   2.124   6.138   7.676 -1.5998  2.1045  0.4492
  172SAPE  H11Y19550   2.247   6.278   7.693  0.4251 -1.3744 -2.6463
  172SAPE  C31219551   2.209   6.194   7.885 -0.0234  0.2960  0.5201
  172SAPE  H12X19552   2.307   6.235   7.917 -0.6422  1.0168  1.5032
  172SAPE  H12Y19553   2.194   6.094   7.931 -0.6383 -0.1679 -0.6652
  172SAPE  C31319554   2.102   6.289   7.920 -0.1317  0.3249  0.7422
  172SAPE  H13X19555   2.004   6.250   7.885 -0.5413  2.8772 -1.0751
  172SAPE  H13Y19556   2.130   6.378   7.861 -1.7394 -1.1555 -2.3621
  172SAPE  C31419557   2.095   6.309   8.068  0.3962 -0.0133  0.1526
  172SAPE  H14X19558   2.063   6.413   8.087  1.9414  1.1841 -3.3253
  172SAPE  H14Y19559   2.199   6.286   8.099  0.7808 -0.2401 -1.2370
  172SAPE  C31519560   1.992   6.222   8.142  0.0365 -0.0978  0.3670
  172SAPE  H15X19561   2.000   6.117   8.106 -0.6848  0.0551 -0.2654
  172SAPE  H15Y19562   1.890   6.244   8.104 -0.6036  0.2606  2.2560
  172SAPE  C31619563   1.967   6.239   8.290  0.5179  0.2239  0.3251
  172SAPE  H16X19564   2.062   6.244   8.348  1.2052 -2.0274 -0.5914
  172SAPE  H16Y19565   1.903   6.155   8.326 -0.5768  0.2750 -1.4846
  172SAPE  C31719566   1.892   6.371   8.336  0.0171  0.3289 -0.3564
  172SAPE  H17X19567   1.813   6.381   8.259 -1.1002 -3.8698  0.1297
  172SAPE  H17Y19568   1.968   6.453   8.330 -2.1397  2.1911 -3.2605
  172SAPE  C31819569   1.835   6.367   8.482  0.3315 -0.4437 -0.3046
  172SAPE  H18X19570   1.762   6.284   8.491  1.6019 -1.4137  1.4299
  172SAPE  H18Y19571   1.788   6.462   8.515 -0.0816 -0.3252 -1.2429
  172SAPE  H18Z19572   1.911   6.342   8.560 -0.3615  0.3244  0.6320
  173SOPE     N19573   3.644   3.435  10.907  0.0718 -0.1860  0.3068
  173SOPE   HN119574   3.595   3.518  10.866  0.5157 -0.6011 -1.0714
  173SOPE   HN219575   3.590   3.377  10.974 -0.3891 -0.3846 -0.2360
  173SOPE   HN319576   3.718   3.468  10.972 -1.9016  3.8041  0.7020
  173SOPE   C1219577   3.685   3.341  10.799  0.0040  0.0324 -0.4256
  173SOPE  H12A19578   3.743   3.398  10.723 -3.0471  0.7199 -2.3176
  173SOPE  H12B19579   3.593   3.298  10.754 -3.1392  1.9517  3.8625
  173SOPE   C1119580   3.772   3.227  10.852 -0.1593 -0.3248 -0.7018
  173SOPE  H11A19581   3.868   3.272  10.886 -0.8750 -0.7721  2.0091
  173SOPE  H11B19582   3.800   3.163  10.765  2.4414 -0.8370  0.4598
  173SOPE     P19583   3.609   3.032  10.924  0.1599  0.2909  0.0634
  173SOPE   O1319584   3.503   3.028  11.029  0.0661  0.0846  0.2358
  173SOPE   O1419585   3.686   2.910  10.903 -0.0084 -0.0050  0.1055
  173SOPE   O1219586   3.706   3.158  10.954  0.6209 -0.2443  0.5377
  173SOPE   O1119587   3.541   3.071  10.788  0.3604  0.1984 -0.4098
  173SOPE    C119588   3.454   2.989  10.712  0.5272 -0.0723  0.4205
  173SOPE    HA19589   3.364   3.047  10.683  1.6655  2.2548  1.3838
  173SOPE    HB19590   3.420   2.903  10.774 -1.0790  0.8162  0.7931
  173SOPE    C219591   3.495   2.932  10.577  0.2937 -0.0658 -0.1295
  173SOPE    HS19592   3.573   2.853  10.588 -0.2990 -0.1563  4.3774
  173SOPE   O2119593   3.551   3.034  10.491 -0.6188  0.6577 -0.3974
  173SOPE   C2119594   3.683   3.047  10.506  0.7424  0.9902 -0.7750
  173SOPE   O2219595   3.759   2.972  10.564 -0.3113 -0.4560 -0.1403
  173SOPE   C2219596   3.730   3.179  10.436 -0.3873  0.4902 -0.2904
  173SOPE   H2R19597   3.817   3.218  10.493 -2.1200 -0.2124  2.9921
  173SOPE   H2S19598   3.650   3.255  10.451  0.0023  0.3423  2.7529
  173SOPE    C319599   3.377   2.853  10.505  0.1527  0.7431 -0.9352
  173SOPE    HX19600   3.290   2.921  10.509  0.1201  0.5754  3.1180
  173SOPE    HY19601   3.333   2.777  10.572  1.1193  0.0363 -1.0724
  173SOPE   O3119602   3.409   2.807  10.376 -0.0088 -0.3347  0.1536
  173SOPE   C3119603   3.482   2.696  10.374  0.1493 -0.1210  0.1131
  173SOPE   O3219604   3.551   2.657  10.462  0.3832  0.1351 -0.1772
  173SOPE   C3219605   3.464   2.625  10.241  0.3424  0.6705 -0.9344
  173SOPE   H2X19606   3.371   2.565  10.244  1.3593 -1.0044 -2.0156
  173SOPE   H2Y19607   3.546   2.549  10.237 -2.0062 -1.8797 -2.2626
  173SOPE   C2319608   3.772   3.149  10.288 -0.1446 -0.6177  0.5151
  173SOPE   H3R19609   3.845   3.066  10.303  0.3386 -0.0156  1.5515
  173SOPE   H3S19610   3.825   3.241  10.256  1.0259 -1.6587 -0.6176
  173SOPE   C2419611   3.665   3.123  10.177  0.0035  0.1815 -0.1363
  173SOPE   H4R19612   3.595   3.038  10.189  0.0599  0.3344  1.3395
  173SOPE   H4S19613   3.601   3.211  10.152 -0.0256  0.5150  1.0954
  173SOPE   C2519614   3.744   3.092  10.044  0.9085  0.1941 -0.2831
  173SOPE   H5R19615   3.812   3.177  10.025  1.1195  0.3643  1.1501
  173SOPE   H5S19616   3.806   3.006  10.074  0.6764  0.7418  1.8760
  173SOPE   C2619617   3.664   3.050   9.922  0.3281 -0.7835 -0.9541
  173SOPE   H6R19618   3.573   3.000   9.961 -0.9271  2.1999  0.1152
  173SOPE   H6S19619   3.621   3.146   9.884  1.1454 -0.1947 -0.4136
  173SOPE   C2719620   3.734   2.966   9.821  0.5742  0.5576 -0.7236
  173SOPE   H7R19621   3.747   2.869   9.872 -0.9404  0.8568  0.2474
  173SOPE   H7S19622   3.665   2.949   9.736  0.6966 -2.0014 -0.3305
  173SOPE   C2819623   3.868   3.011   9.765  0.8011 -0.2276  0.2181
  173SOPE   H8R19624   3.927   3.035   9.856 -0.8940  0.7358  1.0868
  173SOPE   H8S19625   3.904   2.925   9.703 -1.8625 -0.9255 -0.4237
  173SOPE   C2919626   3.862   3.139   9.688 -0.1792  0.3595 -0.2185
  173SOPE   H9119627   3.779   3.200   9.727 -0.9025  1.1421 -2.9121
  173SOPE  C21019628   3.932   3.161   9.574  0.2558  0.0677 -0.0270
  173SOPE  H10119629   3.927   3.264   9.534  0.7625  0.5537  1.1489
  173SOPE  C21119630   4.026   3.071   9.503 -0.0701  0.2836 -0.7970
  173SOPE  H11R19631   4.048   2.976   9.555 -1.2000  0.8434  0.7516
  173SOPE  H11S19632   4.125   3.119   9.489 -0.2170  1.3656  1.6229
  173SOPE  C21219633   3.974   3.054   9.355 -0.1982  0.5773 -0.2425
  173SOPE  H12R19634   3.947   3.157   9.323  0.1781  0.8386  0.2602
  173SOPE  H12S19635   3.879   2.996   9.359 -0.1234  0.3770 -1.2115
  173SOPE  C21319636   4.067   2.986   9.245  0.2684  0.4967  0.0712
  173SOPE  H13R19637   4.093   2.884   9.280 -2.1009 -0.4251 -0.7778
  173SOPE  H13S19638   4.162   3.043   9.238  0.3233  0.0856 -3.1964
  173SOPE  C21419639   4.003   2.989   9.104 -0.2091 -0.5387  0.2229
  173SOPE  H14R19640   3.960   3.091   9.098  2.9615  0.7978 -0.4187
  173SOPE  H14S19641   3.917   2.919   9.091 -0.2900 -0.5114  0.5921
  173SOPE  C21519642   4.115   2.984   8.998  0.4475 -0.2283  0.5264
  173SOPE  H15R19643   4.178   2.893   9.003  1.4796  0.5618  3.1349
  173SOPE  H15S19644   4.188   3.065   9.019  0.6720 -0.1117 -0.6871
  173SOPE  C21619645   4.057   2.999   8.849  0.2472 -0.0773  0.3186
  173SOPE  H16R19646   4.012   3.100   8.856  1.7196  0.4659  2.4685
  173SOPE  H16S19647   3.979   2.922   8.830 -1.4649  1.7068 -0.0197
  173SOPE  C21719648   4.172   2.998   8.746  0.4642  0.4468  0.4260
  173SOPE  H17R19649   4.235   2.907   8.751  2.6915  1.9233 -0.2928
  173SOPE  H17S19650   4.235   3.079   8.787 -0.4509  0.8136  1.1365
  173SOPE  C21819651   4.134   3.016   8.603  0.3107 -0.1935 -0.2005
  173SOPE  H18R19652   4.059   2.935   8.586  0.8018 -0.2213 -2.4118
  173SOPE  H18S19653   4.218   3.011   8.530 -0.9736  1.5658 -1.8707
  173SOPE  H18T19654   4.072   3.108   8.595 -0.3887 -0.5333  1.2708
  173SOPE   C3319655   3.477   2.702  10.104  0.0921  0.2771 -0.3606
  173SOPE   H3X19656   3.586   2.707  10.086  0.6034 -1.0881  2.0373
  173SOPE   H3Y19657   3.430   2.802  10.112 -0.7647 -0.2390  1.4595
  173SOPE   C3419658   3.407   2.640   9.984 -0.7439  0.1547 -0.4831
  173SOPE   H4X19659   3.301   2.626  10.016 -0.4634  2.5245  1.6587
  173SOPE   H4Y19660   3.442   2.535   9.974  0.8424  0.6661 -0.2865
  173SOPE   C3519661   3.423   2.705   9.845 -0.2174 -0.1647 -1.0355
  173SOPE   H5X19662   3.531   2.721   9.823  0.8435 -2.5040  2.0799
  173SOPE   H5Y19663   3.371   2.803   9.841  0.3721  0.1945 -0.0162
  173SOPE   C3619664   3.369   2.618   9.732 -0.4111 -0.4882 -0.4700
  173SOPE   H6X19665   3.259   2.621   9.715 -0.3089 -1.5828 -1.3694
  173SOPE   H6Y19666   3.404   2.514   9.753  2.4952  0.0617 -2.3503
  173SOPE   C3719667   3.430   2.653   9.601 -0.0681 -0.0130  0.2870
  173SOPE   H7X19668   3.541   2.644   9.608 -0.3575 -1.4563  3.8605
  173SOPE   H7Y19669   3.397   2.753   9.566 -0.9047 -0.2532  0.3751
  173SOPE   C3819670   3.379   2.546   9.505  0.6929 -0.3923  0.0407
  173SOPE   H8X19671   3.295   2.484   9.543  0.0394  0.2675 -0.3203
  173SOPE   H8Y19672   3.463   2.474   9.498  0.4666 -0.5498 -1.1539
  173SOPE   C3919673   3.367   2.595   9.358  0.0251  0.2565 -0.1293
  173SOPE   H9X19674   3.466   2.634   9.326  0.9399 -1.0640  1.0457
  173SOPE   H9Y19675   3.292   2.675   9.339 -0.6078  0.2496  2.1855
  173SOPE  C31019676   3.324   2.476   9.276  0.3953  0.1720  0.2116
  173SOPE  H10X19677   3.229   2.436   9.317 -0.2411  2.9137  1.5435
  173SOPE  H10Y19678   3.402   2.398   9.287  0.8527  0.5283 -0.4758
  173SOPE  C31119679   3.331   2.501   9.125  0.0818 -0.3003 -0.3419
  173SOPE  H11X19680   3.437   2.529   9.103 -0.4227  0.8371 -1.3924
  173SOPE  H11Y19681   3.266   2.588   9.103 -1.0430 -1.3534 -1.1782
  173SOPE  C31219682   3.285   2.395   9.027  0.2334  0.4178 -0.4702
  173SOPE  H12X19683   3.186   2.353   9.054  0.3270  0.7431  0.3870
  173SOPE  H12Y19684   3.351   2.307   9.037  1.3902  1.3066 -0.1167
  173SOPE  C31319685   3.297   2.431   8.881  0.0911 -0.4000 -0.7081
  173SOPE  H13X19686   3.396   2.473   8.850  0.4097 -1.3678 -1.0607
  173SOPE  H13Y19687   3.221   2.509   8.862  0.8570  0.6572  0.5604
  173SOPE  C31419688   3.259   2.327   8.773  0.9449  0.2785  0.6598
  173SOPE  H14X19689   3.153   2.298   8.783  0.6894  0.9333 -0.1090
  173SOPE  H14Y19690   3.328   2.243   8.796  0.8770  0.0545  0.0543
  173SOPE  C31519691   3.287   2.387   8.637  0.5432 -0.1095 -0.2049
  173SOPE  H15X19692   3.355   2.321   8.580  1.0078  2.8293 -3.2424
  173SOPE  H15Y19693   3.335   2.487   8.640  0.5519 -0.1298  0.4718
  173SOPE  C31619694   3.158   2.403   8.559  0.3738 -0.8131 -0.0929
  173SOPE  H16X19695   3.095   2.311   8.559 -0.3273 -0.3396  0.6799
  173SOPE  H16Y19696   3.185   2.442   8.459  2.3456 -1.3935  0.2023
  173SOPE  C31719697   3.066   2.518   8.604 -0.0022 -0.1507 -0.9153
  173SOPE  H17X19698   3.132   2.604   8.626  1.2324 -1.6228  1.2357
  173SOPE  H17Y19699   3.008   2.496   8.696 -0.6209 -2.4612 -1.8183
  173SOPE  C31819700   2.963   2.556   8.497  0.3970  0.6372  0.2633
  173SOPE  H18X19701   3.010   2.584   8.400 -1.1557 -2.7548 -1.5723
  173SOPE  H18Y19702   2.910   2.644   8.540  0.6032  1.0953 -0.4117
  173SOPE  H18Z19703   2.893   2.472   8.476  0.1567  0.2842  2.3465
  174SOPE     N19704   3.427   2.790  11.136 -0.4383 -0.2793  0.6678
  174SOPE   HN119705   3.486   2.865  11.094  1.4252 -1.9320  0.2666
  174SOPE   HN219706   3.325   2.797  11.114 -0.2025  0.3830 -0.2844
  174SOPE   HN319707   3.439   2.779  11.238 -1.2920  0.1268  0.8248
  174SOPE   C1219708   3.471   2.669  11.064  0.6414 -0.0915 -0.0965
  174SOPE  H12A19709   3.557   2.622  11.117 -0.8007  0.7824  3.1813
  174SOPE  H12B19710   3.495   2.705  10.962  0.8263 -3.3638 -1.2778
  174SOPE   C1119711   3.355   2.575  11.063 -0.3954 -0.4193  0.2277
  174SOPE  H11A19712   3.322   2.554  11.166  0.4610 -0.2916  0.5371
  174SOPE  H11B19713   3.380   2.475  11.020 -0.3449 -0.8502  1.2414
  174SOPE     P19714   3.121   2.566  10.963 -0.1983  0.1469 -0.3166
  174SOPE   O1319715   3.018   2.667  10.927 -0.2258  0.3946  0.0649
  174SOPE   O1419716   3.094   2.474  11.077  0.0144  0.4294 -0.4899
  174SOPE   O1219717   3.253   2.645  10.991  0.4187 -0.3657  0.5535
  174SOPE   O1119718   3.157   2.484  10.835  0.5397  0.1284 -0.0591
  174SOPE    C119719   3.261   2.512  10.743  0.8396 -0.1122  0.2318
  174SOPE    HA19720   3.349   2.558  10.794  0.7092 -1.2863  1.5475
  174SOPE    HB19721   3.234   2.572  10.653 -0.8399 -0.3227  0.5882
  174SOPE    C219722   3.308   2.378  10.670  0.0721 -0.4350 -0.0161
  174SOPE    HS19723   3.398   2.407  10.611 -0.1367  6.1170  2.4339
  174SOPE   O2119724   3.198   2.326  10.598 -0.3181  0.3060  0.4015
  174SOPE   C2119725   3.175   2.386  10.485 -0.3109 -0.2821  0.0219
  174SOPE   O2219726   3.248   2.467  10.428  0.7529  0.1473 -0.0586
  174SOPE   C2219727   3.049   2.318  10.433 -0.4871  0.0593  0.0315
  174SOPE   H2R19728   2.962   2.386  10.439 -0.2244  0.4573 -0.5288
  174SOPE   H2S19729   3.025   2.218  10.474  1.9053  0.4641  2.6509
  174SOPE    C319730   3.361   2.276  10.775  0.9171 -0.1361 -0.4629
  174SOPE    HX19731   3.293   2.272  10.863 -0.6618  1.0522 -1.5953
  174SOPE    HY19732   3.453   2.325  10.812  0.7652 -0.2544  0.0779
  174SOPE   O3119733   3.381   2.147  10.713 -0.1905  0.2578 -0.5509
  174SOPE   C3119734   3.281   2.057  10.724  0.6340  0.0461 -0.8503
  174SOPE   O3219735   3.178   2.070  10.790 -0.3683  0.2522  0.3290
  174SOPE   C3219736   3.309   1.944  10.632 -0.4482  0.2478 -0.5042
  174SOPE   H2X19737   3.242   1.862  10.663 -2.2347  1.2211 -1.6719
  174SOPE   H2Y19738   3.416   1.924  10.653 -1.0262  0.2410  2.6417
  174SOPE   C2319739   3.078   2.291  10.279  0.2621 -0.0537  0.3083
  174SOPE   H3R19740   3.002   2.219  10.240  2.4373 -1.0748 -2.1964
  174SOPE   H3S19741   3.173   2.234  10.279 -0.6564 -1.6340  1.6881
  174SOPE   C2419742   3.067   2.410  10.185 -0.0016 -0.4022 -0.7053
  174SOPE   H4R19743   2.960   2.438  10.184  0.1696  0.2581 -0.5420
  174SOPE   H4S19744   3.141   2.486  10.218  1.0085 -1.9037  0.5723
  174SOPE   C2519745   3.115   2.377  10.040  0.0352  0.0662  0.0966
  174SOPE   H5R19746   3.132   2.473   9.988 -1.5589  1.3717  1.9547
  174SOPE   H5S19747   3.215   2.327  10.041  0.7185  1.4243  1.6073
  174SOPE   C2619748   3.026   2.296   9.951 -0.3975  0.3421 -0.4793
  174SOPE   H6R19749   3.000   2.197   9.995  3.0654  0.4779  2.0687
  174SOPE   H6S19750   2.933   2.355   9.934  0.5452  2.0559  0.1683
  174SOPE   C2719751   3.085   2.279   9.804 -0.0603 -0.3855 -0.3044
  174SOPE   H7R19752   3.117   2.378   9.763 -1.4582  0.0959 -0.2441
  174SOPE   H7S19753   3.168   2.207   9.822 -0.0793 -0.5146 -0.7381
  174SOPE   C2819754   2.992   2.200   9.711  0.6957 -0.7382 -0.6407
  174SOPE   H8R19755   3.045   2.152   9.626  3.0409 -0.0449  0.3839
  174SOPE   H8S19756   2.958   2.119   9.778  1.6445 -0.7804 -0.2011
  174SOPE   C2919757   2.886   2.297   9.667 -0.0821 -0.4368  0.6636
  174SOPE   H9119758   2.810   2.338   9.736  0.9980  1.8606  0.5120
  174SOPE  C21019759   2.874   2.338   9.546 -0.0399  0.0522 -0.1648
  174SOPE  H10119760   2.785   2.399   9.522 -0.7082 -1.2010 -0.9402
  174SOPE  C21119761   2.962   2.299   9.426  0.7035  0.5995 -0.2077
  174SOPE  H11R19762   3.061   2.261   9.459 -0.2984 -0.2837  1.8561
  174SOPE  H11S19763   2.977   2.391   9.364  0.9643  1.0234  0.4825
  174SOPE  C21219764   2.908   2.187   9.336 -0.6292  0.2364 -0.5405
  174SOPE  H12R19765   2.802   2.205   9.311  0.5146  0.9813 -5.4362
  174SOPE  H12S19766   2.927   2.089   9.384 -0.7463 -0.2933 -1.5589
  174SOPE  C21319767   2.965   2.193   9.198 -0.1421  0.6420 -0.3568
  174SOPE  H13R19768   3.075   2.177   9.188  0.2194  2.2149  0.8963
  174SOPE  H13S19769   2.946   2.297   9.163 -0.4862  0.3277 -1.1082
  174SOPE  C21419770   2.896   2.097   9.103  0.4369  0.3651  1.1183
  174SOPE  H14R19771   2.786   2.116   9.110  0.2615 -0.5511  0.8588
  174SOPE  H14S19772   2.923   1.995   9.137 -0.3501 -0.4586 -0.6773
  174SOPE  C21519773   2.928   2.113   8.954 -0.2647 -0.0644 -0.2056
  174SOPE  H15R19774   3.038   2.110   8.941 -0.2286  1.6053 -0.4277
  174SOPE  H15S19775   2.902   2.213   8.914 -0.4574 -0.0912 -0.1458
  174SOPE  C21619776   2.863   1.999   8.870 -0.6626 -0.3748 -0.3318
  174SOPE  H16R19777   2.758   2.034   8.872 -0.9014 -1.1159  0.0328
  174SOPE  H16S19778   2.861   1.900   8.921 -4.1558 -0.3730 -0.4052
  174SOPE  C21719779   2.914   2.003   8.728  0.2555 -0.1443  0.3344
  174SOPE  H17R19780   2.895   1.912   8.668 -0.9564  0.3483 -0.0403
  174SOPE  H17S19781   3.024   2.018   8.718  0.4670 -0.5659  1.8891
  174SOPE  C21819782   2.853   2.119   8.649 -0.2535  0.3949 -0.2771
  174SOPE  H18R19783   2.747   2.098   8.623 -1.0756  2.9526  0.8633
  174SOPE  H18S19784   2.888   2.140   8.546  0.6283 -0.8078 -0.2338
  174SOPE  H18T19785   2.863   2.207   8.716  0.9293  1.0585 -1.2971
  174SOPE   C3319786   3.283   1.970  10.477  0.0193  0.3403  0.5104
  174SOPE   H3X19787   3.286   2.078  10.452  0.2708  0.4451  0.9736
  174SOPE   H3Y19788   3.179   1.937  10.458 -0.2568  2.3386 -1.6809
  174SOPE   C3419789   3.381   1.885  10.382 -0.1135  0.4868  0.2093
  174SOPE   H4X19790   3.371   1.776  10.401 -1.5209  0.3519 -1.2322
  174SOPE   H4Y19791   3.482   1.924  10.403  0.0450 -0.2542  0.8596
  174SOPE   C3519792   3.350   1.911  10.234  0.8030  0.7728 -0.3480
  174SOPE   H5X19793   3.435   1.888  10.167  0.7506 -0.2110 -0.0732
  174SOPE   H5Y19794   3.333   2.019  10.214  2.4912  1.2803  0.8545
  174SOPE   C3619795   3.235   1.834  10.170 -0.7706  0.1810 -0.1033
  174SOPE   H6X19796   3.142   1.854  10.226 -0.8609 -0.8219  0.1181
  174SOPE   H6Y19797   3.258   1.726  10.182 -1.1796 -0.1560 -2.1468
  174SOPE   C3719798   3.230   1.869  10.024 -0.0214  0.1769  0.5040
  174SOPE   H7X19799   3.332   1.886   9.984 -0.0426 -2.1528 -0.6325
  174SOPE   H7Y19800   3.164   1.955  10.001  1.1968  0.4941 -1.9634
  174SOPE   C3819801   3.171   1.755   9.943  0.4613 -0.3179 -0.1073
  174SOPE   H8X19802   3.064   1.733   9.967  0.1950 -1.4356 -2.1185
  174SOPE   H8Y19803   3.220   1.662   9.978  1.0002 -0.0745 -0.2244
  174SOPE   C3919804   3.181   1.784   9.791 -0.8328 -0.7975  0.0487
  174SOPE   H9X19805   3.288   1.800   9.766 -1.0117  1.3141  0.5235
  174SOPE   H9Y19806   3.128   1.878   9.763  1.6001  0.4633 -0.4627
  174SOPE  C31019807   3.105   1.694   9.696  0.0970 -0.8506 -0.3698
  174SOPE  H10X19808   3.006   1.673   9.742 -0.1455 -2.6235 -1.6371
  174SOPE  H10Y19809   3.159   1.598   9.686  1.3386  0.0401 -2.5025
  174SOPE  C31119810   3.094   1.755   9.557 -0.4573 -0.0567  0.0755
  174SOPE  H11X19811   3.196   1.784   9.523 -0.3131  3.2382  3.1040
  174SOPE  H11Y19812   3.031   1.845   9.545 -0.8669 -0.3386  0.0805
  174SOPE  C31219813   3.034   1.655   9.456 -0.1571  0.0132 -0.0803
  174SOPE  H12X19814   2.931   1.645   9.497  0.6354  0.9388  2.2325
  174SOPE  H12Y19815   3.074   1.551   9.466 -0.9576 -0.2027  0.9834
  174SOPE  C31319816   3.014   1.694   9.312 -0.1008 -0.6364 -0.3599
  174SOPE  H13X19817   3.113   1.705   9.263 -0.1843  0.4500 -0.3004
  174SOPE  H13Y19818   2.969   1.796   9.308  0.9538 -0.1881 -1.0812
  174SOPE  C31419819   2.937   1.595   9.225  0.2858  0.0964 -1.0414
  174SOPE  H14X19820   2.836   1.577   9.267  1.6388 -1.3520  1.7175
  174SOPE  H14Y19821   2.979   1.493   9.215 -0.6861 -0.4135  0.0337
  174SOPE  C31519822   2.934   1.652   9.086 -0.5423  0.2825 -0.0583
  174SOPE  H15X19823   3.035   1.671   9.043 -0.6998  1.6001  0.1473
  174SOPE  H15Y19824   2.883   1.750   9.097  0.0276  0.6443 -0.5882
  174SOPE  C31619825   2.844   1.559   9.000 -0.4635  0.4994 -0.9368
  174SOPE  H16X19826   2.747   1.551   9.053 -1.3420  1.0350 -2.4575
  174SOPE  H16Y19827   2.889   1.458   8.994 -3.7360 -0.9710 -1.2940
  174SOPE  C31719828   2.821   1.629   8.874 -0.0489 -0.1405  0.4666
  174SOPE  H17X19829   2.914   1.674   8.834 -1.3968 -0.3058 -3.0904
  174SOPE  H17Y19830   2.756   1.718   8.890  0.3345  0.5306 -1.4925
  174SOPE  C31819831   2.768   1.539   8.770  0.4970  0.1371  0.1836
  174SOPE  H18X19832   2.816   1.438   8.767  0.0582 -0.0564 -0.9077
  174SOPE  H18Y19833   2.776   1.589   8.671  2.7798  0.6176  0.5989
  174SOPE  H18Z19834   2.662   1.519   8.796  0.2482  0.8803 -0.2567
  175SOPE     N19835   4.990   4.690  10.742  0.8621  0.2020  0.1500
  175SOPE   HN119836   5.033   4.699  10.648  0.2100  2.1085  0.0136
  175SOPE   HN219837   4.895   4.649  10.733  0.7141  0.3228  1.0799
  175SOPE   HN319838   4.963   4.780  10.785  0.6372  0.0515  0.3272
  175SOPE   C1219839   5.061   4.607  10.846  0.3630 -0.7959 -0.1251
  175SOPE  H12A19840   4.982   4.579  10.919  0.9680 -0.5647  0.6301
  175SOPE  H12B19841   5.142   4.668  10.893 -0.5161  1.6315 -1.7056
  175SOPE   C1119842   5.121   4.486  10.782 -0.8662  0.0953  0.6297
  175SOPE  H11A19843   5.180   4.431  10.858 -0.7674 -0.4414  0.1757
  175SOPE  H11B19844   5.184   4.526  10.700 -1.4490  1.5954  0.9080
  175SOPE     P19845   5.066   4.258  10.685 -0.0197 -0.2675 -0.1985
  175SOPE   O1319846   4.961   4.168  10.739  0.5079 -0.5327 -0.6382
  175SOPE   O1419847   5.197   4.233  10.739 -0.0447  0.7565  0.0079
  175SOPE   O1219848   5.021   4.408  10.716 -0.4748  0.4901  0.5906
  175SOPE   O1119849   5.072   4.239  10.527  0.2168 -0.2577 -0.6569
  175SOPE    C119850   5.134   4.335  10.441 -0.1200  0.7099 -0.6938
  175SOPE    HA19851   5.222   4.287  10.392  0.4305 -0.3480  1.2711
  175SOPE    HB19852   5.162   4.432  10.485 -2.0726  1.4204 -0.9643
  175SOPE    C219853   5.047   4.363  10.310  0.3510  0.1493 -0.1993
  175SOPE    HS19854   4.959   4.422  10.343  1.4754  1.6700  0.1932
  175SOPE   O2119855   5.019   4.236  10.247 -0.6359 -0.5922 -0.1357
  175SOPE   C2119856   4.897   4.195  10.260 -0.0132 -0.2746 -0.4333
  175SOPE   O2219857   4.811   4.238  10.334 -0.1854  0.2248  0.1007
  175SOPE   C2219858   4.892   4.069  10.170  0.4761 -0.1290 -0.0325
  175SOPE   H2R19859   4.904   3.977  10.231 -0.5994 -1.0533 -1.1895
  175SOPE   H2S19860   4.972   4.076  10.092  1.6748  1.3883  1.3062
  175SOPE    C319861   5.134   4.456  10.216 -0.0025  0.2079  0.2151
  175SOPE    HX19862   5.216   4.390  10.181  0.2788 -0.7437  2.5571
  175SOPE    HY19863   5.182   4.533  10.281  2.9909 -1.2069 -0.2070
  175SOPE   O3119864   5.062   4.530  10.112  0.0100 -0.3020 -0.2850
  175SOPE   C3119865   5.056   4.462   9.998  0.2335  0.4496 -1.2106
  175SOPE   O3219866   5.091   4.346   9.978  0.0964  0.3251  0.0056
  175SOPE   C3219867   4.992   4.547   9.884  0.2642 -0.1131  0.2495
  175SOPE   H2X19868   4.955   4.644   9.923 -0.5800  1.4236 -4.0790
  175SOPE   H2Y19869   4.906   4.499   9.833 -1.9135  2.7967  1.0329
  175SOPE   C2319870   4.754   4.060  10.099  0.0962 -0.0490  0.4312
  175SOPE   H3R19871   4.697   4.155  10.114 -1.8568 -0.6923 -2.4920
  175SOPE   H3S19872   4.695   3.988  10.160 -2.4467  1.9091  0.3515
  175SOPE   C2419873   4.766   4.010   9.959  0.5248  0.2964  0.1099
  175SOPE   H4R19874   4.829   3.919   9.964 -1.5524 -1.2026 -0.0938
  175SOPE   H4S19875   4.670   3.972   9.917 -0.2427  2.0562  0.2542
  175SOPE   C2519876   4.812   4.117   9.849 -0.5189  1.0684  0.4698
  175SOPE   H5R19877   4.741   4.202   9.848  0.0799  1.5639 -1.3474
  175SOPE   H5S19878   4.916   4.150   9.872  0.1584 -0.7015 -0.0084
  175SOPE   C2619879   4.821   4.051   9.709  0.0689 -0.0921 -0.2841
  175SOPE   H6R19880   4.903   3.977   9.720 -0.5846 -0.6248  1.0797
  175SOPE   H6S19881   4.731   3.990   9.684 -1.1257  1.6306 -0.2854
  175SOPE   C2719882   4.846   4.164   9.613  0.4051 -0.0685  0.2344
  175SOPE   H7R19883   4.767   4.242   9.603  0.9780  0.5976  0.8367
  175SOPE   H7S19884   4.929   4.226   9.654  0.7990  1.4168 -2.6844
  175SOPE   C2819885   4.892   4.118   9.472 -0.3195 -0.2456 -0.5706
  175SOPE   H8R19886   4.926   4.213   9.427  0.1724 -0.7561 -1.2854
  175SOPE   H8S19887   4.983   4.054   9.481  1.7364  2.4488 -1.6680
  175SOPE   C2919888   4.778   4.053   9.390  0.2079 -0.4202 -0.4590
  175SOPE   H9119889   4.741   3.958   9.430 -0.8665 -0.1913 -0.9003
  175SOPE  C21019890   4.747   4.081   9.260  0.2965 -0.3608 -0.3828
  175SOPE  H10119891   4.654   4.030   9.231  0.5050 -0.2595 -1.2497
  175SOPE  C21119892   4.803   4.184   9.166  0.2912 -0.2537 -0.2774
  175SOPE  H11R19893   4.900   4.218   9.209  0.7602 -1.1208 -0.6496
  175SOPE  H11S19894   4.743   4.277   9.175  0.8509  0.3151 -2.2054
  175SOPE  C21219895   4.819   4.142   9.020  0.3803  0.1113 -0.2593
  175SOPE  H12R19896   4.718   4.158   8.976  0.1079  2.9730  1.2708
  175SOPE  H12S19897   4.839   4.033   9.021 -2.3318 -0.4488  3.2880
  175SOPE  C21319898   4.911   4.211   8.930 -0.3340 -0.2568  0.1413
  175SOPE  H13R19899   5.016   4.205   8.966  0.3263 -2.3434 -1.9616
  175SOPE  H13S19900   4.880   4.317   8.941  0.6713 -0.0870  1.4825
  175SOPE  C21419901   4.904   4.152   8.792  0.8937 -0.3463 -0.2428
  175SOPE  H14R19902   4.803   4.162   8.747  0.3881  0.3249  0.9977
  175SOPE  H14S19903   4.914   4.042   8.788 -0.7245 -0.4946 -0.7609
  175SOPE  C21519904   5.006   4.204   8.685 -0.1600  0.2684  0.1150
  175SOPE  H15R19905   4.988   4.154   8.587  0.6380  0.5773 -0.1955
  175SOPE  H15S19906   5.101   4.159   8.722 -0.3947 -3.3153 -3.2767
  175SOPE  C21619907   5.021   4.355   8.678 -0.5843  0.4268  0.3424
  175SOPE  H16R19908   5.033   4.385   8.784  2.7438 -0.9259  0.4297
  175SOPE  H16S19909   4.927   4.390   8.631 -0.9471 -2.7130 -1.4535
  175SOPE  C21719910   5.146   4.399   8.587  0.2005  0.5638  0.0874
  175SOPE  H17R19911   5.119   4.374   8.482 -0.0220  2.3434 -0.2982
  175SOPE  H17S19912   5.232   4.334   8.615 -0.4240 -1.2181 -1.9991
  175SOPE  C21819913   5.193   4.546   8.598  0.6153  0.4545  0.2099
  175SOPE  H18R19914   5.218   4.571   8.703  3.3531 -0.8957 -0.0903
  175SOPE  H18S19915   5.122   4.621   8.556  3.0465  1.9889 -1.2470
  175SOPE  H18T19916   5.292   4.560   8.550  0.4319 -0.5174 -0.4769
  175SOPE   C3319917   5.089   4.592   9.774 -0.2091 -0.8244 -0.0345
  175SOPE   H3X19918   5.146   4.506   9.732 -0.4277 -1.2058  0.4510
  175SOPE   H3Y19919   5.157   4.669   9.817 -1.7085  1.4337 -1.5887
  175SOPE   C3419920   5.037   4.666   9.653  0.4082 -0.0415  0.9372
  175SOPE   H4X19921   5.112   4.731   9.604 -0.3167 -0.8223 -1.3038
  175SOPE   H4Y19922   4.951   4.734   9.669 -0.1986 -0.8499  1.1648
  175SOPE   C3519923   5.006   4.556   9.536 -0.4054  0.2262  1.1133
  175SOPE   H5X19924   4.926   4.489   9.574 -1.3434 -0.8460 -2.5772
  175SOPE   H5Y19925   5.098   4.495   9.525 -1.6174 -1.5867  0.7534
  175SOPE   C3619926   4.972   4.603   9.394  0.3132 -0.3028  0.4798
  175SOPE   H6X19927   5.043   4.682   9.360  0.6477 -1.3073 -1.2098
  175SOPE   H6Y19928   4.880   4.664   9.405 -0.0638 -0.4306 -1.7767
  175SOPE   C3719929   4.948   4.503   9.288 -0.3460  0.5568 -0.2808
  175SOPE   H7X19930   4.870   4.431   9.323 -0.5602  0.4235 -1.0300
  175SOPE   H7Y19931   5.044   4.446   9.288 -2.0733 -2.5013  0.6572
  175SOPE   C3819932   4.912   4.554   9.146  0.1940  0.4506 -0.6446
  175SOPE   H8X19933   4.827   4.625   9.159 -0.1981 -0.1745  0.3314
  175SOPE   H8Y19934   4.880   4.468   9.082 -0.3828 -1.3118  1.9173
  175SOPE   C3919935   5.033   4.619   9.087  0.3945 -0.1593 -0.1008
  175SOPE   H9X19936   5.117   4.547   9.076  1.3905  0.6214  2.0390
  175SOPE   H9Y19937   5.062   4.704   9.152 -0.6092  0.0023  0.1381
  175SOPE  C31019938   5.015   4.663   8.939 -0.5133 -0.1572  0.6424
  175SOPE  H10X19939   4.915   4.711   8.945 -0.6810 -0.3835 -0.3042
  175SOPE  H10Y19940   5.002   4.578   8.868 -2.7992  0.7757 -0.1029
  175SOPE  C31119941   5.128   4.759   8.884  0.1656  1.1818  0.2347
  175SOPE  H11X19942   5.113   4.773   8.775  0.8947 -1.7014 -0.2672
  175SOPE  H11Y19943   5.224   4.706   8.903  0.3693  0.9146 -1.4420
  175SOPE  C31219944   5.111   4.897   8.938  0.2053 -0.4982 -0.5045
  175SOPE  H12X19945   5.129   4.902   9.048 -2.5659  2.5443 -0.1119
  175SOPE  H12Y19946   5.009   4.932   8.915  0.4056 -1.2996 -2.7793
  175SOPE  C31319947   5.229   4.993   8.883 -0.2904 -0.0322  0.2483
  175SOPE  H13X19948   5.309   4.924   8.850  1.5891  1.9352  0.5765
  175SOPE  H13Y19949   5.263   5.060   8.964  2.4900  0.7433 -1.4877
  175SOPE  C31419950   5.186   5.076   8.763 -0.6364  0.1405  0.3481
  175SOPE  H14X19951   5.115   5.154   8.797 -0.2659  1.1992 -1.2462
  175SOPE  H14Y19952   5.135   5.013   8.687 -1.8295  1.0493  0.3685
  175SOPE  C31519953   5.306   5.145   8.690  0.5402  0.6604 -0.2140
  175SOPE  H15X19954   5.354   5.219   8.757  0.0874  1.7592 -1.0781
  175SOPE  H15Y19955   5.272   5.200   8.600 -0.0208 -1.9906 -1.6891
  175SOPE  C31619956   5.408   5.041   8.639  0.4601 -0.1574 -0.3524
  175SOPE  H16X19957   5.361   4.966   8.572  1.4740 -2.4682  1.4541
  175SOPE  H16Y19958   5.454   4.993   8.728 -0.5597 -0.5718 -0.0527
  175SOPE  C31719959   5.526   5.109   8.567 -0.5093  1.1717  0.1700
  175SOPE  H17X19960   5.578   5.178   8.637  1.1852 -1.3837  1.4936
  175SOPE  H17Y19961   5.489   5.151   8.471  1.6818 -1.4158 -1.9051
  175SOPE  C31819962   5.627   4.999   8.520  0.2048  0.3484  0.2417
  175SOPE  H18X19963   5.667   4.936   8.603 -0.8483  1.3801  1.5469
  175SOPE  H18Y19964   5.709   5.048   8.462 -0.5393 -0.6872 -1.7478
  175SOPE  H18Z19965   5.577   4.928   8.451 -1.5374  2.1113 -0.3648
  176SOPE     N19966   4.662   3.162  11.276 -0.6230  0.1883  0.4734
  176SOPE   HN119967   4.678   3.061  11.298  0.6962  0.3652  0.3400
  176SOPE   HN219968   4.647   3.214  11.365 -1.8404  1.2408 -0.3308
  176SOPE   HN319969   4.567   3.162  11.232  0.0738  0.7552 -1.0657
  176SOPE   C1219970   4.774   3.229  11.198  0.1749 -0.5508  0.9225
  176SOPE  H12A19971   4.787   3.196  11.093  0.3610 -1.2122  1.1524
  176SOPE  H12B19972   4.859   3.201  11.264 -0.8463 -1.4307  1.8527
  176SOPE   C1119973   4.755   3.376  11.195  0.0631 -0.7888 -0.1208
  176SOPE  H11A19974   4.848   3.433  11.176 -1.4862  1.8515 -0.0883
  176SOPE  H11B19975   4.719   3.403  11.296  2.6927  1.2596  0.3305
  176SOPE     P19976   4.653   3.540  11.028  0.2068 -0.7096  0.0707
  176SOPE   O1319977   4.786   3.548  10.954 -0.0869  0.1052  0.6427
  176SOPE   O1419978   4.622   3.645  11.131  0.0450  0.1963 -0.2328
  176SOPE   O1219979   4.649   3.403  11.102  0.3986 -0.1780  0.7644
  176SOPE   O1119980   4.531   3.542  10.927 -0.5957 -0.5008  0.5809
  176SOPE    C119981   4.479   3.425  10.867  0.3088  0.0594 -0.7990
  176SOPE    HA19982   4.405   3.454  10.789 -2.1150 -1.9270  0.6861
  176SOPE    HB19983   4.423   3.375  10.949  1.4031 -0.0572 -0.1143
  176SOPE    C219984   4.586   3.346  10.794  0.5451  0.0791  0.4813
  176SOPE    HS19985   4.664   3.306  10.862  0.7384  1.8431  1.2945
  176SOPE   O2119986   4.644   3.417  10.683 -0.2082 -0.6560  0.2063
  176SOPE   C2119987   4.760   3.367  10.641 -0.0562  1.1069 -0.0697
  176SOPE   O2219988   4.822   3.270  10.687  0.1756  0.5088 -0.4142
  176SOPE   C2219989   4.798   3.451  10.520  0.4840  0.5181 -0.3657
  176SOPE   H2R19990   4.825   3.552  10.557  1.2081  0.3260 -0.3546
  176SOPE   H2S19991   4.710   3.463  10.453  1.8336 -0.3753 -2.3696
  176SOPE    C319992   4.512   3.213  10.748  0.0896 -0.2620  0.1047
  176SOPE    HX19993   4.462   3.158  10.831  1.2175  0.0284  0.9832
  176SOPE    HY19994   4.584   3.143  10.701 -0.6059 -0.5072 -0.6175
  176SOPE   O3119995   4.395   3.234  10.661 -0.1131 -0.3059 -0.5331
  176SOPE   C3119996   4.414   3.238  10.536 -0.3022  0.8913  0.9789
  176SOPE   O3219997   4.521   3.241  10.476 -0.0286  0.3165 -0.3514
  176SOPE   C3219998   4.279   3.253  10.458 -0.8839  0.1414  0.3533
  176SOPE   H2X19999   4.228   3.339  10.508  0.0093  1.6858 -1.3207
  176SOPE   H2Y20000   4.225   3.162  10.492  0.1863 -0.7302 -0.2468
  176SOPE   C2320001   4.916   3.387  10.445  0.6233  0.0936  0.0563
  176SOPE   H3R20002   4.898   3.277  10.441  1.5546 -0.0300 -0.6505
  176SOPE   H3S20003   5.014   3.403  10.496 -0.4681  0.6731  2.0422
  176SOPE   C2420004   4.917   3.428  10.298 -0.2305 -0.7296 -0.8506
  176SOPE   H4R20005   4.832   3.379  10.246 -1.6105 -1.5824  2.0787
  176SOPE   H4S20006   4.905   3.536  10.279  0.8710 -0.3306  0.6295
  176SOPE   C2520007   5.048   3.387  10.228 -0.2466 -0.6987 -0.0012
  176SOPE   H5R20008   5.049   3.429  10.125 -0.4789 -1.7639 -0.4428
  176SOPE   H5S20009   5.128   3.436  10.287 -2.4410  1.5582  1.2080
  176SOPE   C2620010   5.091   3.231  10.219 -0.2137 -0.0942  0.0984
  176SOPE   H6R20011   5.094   3.190  10.322 -0.3647  0.2820  0.2550
  176SOPE   H6S20012   5.004   3.182  10.170 -1.9741  2.8048  0.1852
  176SOPE   C2720013   5.218   3.190  10.135  0.1323  0.6210  0.6452
  176SOPE   H7R20014   5.314   3.218  10.183  1.1179  1.7852 -1.9128
  176SOPE   H7S20015   5.215   3.079  10.132  0.1927  0.6177  0.7133
  176SOPE   C2820016   5.218   3.257   9.996 -0.0242 -0.1957 -0.0703
  176SOPE   H8R20017   5.124   3.248   9.939  0.5267 -2.9309 -0.5986
  176SOPE   H8S20018   5.231   3.368   9.995  0.8211 -0.2813 -2.6502
  176SOPE   C2920019   5.333   3.193   9.926 -0.2924  0.2136 -0.1464
  176SOPE   H9120020   5.428   3.202   9.981 -0.6100  1.1089  0.2639
  176SOPE  C21020021   5.327   3.153   9.798 -0.6602 -0.3658  0.2449
  176SOPE  H10120022   5.418   3.125   9.744 -0.6199  3.8002 -2.1207
  176SOPE  C21120023   5.212   3.149   9.693  0.2749  0.2786  0.0834
  176SOPE  H11R20024   5.135   3.228   9.702 -1.1237 -0.8117 -2.0366
  176SOPE  H11S20025   5.155   3.056   9.713  1.2764 -0.4009 -0.1686
  176SOPE  C21220026   5.249   3.158   9.547 -0.3489  0.2074 -0.0845
  176SOPE  H12R20027   5.285   3.258   9.515  2.2866 -0.6362  0.0831
  176SOPE  H12S20028   5.164   3.137   9.479  0.3978 -2.3559 -0.2622
  176SOPE  C21320029   5.356   3.051   9.491  0.1413  0.1568 -0.5327
  176SOPE  H13R20030   5.302   2.957   9.515 -0.6320  0.8705  0.5883
  176SOPE  H13S20031   5.450   3.050   9.549  0.0930  0.0197 -0.4566
  176SOPE  C21420032   5.390   3.064   9.339  0.4051 -0.7997  0.5111
  176SOPE  H14R20033   5.298   3.066   9.277  2.1313  0.4406 -2.0617
  176SOPE  H14S20034   5.456   2.976   9.322  2.5304  0.6499  1.0583
  176SOPE  C21520035   5.484   3.181   9.299  0.3394 -0.2428 -0.3639
  176SOPE  H15R20036   5.582   3.181   9.352  0.1657  0.9910 -0.0387
  176SOPE  H15S20037   5.430   3.274   9.328 -2.5963 -1.6061 -1.2399
  176SOPE  C21620038   5.513   3.190   9.145 -0.6799  0.6934 -1.1055
  176SOPE  H16R20039   5.575   3.281   9.129  0.6387  0.0900  0.4480
  176SOPE  H16S20040   5.413   3.199   9.097 -0.0723 -2.2187 -3.0508
  176SOPE  C21720041   5.598   3.066   9.089 -0.1824 -0.0040  0.1879
  176SOPE  H17R20042   5.528   2.981   9.102 -0.2697  0.1855  1.0034
  176SOPE  H17S20043   5.689   3.042   9.148 -0.8552  0.0116  1.2331
  176SOPE  C21820044   5.623   3.079   8.943 -0.0805 -0.6019  0.3393
  176SOPE  H18R20045   5.708   3.147   8.923 -0.4555  0.7370  3.0836
  176SOPE  H18S20046   5.536   3.108   8.881 -0.6589 -1.6509  0.6402
  176SOPE  H18T20047   5.664   2.985   8.902  1.3115 -0.4165  1.2843
  176SOPE   C3320048   4.291   3.256  10.306  0.1969  0.5203  0.1535
  176SOPE   H3X20049   4.295   3.153  10.266 -1.0195  0.5449 -0.0536
  176SOPE   H3Y20050   4.372   3.325  10.275  0.0473  0.8983  0.5928
  176SOPE   C3420051   4.161   3.320  10.242 -0.1543  0.0947 -0.0258
  176SOPE   H4X20052   4.133   3.404  10.308 -0.6166 -2.1291  2.7187
  176SOPE   H4Y20053   4.073   3.258  10.270 -0.0064  0.1124  0.4786
  176SOPE   C3520054   4.160   3.352  10.091 -0.0979  0.1667 -0.0208
  176SOPE   H5X20055   4.253   3.405  10.062  0.4296  0.8001  2.6345
  176SOPE   H5Y20056   4.080   3.424  10.062 -1.5370 -1.6828 -0.7862
  176SOPE   C3620057   4.147   3.227   9.999  0.1943 -0.2619 -0.7891
  176SOPE   H6X20058   4.041   3.199  10.014  0.5993 -1.2437  0.3200
  176SOPE   H6Y20059   4.206   3.142  10.040  1.9092  2.2121  2.1650
  176SOPE   C3720060   4.178   3.248   9.852  0.2233 -0.3940 -0.6128
  176SOPE   H7X20061   4.121   3.330   9.803  0.0282  0.5523  1.1295
  176SOPE   H7Y20062   4.167   3.153   9.796 -0.9372 -0.3040 -0.5542
  176SOPE   C3820063   4.332   3.281   9.836 -0.2018  0.1405 -0.4058
  176SOPE   H8X20064   4.383   3.230   9.921 -1.5945  2.6600  1.9943
  176SOPE   H8Y20065   4.345   3.391   9.840  0.1252  0.1574 -1.6326
  176SOPE   C3920066   4.391   3.239   9.699  0.4233 -0.1880 -0.7549
  176SOPE   H9X20067   4.363   3.133   9.680  2.2290 -1.0690  1.3644
  176SOPE   H9Y20068   4.500   3.257   9.700  0.2227  1.0351 -0.6038
  176SOPE  C31020069   4.320   3.309   9.583 -0.0316  0.1237  0.3047
  176SOPE  H10X20070   4.326   3.420   9.592  0.2292 -0.0051  1.9491
  176SOPE  H10Y20071   4.215   3.272   9.585 -0.1850  0.4529 -1.2876
  176SOPE  C31120072   4.387   3.269   9.445 -0.3788 -0.3875 -0.1521
  176SOPE  H11X20073   4.334   3.299   9.353  3.6931  2.5028 -1.7248
  176SOPE  H11Y20074   4.407   3.160   9.442  1.0776 -0.2266  1.9768
  176SOPE  C31220075   4.531   3.333   9.435 -0.0208  0.1808 -0.8308
  176SOPE  H12X20076   4.597   3.284   9.510 -2.1064 -1.3858  0.0139
  176SOPE  H12Y20077   4.525   3.443   9.450 -1.0298 -0.0301  0.4514
  176SOPE  C31320078   4.588   3.313   9.302 -0.1391 -0.3681  0.0261
  176SOPE  H13X20079   4.551   3.213   9.269  1.8986 -0.7113 -1.3591
  176SOPE  H13Y20080   4.699   3.314   9.304 -0.1201 -0.5629 -0.8912
  176SOPE  C31420081   4.546   3.416   9.191 -0.6402 -0.6188  0.1053
  176SOPE  H14X20082   4.435   3.414   9.185 -0.7668  0.8429  1.5456
  176SOPE  H14Y20083   4.573   3.380   9.090  0.2632 -1.0266  0.4882
  176SOPE  C31520084   4.602   3.552   9.219  1.2833 -0.5055 -0.4107
  176SOPE  H15X20085   4.713   3.543   9.228  1.3142  0.1584 -0.1058
  176SOPE  H15Y20086   4.556   3.591   9.312  0.8535 -1.5796 -0.1578
  176SOPE  C31620087   4.596   3.666   9.119  0.6685 -0.2295  0.4851
  176SOPE  H16X20088   4.653   3.759   9.142 -2.2358  1.1370  2.5215
  176SOPE  H16Y20089   4.491   3.701   9.103  0.4820 -2.1546 -3.1274
  176SOPE  C31720090   4.652   3.627   8.980  0.7191  1.2053  0.0196
  176SOPE  H17X20091   4.560   3.603   8.922 -0.2078  0.1852  1.8446
  176SOPE  H17Y20092   4.722   3.542   8.991 -0.1555  0.3905 -0.6189
  176SOPE  C31820093   4.710   3.748   8.911 -0.8906  0.0574  0.3645
  176SOPE  H18X20094   4.734   3.715   8.807  1.0807  3.4924 -0.3598
  176SOPE  H18Y20095   4.796   3.787   8.970 -1.0991  1.7662 -0.4227
  176SOPE  H18Z20096   4.642   3.836   8.913  0.4794  1.1581 -0.1464
  177SOPE     N20097   3.952   1.511  11.348  0.0184  0.5141 -0.4923
  177SOPE   HN120098   3.940   1.413  11.315  0.7747  0.2100  0.1068
  177SOPE   HN220099   4.047   1.525  11.389 -1.5337  0.0801  3.4272
  177SOPE   HN320100   3.892   1.531  11.430 -0.0908  0.4365 -0.5540
  177SOPE   C1220101   3.939   1.599  11.227 -1.2092 -0.2028 -0.9685
  177SOPE  H12A20102   4.002   1.557  11.146 -0.7678 -1.1020 -0.1685
  177SOPE  H12B20103   3.977   1.696  11.266  1.8857 -0.4207 -3.2341
  177SOPE   C1120104   3.796   1.600  11.159  0.1430  0.8447 -1.2249
  177SOPE  H11A20105   3.715   1.639  11.225  0.9013  0.0094  0.2165
  177SOPE  H11B20106   3.779   1.491  11.150  2.8556  0.3253 -0.3509
  177SOPE     P20107   3.799   1.820  11.018  0.1969  0.1357  0.2059
  177SOPE   O1320108   3.936   1.865  10.996 -0.1144  0.1961  0.1198
  177SOPE   O1420109   3.718   1.882  11.117  0.0768 -0.2538 -1.0462
  177SOPE   O1220110   3.797   1.664  11.032 -0.3103  0.4619 -0.3115
  177SOPE   O1120111   3.725   1.837  10.880  0.0535  0.5278 -0.1812
  177SOPE    C120112   3.618   1.749  10.844  0.4467 -0.4968  0.2153
  177SOPE    HA20113   3.536   1.801  10.790 -0.1500 -0.9593  0.6715
  177SOPE    HB20114   3.560   1.728  10.936  0.7829  0.1140  0.5693
  177SOPE    C220115   3.647   1.625  10.759 -0.7091  0.3274 -0.3646
  177SOPE    HS20116   3.729   1.561  10.800 -1.0148  0.1047 -0.0978
  177SOPE   O2120117   3.677   1.665  10.624 -0.1910  0.6337 -0.0607
  177SOPE   C2120118   3.796   1.689  10.588  0.0840  0.3549  0.1521
  177SOPE   O2220119   3.896   1.672  10.656  0.1761  0.0518 -0.6544
  177SOPE   C2220120   3.794   1.744  10.446  0.3344 -0.0789 -0.6532
  177SOPE   H2R20121   3.900   1.766  10.418 -0.6102  0.2029 -4.2148
  177SOPE   H2S20122   3.732   1.836  10.446  2.1582  1.1872  0.8591
  177SOPE    C320123   3.525   1.524  10.752  0.5209  0.4363  0.0616
  177SOPE    HX20124   3.438   1.584  10.719  1.4663  0.8629 -1.7116
  177SOPE    HY20125   3.485   1.486  10.849  0.4806 -3.7799 -1.4782
  177SOPE   O3120126   3.560   1.410  10.657 -0.1768 -0.6487 -0.7668
  177SOPE   C3120127   3.612   1.302  10.714  0.3609 -0.9503 -0.7736
  177SOPE   O3220128   3.614   1.279  10.835 -0.1843  0.0107 -0.4663
  177SOPE   C3220129   3.663   1.207  10.609 -0.0698 -0.5974 -0.2377
  177SOPE   H2X20130   3.576   1.186  10.543 -0.3438 -0.4539  0.0806
  177SOPE   H2Y20131   3.681   1.110  10.661 -3.8395 -0.1492  2.0433
  177SOPE   C2320132   3.746   1.644  10.334 -0.2856 -0.1786 -0.5101
  177SOPE   H3R20133   3.658   1.591  10.375  1.2775 -1.8502  0.7717
  177SOPE   H3S20134   3.826   1.567  10.325  1.5974  1.3289  2.4374
  177SOPE   C2420135   3.701   1.711  10.202  0.0135 -0.4099 -0.6154
  177SOPE   H4R20136   3.624   1.789  10.223 -0.0371 -0.1877 -1.6003
  177SOPE   H4S20137   3.796   1.749  10.158  0.2874  0.7461  0.9379
  177SOPE   C2520138   3.629   1.614  10.115  0.5189 -0.0311  0.0685
  177SOPE   H5R20139   3.682   1.516  10.118  0.7230  0.0516 -0.8795
  177SOPE   H5S20140   3.532   1.594  10.166  0.7799 -0.4815  0.3955
  177SOPE   C2620141   3.606   1.661   9.967  0.6934 -0.1963  0.0098
  177SOPE   H6R20142   3.569   1.765   9.976 -0.3367 -0.6215  0.7427
  177SOPE   H6S20143   3.706   1.675   9.919  1.4104 -1.0937  1.2169
  177SOPE   C2720144   3.509   1.568   9.885  0.6139  0.5541 -0.4509
  177SOPE   H7R20145   3.533   1.462   9.906 -0.1215  0.6850  1.1924
  177SOPE   H7S20146   3.409   1.589   9.930  0.6268 -0.4156  0.0613
  177SOPE   C2820147   3.500   1.595   9.740  0.3013  1.2287 -0.4712
  177SOPE   H8R20148   3.411   1.534   9.712  1.3497 -0.0569 -1.0576
  177SOPE   H8S20149   3.486   1.704   9.722  1.8683  1.6288  0.6133
  177SOPE   C2920150   3.627   1.553   9.665 -0.2134  0.5064 -0.4308
  177SOPE   H9120151   3.709   1.497   9.712 -1.0610 -0.3659  0.0344
  177SOPE  C21020152   3.629   1.577   9.529  0.3674  0.8133  0.0391
  177SOPE  H10120153   3.732   1.563   9.493  0.7634  2.5359  0.4528
  177SOPE  C21120154   3.527   1.651   9.446  0.0514 -0.8053 -0.5695
  177SOPE  H11R20155   3.544   1.760   9.458  2.8256 -1.1201 -1.2660
  177SOPE  H11S20156   3.419   1.641   9.470  0.7444 -2.6453  1.9539
  177SOPE  C21220157   3.540   1.641   9.292  0.0371  0.1028  0.9666
  177SOPE  H12R20158   3.445   1.673   9.245  1.8778  3.5410 -0.5715
  177SOPE  H12S20159   3.567   1.535   9.270 -0.3654 -0.2158  1.9550
  177SOPE  C21320160   3.638   1.741   9.229 -0.3727 -0.4591 -0.3439
  177SOPE  H13R20161   3.735   1.736   9.283 -0.1030 -1.2012 -0.8891
  177SOPE  H13S20162   3.604   1.846   9.242  4.1263  1.1705 -0.5859
  177SOPE  C21420163   3.643   1.712   9.077  0.3580  0.3364  0.0004
  177SOPE  H14R20164   3.537   1.710   9.045  0.6134 -1.4100 -0.7631
  177SOPE  H14S20165   3.668   1.606   9.054  0.0688  0.3535 -0.3870
  177SOPE  C21520166   3.734   1.801   8.996 -0.9888 -1.0105 -0.5169
  177SOPE  H15R20167   3.699   1.906   9.005 -1.3494 -1.0958 -0.9024
  177SOPE  H15S20168   3.712   1.786   8.888 -0.7742 -0.4146 -0.6477
  177SOPE  C21620169   3.876   1.772   9.046  0.3292  0.0329 -0.2231
  177SOPE  H16R20170   3.904   1.667   9.022  2.7053 -0.0415  2.5566
  177SOPE  H16S20171   3.890   1.783   9.155  0.3595  2.1603 -0.4291
  177SOPE  C21720172   3.984   1.867   8.990  0.0618 -0.2801 -0.0654
  177SOPE  H17R20173   4.086   1.848   9.031 -0.3135  1.2538  1.6363
  177SOPE  H17S20174   3.960   1.974   9.009 -1.0360 -0.7430  1.2398
  177SOPE  C21820175   4.011   1.851   8.837 -0.1051  0.0445 -0.3580
  177SOPE  H18R20176   3.922   1.890   8.784 -0.6121  0.7877  1.0299
  177SOPE  H18S20177   4.028   1.744   8.814 -0.2048  0.4500 -2.4151
  177SOPE  H18T20178   4.094   1.914   8.797 -1.4155  1.2864 -1.1719
  177SOPE   C3320179   3.785   1.262  10.527  0.1556  0.0150 -0.6767
  177SOPE   H3X20180   3.871   1.263  10.598 -0.3327 -1.7226 -0.0331
  177SOPE   H3Y20181   3.763   1.362  10.483 -2.6631 -0.6046 -0.7395
  177SOPE   C3420182   3.812   1.163  10.406 -0.2278  0.0540  0.5095
  177SOPE   H4X20183   3.765   1.065  10.427 -2.3047  0.0552 -3.7291
  177SOPE   H4Y20184   3.922   1.148  10.401  0.1369  2.1693  1.5726
  177SOPE   C3520185   3.748   1.189  10.270  0.2944 -0.0758 -0.2307
  177SOPE   H5X20186   3.736   1.298  10.253 -3.5806 -0.1367  1.3327
  177SOPE   H5Y20187   3.646   1.145  10.265  0.5568 -0.8172  0.8322
  177SOPE   C3620188   3.830   1.120  10.153  0.2883 -0.3029 -0.4916
  177SOPE   H6X20189   3.859   1.015  10.177 -1.0256 -0.7434 -0.7487
  177SOPE   H6Y20190   3.924   1.178  10.144 -0.4571  1.1605  1.0830
  177SOPE   C3720191   3.754   1.115  10.019  0.1568  0.0335 -0.2905
  177SOPE   H7X20192   3.696   1.209  10.008 -0.6487 -0.5616 -1.1781
  177SOPE   H7Y20193   3.667   1.047  10.025 -0.2329  0.5254 -0.2965
  177SOPE   C3820194   3.841   1.107   9.895  0.8017  0.1724  0.8703
  177SOPE   H8X20195   3.910   1.019   9.892  0.0059 -0.4326 -2.2558
  177SOPE   H8Y20196   3.915   1.189   9.890  0.8272  0.1436  0.7629
  177SOPE   C3920197   3.759   1.106   9.758  0.4120 -0.3029  0.1014
  177SOPE   H9X20198   3.704   1.201   9.777  2.1559  0.9176 -0.7694
  177SOPE   H9Y20199   3.682   1.026   9.757  1.0042 -0.8725 -0.5571
  177SOPE  C31020200   3.847   1.119   9.638 -0.4160  0.2200 -0.2297
  177SOPE  H10X20201   3.897   1.022   9.619  0.4286  0.4652  0.6932
  177SOPE  H10Y20202   3.916   1.206   9.648 -0.7268  0.7372 -2.3470
  177SOPE  C31120203   3.758   1.131   9.514  0.7594 -0.8880  0.1221
  177SOPE  H11X20204   3.686   1.215   9.522  0.5197 -1.3350  3.4774
  177SOPE  H11Y20205   3.705   1.034   9.503 -1.2964  0.0826  1.1148
  177SOPE  C31220206   3.848   1.142   9.391  0.2547  0.2864 -0.7241
  177SOPE  H12X20207   3.926   1.064   9.384  1.2397  1.0536  1.2470
  177SOPE  H12Y20208   3.900   1.240   9.386 -1.6826  1.4341  0.6026
  177SOPE  C31320209   3.768   1.139   9.260 -0.1482 -0.0229  0.2289
  177SOPE  H13X20210   3.692   1.220   9.265 -0.7582 -0.6734  1.9486
  177SOPE  H13Y20211   3.720   1.038   9.252 -0.6651  0.1379  1.2898
  177SOPE  C31420212   3.855   1.164   9.130 -0.5816 -0.5118 -0.3871
  177SOPE  H14X20213   3.938   1.091   9.141 -0.4222 -0.4274 -0.9988
  177SOPE  H14Y20214   3.892   1.269   9.129 -0.3741 -0.5897 -1.1532
  177SOPE  C31520215   3.773   1.141   8.999 -0.3998 -0.5981 -0.4627
  177SOPE  H15X20216   3.700   1.224   8.988  1.8384  1.5001  0.0699
  177SOPE  H15Y20217   3.716   1.046   9.003  0.4190 -1.1271 -1.2343
  177SOPE  C31620218   3.849   1.163   8.868 -0.0076 -0.3531 -0.5138
  177SOPE  H16X20219   3.938   1.099   8.889 -0.3789 -0.1334  1.9736
  177SOPE  H16Y20220   3.869   1.272   8.874 -4.4221  0.5262 -0.0858
  177SOPE  C31720221   3.779   1.128   8.737  0.1409 -0.2098  0.2684
  177SOPE  H17X20222   3.679   1.177   8.736  0.9997  1.5646 -0.9374
  177SOPE  H17Y20223   3.750   1.021   8.731  0.8407 -0.5240  2.0519
  177SOPE  C31820224   3.850   1.175   8.606 -0.5992  0.6823 -0.2983
  177SOPE  H18X20225   3.903   1.272   8.622  0.3540  0.4082 -1.6684
  177SOPE  H18Y20226   3.796   1.192   8.509  0.7653  0.4034 -1.1154
  177SOPE  H18Z20227   3.931   1.104   8.583 -2.2857 -1.1086 -0.8318
  178SOPE     N20228   0.777   6.476  11.051 -0.6897 -0.0271 -0.0077
  178SOPE   HN120229   0.772   6.383  11.006 -0.6175 -0.6241  1.1886
  178SOPE   HN220230   0.845   6.473  11.130  2.3330 -1.1582 -2.5536
  178SOPE   HN320231   0.682   6.488  11.091 -1.3946 -1.6486 -1.1733
  178SOPE   C1220232   0.802   6.587  10.951 -0.5613 -0.3901  0.7595
  178SOPE  H12A20233   0.911   6.603  10.936 -0.4346 -1.1644  0.8369
  178SOPE  H12B20234   0.753   6.677  10.993 -1.4193 -0.5474  0.1122
  178SOPE   C1120235   0.752   6.555  10.812 -0.0807  0.1500 -0.8706
  178SOPE  H11A20236   0.768   6.635  10.737  4.1047 -0.4051 -0.6598
  178SOPE  H11B20237   0.643   6.537  10.826  0.2096 -0.4464  0.7916
  178SOPE     P20238   0.956   6.430  10.704 -0.4519  0.0960  0.3636
  178SOPE   O1320239   0.984   6.292  10.664  0.0951  0.4789 -0.0167
  178SOPE   O1420240   1.062   6.502  10.785  0.1781 -0.1211 -0.3614
  178SOPE   O1220241   0.815   6.430  10.776 -0.1270  0.1613 -0.0176
  178SOPE   O1120242   0.926   6.507  10.576 -0.4415  0.6389  0.4241
  178SOPE    C120243   1.004   6.621  10.544  0.1219  0.6680 -0.0122
  178SOPE    HA20244   1.063   6.668  10.626  0.1995 -2.2647  1.6613
  178SOPE    HB20245   0.925   6.692  10.510 -2.7608 -0.7295  3.5276
  178SOPE    C220246   1.090   6.580  10.426  0.2805 -0.8360 -0.2151
  178SOPE    HS20247   1.037   6.511  10.357 -2.1996  1.1021 -0.3169
  178SOPE   O2120248   1.217   6.525  10.472 -0.3925  0.0091 -1.1549
  178SOPE   C2120249   1.257   6.418  10.399  0.4981  0.3008  0.2535
  178SOPE   O2220250   1.179   6.355  10.329  0.1398  0.0241  0.1674
  178SOPE   C2220251   1.410   6.396  10.391 -0.7146 -0.0915  0.1688
  178SOPE   H2R20252   1.440   6.356  10.490 -0.2476  0.4485  0.2506
  178SOPE   H2S20253   1.462   6.494  10.375  2.3010 -1.7900 -0.9290
  178SOPE    C320254   1.137   6.701  10.331 -0.0418 -0.2235  0.3308
  178SOPE    HX20255   1.205   6.761  10.395  0.4104  0.9753 -1.2690
  178SOPE    HY20256   1.043   6.756  10.312  0.3655 -0.0699 -1.2702
  178SOPE   O3120257   1.186   6.661  10.204 -0.0080  0.4369 -0.2985
  178SOPE   C3120258   1.268   6.746  10.142  0.5402 -0.3869 -0.1211
  178SOPE   O3220259   1.295   6.858  10.179  0.3253 -0.0783 -0.1405
  178SOPE   C3220260   1.308   6.690  10.006 -0.1590 -0.1392 -0.8187
  178SOPE   H2X20261   1.346   6.586  10.017 -0.9005 -0.2921  0.4325
  178SOPE   H2Y20262   1.398   6.753   9.988 -0.9455  0.8220 -1.3934
  178SOPE   C2320263   1.471   6.301  10.285  0.7085  0.0766  0.3131
  178SOPE   H3R20264   1.408   6.210  10.292  0.0791  0.4777 -0.1096
  178SOPE   H3S20265   1.578   6.275  10.302  0.6221 -0.2530  0.3554
  178SOPE   C2420266   1.458   6.353  10.149  0.1989  0.0251  0.8515
  178SOPE   H4R20267   1.356   6.396  10.138  0.3033 -0.0128 -0.3443
  178SOPE   H4S20268   1.532   6.434  10.130 -0.1937 -0.4161 -2.9917
  178SOPE   C2520269   1.473   6.243  10.044 -0.1475 -0.2211  0.2518
  178SOPE   H5R20270   1.579   6.215  10.032 -0.0211 -0.2266  1.3011
  178SOPE   H5S20271   1.419   6.148  10.065  0.2783 -0.5207 -0.0273
  178SOPE   C2620272   1.419   6.285   9.903 -0.1046  0.3315  0.9899
  178SOPE   H6R20273   1.357   6.205   9.857  2.0631 -0.1551 -1.1816
  178SOPE   H6S20274   1.351   6.372   9.911  0.2299  0.6688  0.0858
  178SOPE   C2720275   1.547   6.293   9.814  0.8358  0.3594 -0.0229
  178SOPE   H7R20276   1.633   6.357   9.842  1.0920  0.5156 -1.1445
  178SOPE   H7S20277   1.583   6.188   9.811 -0.3634 -0.0825  0.8820
  178SOPE   C2820278   1.511   6.347   9.672  0.1438 -0.2574  0.1183
  178SOPE   H8R20279   1.417   6.297   9.641  1.1091 -2.9600  1.3325
  178SOPE   H8S20280   1.499   6.457   9.685  2.0529  0.1130 -0.9737
  178SOPE   C2920281   1.616   6.322   9.567 -0.1164 -0.1250 -0.5834
  178SOPE   H9120282   1.713   6.370   9.585 -0.4554  0.2692  0.2044
  178SOPE  C21020283   1.610   6.226   9.478 -0.8717 -0.1222 -0.4698
  178SOPE  H10120284   1.686   6.238   9.399 -1.4863  2.1171 -0.7469
  178SOPE  C21120285   1.512   6.122   9.446 -0.1821  0.4844 -0.0970
  178SOPE  H11R20286   1.454   6.090   9.535  0.8542  0.1935  0.4662
  178SOPE  H11S20287   1.553   6.033   9.395 -1.7144 -0.8243  0.9184
  178SOPE  C21220288   1.412   6.179   9.346 -0.2828 -0.0072  0.2677
  178SOPE  H12R20289   1.365   6.272   9.383 -0.5024 -0.1202  0.2714
  178SOPE  H12S20290   1.329   6.105   9.348  0.9279 -1.4203 -0.4120
  178SOPE  C21320291   1.467   6.181   9.207 -0.2724 -0.1645  0.2414
  178SOPE  H13R20292   1.539   6.097   9.192  0.1043  0.4939 -1.7948
  178SOPE  H13S20293   1.521   6.276   9.186  0.8606  0.2054  4.4258
  178SOPE  C21420294   1.357   6.157   9.105 -0.3545 -0.3803  0.2073
  178SOPE  H14R20295   1.273   6.215   9.149  2.1221  1.3126  2.9611
  178SOPE  H14S20296   1.319   6.053   9.103 -2.8166  0.4731  1.2513
  178SOPE  C21520297   1.379   6.202   8.958 -0.0728  0.5646 -0.7196
  178SOPE  H15R20298   1.415   6.308   8.958  1.1752  0.1511 -0.5210
  178SOPE  H15S20299   1.288   6.190   8.896 -2.0155  1.6569  1.8234
  178SOPE  C21620300   1.488   6.120   8.892  0.3592 -0.9691  0.3245
  178SOPE  H16R20301   1.455   6.014   8.902 -0.1331 -0.8973 -0.5362
  178SOPE  H16S20302   1.584   6.139   8.945 -0.2254  0.2260  0.9683
  178SOPE  C21720303   1.492   6.153   8.740  0.1331  0.1186 -1.6246
  178SOPE  H17R20304   1.388   6.153   8.702  0.3985  1.1140 -2.3682
  178SOPE  H17S20305   1.550   6.074   8.689  2.8012  1.1244 -0.2493
  178SOPE  C21820306   1.560   6.290   8.707  0.1234 -0.4532  0.0596
  178SOPE  H18R20307   1.666   6.284   8.741  0.1494 -2.7551 -0.3284
  178SOPE  H18S20308   1.516   6.372   8.768 -0.0837  0.2030 -0.9516
  178SOPE  H18T20309   1.562   6.310   8.598  0.5094  0.6468  0.2633
  178SOPE   C3320310   1.209   6.700   9.891 -0.2631  0.0778  0.1996
  178SOPE   H3X20311   1.178   6.806   9.902 -0.9524 -0.0816 -0.1918
  178SOPE   H3Y20312   1.120   6.635   9.906 -0.5891  0.0612 -1.7145
  178SOPE   C3420313   1.271   6.671   9.758 -0.1569  0.0243  0.6207
  178SOPE   H4X20314   1.308   6.566   9.760  1.4109  0.5705  0.5768
  178SOPE   H4Y20315   1.362   6.729   9.733 -1.4150  1.6375 -0.4057
  178SOPE   C3520316   1.173   6.685   9.638 -0.4311  0.5569  0.5439
  178SOPE   H5X20317   1.131   6.787   9.624  0.0115  0.2904 -3.2633
  178SOPE   H5Y20318   1.089   6.619   9.670 -1.1262  2.0699  1.8557
  178SOPE   C3620319   1.240   6.642   9.503  0.3263  1.2146  0.3995
  178SOPE   H6X20320   1.287   6.546   9.531  1.9565  1.7515 -0.3733
  178SOPE   H6Y20321   1.316   6.722   9.485  1.5142 -0.4849 -2.5467
  178SOPE   C3720322   1.136   6.635   9.389 -0.0497  0.1969  0.3529
  178SOPE   H7X20323   1.119   6.739   9.356 -0.9737  0.2635  1.0231
  178SOPE   H7Y20324   1.041   6.591   9.428  0.1579 -0.4558  0.1266
  178SOPE   C3820325   1.172   6.547   9.267 -0.0211 -0.3807  0.4409
  178SOPE   H8X20326   1.149   6.440   9.288 -1.6509  0.3964  2.8239
  178SOPE   H8Y20327   1.281   6.557   9.250 -0.2782  2.8730  0.4322
  178SOPE   C3920328   1.105   6.582   9.132 -0.1320  0.4274  0.4173
  178SOPE   H9X20329   1.125   6.689   9.106 -0.7822  0.2249 -0.9746
  178SOPE   H9Y20330   0.995   6.565   9.137  0.0826 -1.7847 -1.4044
  178SOPE  C31020331   1.163   6.508   9.010  0.5758 -0.1061 -0.1495
  178SOPE  H10X20332   1.192   6.402   9.030  1.7945 -0.0543 -1.5934
  178SOPE  H10Y20333   1.255   6.555   8.971  1.3265 -0.0859  1.6192
  178SOPE  C31120334   1.071   6.512   8.879  0.2494 -0.8868  0.1673
  178SOPE  H11X20335   1.038   6.618   8.870 -0.2312 -1.0592 -0.1191
  178SOPE  H11Y20336   0.974   6.469   8.912 -0.4387 -0.3463 -1.1126
  178SOPE  C31220337   1.130   6.464   8.745  0.6388 -0.3420  0.2014
  178SOPE  H12X20338   1.059   6.451   8.660  1.7696 -2.2928 -0.4560
  178SOPE  H12Y20339   1.170   6.362   8.763  2.0591 -0.1264 -1.6546
  178SOPE  C31320340   1.250   6.558   8.699  0.8306 -0.4946  0.2564
  178SOPE  H13X20341   1.324   6.558   8.781  2.6726 -0.4942 -1.3739
  178SOPE  H13Y20342   1.199   6.656   8.686  1.8231  0.3563  2.5950
  178SOPE  C31420343   1.316   6.507   8.567 -0.0561  0.0454  0.0352
  178SOPE  H14X20344   1.239   6.491   8.488 -0.7028 -1.3680  0.9204
  178SOPE  H14Y20345   1.370   6.411   8.581  2.5051  1.2550 -1.2047
  178SOPE  C31520346   1.416   6.612   8.516  0.2210  0.1775  0.1357
  178SOPE  H15X20347   1.492   6.629   8.596  1.0476  1.4517 -0.8975
  178SOPE  H15Y20348   1.369   6.711   8.495 -1.2963 -0.3820  0.8701
  178SOPE  C31620349   1.477   6.575   8.382 -0.2414 -0.6342  0.3025
  178SOPE  H16X20350   1.403   6.515   8.325 -0.4418  0.1131 -0.2397
  178SOPE  H16Y20351   1.556   6.502   8.406 -0.0709 -1.1381 -1.6882
  178SOPE  C31720352   1.534   6.702   8.312 -0.0453 -0.1784 -0.3774
  178SOPE  H17X20353   1.457   6.780   8.294 -0.4396  0.0672  2.1969
  178SOPE  H17Y20354   1.579   6.653   8.223  0.4093 -2.9131  1.2815
  178SOPE  C31820355   1.641   6.771   8.393 -0.1383 -0.4392  0.2596
  178SOPE  H18X20356   1.675   6.861   8.337 -0.0872 -0.6243 -0.0045
  178SOPE  H18Y20357   1.728   6.702   8.398  1.5930  1.4997 -1.6952
  178SOPE  H18Z20358   1.603   6.807   8.491  2.5815  2.6212  0.2864
  179SOPE     N20359   0.176   0.857   6.217  0.3104  0.0664  0.9291
  179SOPE   HN120360   0.088   0.801   6.216  0.5188 -0.2781 -1.1788
  179SOPE   HN220361   0.151   0.957   6.228  0.5845  0.2224  0.1523
  179SOPE   HN320362   0.232   0.838   6.131 -0.1816  0.8555  0.4353
  179SOPE   C1220363   0.257   0.812   6.335 -0.8208  0.0531  0.6003
  179SOPE  H12A20364   0.362   0.841   6.311 -1.6027  1.0888 -1.7516
  179SOPE  H12B20365   0.270   0.701   6.333  1.8254  0.3225  1.4029
  179SOPE   C1120366   0.208   0.864   6.469  0.3007 -0.0720 -0.5175
  179SOPE  H11A20367   0.229   0.973   6.465 -1.9396  0.4046  0.1282
  179SOPE  H11B20368   0.270   0.828   6.553  1.4865  0.0840 -1.3101
  179SOPE     P20369   0.001   0.729   6.576  0.0653 -0.4254  0.0492
  179SOPE   O1320370   0.059   0.598   6.536 -0.4892  0.1557 -0.3088
  179SOPE   O1420371  -0.146   0.752   6.567  0.0955  0.0804 -0.0371
  179SOPE   O1220372   0.068   0.837   6.471 -0.0435 -0.0018  0.2446
  179SOPE   O1120373   0.046   0.768   6.726 -0.1618 -0.0705  0.2036
  179SOPE    C120374   0.058   0.910   6.756  0.0480  0.4021  0.3224
  179SOPE    HA20375  -0.039   0.960   6.736  0.2062  0.5844  0.0069
  179SOPE    HB20376   0.136   0.959   6.693  1.3971 -1.0572  0.8214
  179SOPE    C220377   0.106   0.932   6.900 -0.6001 -0.0139 -0.1338
  179SOPE    HS20378   0.214   0.906   6.894 -0.8093 -1.0891  0.6949
  179SOPE   O2120379   0.032   0.850   6.999 -0.1910 -0.0453 -0.5213
  179SOPE   C2120380   0.113   0.764   7.065 -0.3346 -1.1292 -0.5375
  179SOPE   O2220381   0.232   0.749   7.036 -0.1136  0.7255  0.3474
  179SOPE   C2220382   0.035   0.689   7.173 -0.8234  0.3147  0.4487
  179SOPE   H2R20383   0.006   0.584   7.154 -0.7769  0.5388 -0.8869
  179SOPE   H2S20384  -0.063   0.740   7.181 -2.4472 -2.8320  1.3895
  179SOPE    C320385   0.106   1.084   6.935  0.5772 -0.6215 -0.6623
  179SOPE    HX20386   0.004   1.116   6.904  1.2869  0.7444 -1.6114
  179SOPE    HY20387   0.180   1.140   6.874 -2.1038  2.5054 -1.1754
  179SOPE   O3120388   0.121   1.102   7.075  0.1635 -0.3058  0.1558
  179SOPE   C3120389   0.246   1.125   7.118  0.4625 -0.2634 -0.5758
  179SOPE   O3220390   0.345   1.120   7.045  0.0107  0.0837 -0.1797
  179SOPE   C3220391   0.238   1.163   7.266  0.4643  0.0751 -0.0443
  179SOPE   H2X20392   0.195   1.069   7.309  0.4756  0.3242  0.5137
  179SOPE   H2Y20393   0.159   1.238   7.289  0.2447  0.5496 -2.2585
  179SOPE   C2320394   0.106   0.698   7.309  0.0038 -0.3631  0.1875
  179SOPE   H3R20395   0.200   0.758   7.314  0.5453 -1.0850 -1.0034
  179SOPE   H3S20396   0.148   0.598   7.331 -0.2485 -0.0872  1.9420
  179SOPE   C2420397   0.014   0.751   7.422  0.1663  0.0524 -0.1205
  179SOPE   H4R20398  -0.031   0.847   7.386 -1.3376 -1.0054 -1.1208
  179SOPE   H4S20399  -0.061   0.678   7.456 -0.0810  0.6195  0.5640
  179SOPE   C2520400   0.100   0.798   7.536  0.0660  0.5978 -0.4606
  179SOPE   H5R20401   0.156   0.717   7.588 -1.0227  0.5634  0.7137
  179SOPE   H5S20402   0.164   0.881   7.501 -0.8834  1.6654  0.2626
  179SOPE   C2620403   0.028   0.872   7.644 -0.0203  0.7250  0.3506
  179SOPE   H6R20404   0.081   0.885   7.741 -1.9536 -3.4962  2.1102
  179SOPE   H6S20405   0.002   0.972   7.604 -0.3674  0.3170 -0.4620
  179SOPE   C2720406  -0.095   0.800   7.696  0.1918 -0.1395  0.4228
  179SOPE   H7R20407  -0.151   0.769   7.605  0.1263 -0.5951  0.6196
  179SOPE   H7S20408  -0.074   0.703   7.747 -1.0116  0.1420  1.4473
  179SOPE   C2820409  -0.193   0.893   7.777 -0.0252  0.0367 -0.4003
  179SOPE   H8R20410  -0.232   0.975   7.713 -0.5944  0.5986  0.6436
  179SOPE   H8S20411  -0.274   0.820   7.793 -0.2901  0.8119  1.9564
  179SOPE   C2920412  -0.136   0.951   7.908  0.2555  0.1086 -0.4075
  179SOPE   H9120413  -0.045   1.009   7.888 -0.5330  0.9053 -1.7959
  179SOPE  C21020414  -0.182   0.956   8.034  0.8881 -0.7975 -0.3385
  179SOPE  H10120415  -0.125   1.004   8.115 -0.4810 -1.5049  1.0707
  179SOPE  C21120416  -0.319   0.896   8.072  0.7138 -0.1227 -0.1268
  179SOPE  H11R20417  -0.331   0.866   8.178  0.0334  0.2595 -0.0892
  179SOPE  H11S20418  -0.334   0.805   8.010  0.8227 -0.5361  0.4542
  179SOPE  C21220419  -0.428   1.002   8.041  0.1746 -0.1523  0.5676
  179SOPE  H12R20420  -0.469   0.975   7.941 -2.1115 -1.1758  1.7429
  179SOPE  H12S20421  -0.404   1.110   8.043  1.9314 -0.5279  0.3751
  179SOPE  C21320422  -0.549   0.985   8.136  0.1401 -0.1665  0.3939
  179SOPE  H13R20423  -0.621   1.067   8.120 -0.6340 -1.5266 -3.9210
  179SOPE  H13S20424  -0.507   0.995   8.238 -0.5184  0.5648  0.5944
  179SOPE  C21420425  -0.630   0.848   8.129 -0.3025  0.0861  0.7107
  179SOPE  H14R20426  -0.555   0.767   8.135 -0.2062 -0.0086 -1.4669
  179SOPE  H14S20427  -0.673   0.838   8.027 -2.5109  3.6668  1.1752
  179SOPE  C21520428  -0.750   0.834   8.226 -0.5937 -0.3710 -0.4484
  179SOPE  H15R20429  -0.847   0.884   8.202 -0.6765 -0.8750 -1.1647
  179SOPE  H15S20430  -0.718   0.877   8.323  1.0523  1.5917 -1.8356
  179SOPE  C21620431  -0.785   0.687   8.269  0.2079 -0.0725 -0.2511
  179SOPE  H16R20432  -0.687   0.634   8.272  2.6117  4.1575  0.3571
  179SOPE  H16S20433  -0.842   0.637   8.188 -0.9987 -0.9333  1.1029
  179SOPE  C21720434  -0.876   0.680   8.396  0.3229  0.1015  0.3279
  179SOPE  H17R20435  -0.968   0.739   8.375  1.3686  1.6384  0.0050
  179SOPE  H17S20436  -0.826   0.736   8.478  0.5039  1.3140 -0.6097
  179SOPE  C21820437  -0.914   0.544   8.447 -0.3814 -0.2652  0.0854
  179SOPE  H18R20438  -0.826   0.494   8.494 -1.4850 -1.8846  0.4605
  179SOPE  H18S20439  -0.948   0.471   8.371  1.0436 -1.3946  0.5157
  179SOPE  H18T20440  -0.986   0.554   8.532  0.3616  1.2668  0.5574
  179SOPE   C3320441   0.374   1.188   7.326 -0.1313  0.1958 -0.7391
  179SOPE   H3X20442   0.364   1.282   7.384  0.4072  0.6239 -1.3424
  179SOPE   H3Y20443   0.451   1.194   7.246  0.3390 -0.4530 -0.3383
  179SOPE   C3420444   0.418   1.079   7.418  0.4336 -0.2600  0.4647
  179SOPE   H4X20445   0.526   1.099   7.436  0.8081 -1.7419 -0.1047
  179SOPE   H4Y20446   0.400   0.983   7.367 -1.6162 -0.0305  0.7152
  179SOPE   C3520447   0.351   1.076   7.559 -0.5232 -0.1718  0.2596
  179SOPE   H5X20448   0.369   0.978   7.608 -0.8564 -0.5619 -0.3965
  179SOPE   H5Y20449   0.241   1.089   7.551 -0.6159  0.0596  1.8178
  179SOPE   C3620450   0.395   1.189   7.662  0.1117 -0.1130  0.5197
  179SOPE   H6X20451   0.371   1.283   7.607 -2.1387  0.9825  3.2186
  179SOPE   H6Y20452   0.501   1.167   7.689  0.0431  0.5390  1.3507
  179SOPE   C3720453   0.329   1.194   7.797  0.5325 -0.2274 -0.0639
  179SOPE   H7X20454   0.230   1.238   7.776 -0.9486 -3.4085 -0.1272
  179SOPE   H7Y20455   0.385   1.270   7.856 -0.2084  0.4630 -0.2467
  179SOPE   C3820456   0.331   1.074   7.883  0.3362  0.7177  0.5582
  179SOPE   H8X20457   0.428   1.019   7.879 -0.6018 -1.0790  1.4951
  179SOPE   H8Y20458   0.262   0.999   7.836  0.6782  0.8138 -0.1010
  179SOPE   C3920459   0.278   1.085   8.023 -0.2918  0.1332 -0.0044
  179SOPE   H9X20460   0.177   1.129   8.027 -1.1339 -1.6674 -0.9220
  179SOPE   H9Y20461   0.348   1.155   8.074  3.7567 -2.7022 -1.3654
  179SOPE  C31020462   0.289   0.957   8.102 -0.1824  0.0169 -0.4274
  179SOPE  H10X20463   0.396   0.928   8.091 -0.3850 -0.3331 -1.5786
  179SOPE  H10Y20464   0.230   0.880   8.048  1.1348  0.3332 -2.3637
  179SOPE  C31120465   0.246   0.975   8.244 -0.4366  0.1969 -0.1061
  179SOPE  H11X20466   0.156   1.038   8.252  1.0037  2.2887  0.0166
  179SOPE  H11Y20467   0.327   1.035   8.292 -1.6244  1.0062  0.9011
  179SOPE  C31220468   0.228   0.841   8.321  0.1275 -0.1215  0.6258
  179SOPE  H12X20469   0.321   0.783   8.305 -0.2679 -0.7251  0.4406
  179SOPE  H12Y20470   0.148   0.788   8.264  0.7700  0.1285 -0.5191
  179SOPE  C31320471   0.194   0.849   8.470 -0.0250 -0.3373  0.2129
  179SOPE  H13X20472   0.105   0.915   8.477 -0.7276 -1.4436  2.0577
  179SOPE  H13Y20473   0.280   0.902   8.515 -0.0564  0.1900 -0.3341
  179SOPE  C31420474   0.167   0.722   8.540  0.1032 -0.0995  0.3176
  179SOPE  H14X20475   0.078   0.680   8.489  2.1074 -1.5714 -2.0735
  179SOPE  H14Y20476   0.152   0.739   8.648 -2.8810 -0.1189 -0.0496
  179SOPE  C31520477   0.283   0.615   8.523  0.1219 -0.2410  0.1054
  179SOPE  H15X20478   0.382   0.662   8.507 -0.2539  1.4047  2.3854
  179SOPE  H15Y20479   0.257   0.564   8.428  1.0477  0.5602 -0.5913
  179SOPE  C31620480   0.267   0.509   8.627  0.8289 -0.2081  0.1596
  179SOPE  H16X20481   0.158   0.497   8.647 -0.2330  3.6613 -2.7981
  179SOPE  H16Y20482   0.320   0.531   8.722  2.5904 -1.6893 -0.4520
  179SOPE  C31720483   0.323   0.372   8.592 -0.4168 -0.0275 -0.1794
  179SOPE  H17X20484   0.246   0.329   8.524  0.1039 -2.1556  0.5452
  179SOPE  H17Y20485   0.326   0.304   8.680  0.2332 -0.1530 -0.2979
  179SOPE  C31820486   0.459   0.386   8.518 -0.3716 -0.7978 -0.0934
  179SOPE  H18X20487   0.497   0.283   8.505  1.7307 -0.2839  1.7183
  179SOPE  H18Y20488   0.537   0.429   8.584  0.6986 -1.8737 -0.6425
  179SOPE  H18Z20489   0.451   0.447   8.426 -3.8632 -1.3266 -0.2305
  180SOPE     N20490   5.652   0.936   6.215  0.0090 -0.1846  0.6608
  180SOPE   HN120491   5.571   0.906   6.158 -0.0767  0.5561  0.3939
  180SOPE   HN220492   5.638   1.033   6.249  2.7226 -0.2336  2.0656
  180SOPE   HN320493   5.737   0.952   6.157  0.4400  1.2744  1.6674
  180SOPE   C1220494   5.660   0.845   6.330  0.6467  0.9443 -0.3161
  180SOPE  H12A20495   5.562   0.822   6.376  1.8694 -1.0597  1.3863
  180SOPE  H12B20496   5.714   0.894   6.415 -2.8336  0.1874  2.4344
  180SOPE   C1120497   5.715   0.709   6.283 -0.3967  0.8450 -0.5197
  180SOPE  H11A20498   5.639   0.679   6.207  0.7585  0.5972 -1.6117
  180SOPE  H11B20499   5.715   0.630   6.361 -0.8899  2.8187  1.5122
  180SOPE     P20500   5.950   0.626   6.218 -0.2576 -0.2626 -0.1757
  180SOPE   O1320501   6.075   0.680   6.167 -0.1080  0.3717 -0.3540
  180SOPE   O1420502   5.894   0.507   6.150 -0.6687  0.9550 -0.3516
  180SOPE   O1220503   5.839   0.731   6.213  0.3979 -0.7764  0.2998
  180SOPE   O1120504   5.962   0.606   6.373  0.0955 -0.6728 -0.1164
  180SOPE    C120505   6.025   0.718   6.436 -0.3835 -0.2229 -0.7559
  180SOPE    HA20506   5.986   0.813   6.394  0.2196 -0.6108 -2.2185
  180SOPE    HB20507   6.133   0.720   6.410  0.3088  3.0053  1.9272
  180SOPE    C220508   6.010   0.723   6.595 -0.6733  0.0815  1.0377
  180SOPE    HS20509   6.097   0.785   6.627  0.5001 -0.5976 -0.7447
  180SOPE   O2120510   6.027   0.592   6.644 -0.1802 -0.0148 -0.0036
  180SOPE   C2120511   6.145   0.538   6.630 -0.5371  0.0445  0.7236
  180SOPE   O2220512   6.245   0.594   6.588  0.3119  0.1391 -0.0472
  180SOPE   C2220513   6.150   0.400   6.685  0.1283 -0.0902  0.0397
  180SOPE   H2R20514   6.225   0.342   6.627  0.0395 -1.4468  1.2550
  180SOPE   H2S20515   6.054   0.356   6.652  0.6072 -2.0301  1.1423
  180SOPE    C320516   5.879   0.782   6.654  0.2128  0.1692  0.5874
  180SOPE    HX20517   5.793   0.717   6.628 -0.2877  0.9521  0.2670
  180SOPE    HY20518   5.878   0.881   6.604  0.6036  0.2585  0.7539
  180SOPE   O3120519   5.888   0.799   6.793  0.0627 -0.5146  0.8254
  180SOPE   C3120520   5.795   0.858   6.858  0.0176 -0.6450  0.0817
  180SOPE   O3220521   5.698   0.914   6.812 -0.0986  0.0657 -0.4404
  180SOPE   C3220522   5.828   0.835   7.003 -0.4790  0.3603 -0.5054
  180SOPE   H2X20523   5.924   0.889   7.019  0.3470 -0.7364 -1.6967
  180SOPE   H2Y20524   5.846   0.728   7.026 -0.7883  0.7050  1.4698
  180SOPE   C2320525   6.194   0.387   6.828  0.1153  0.2196  0.5573
  180SOPE   H3R20526   6.132   0.450   6.896 -1.7433 -1.3346  0.3735
  180SOPE   H3S20527   6.294   0.424   6.857 -0.7216  0.0813  3.8161
  180SOPE   C2420528   6.141   0.249   6.885  0.2433  1.0763  0.0157
  180SOPE   H4R20529   6.069   0.215   6.808 -0.0976  2.6731 -0.3741
  180SOPE   H4S20530   6.227   0.179   6.896 -0.9233 -0.0949  2.1792
  180SOPE   C2520531   6.055   0.243   7.012  0.5147 -0.1475  0.3704
  180SOPE   H5R20532   6.123   0.266   7.096 -2.5388 -0.5669  3.0439
  180SOPE   H5S20533   5.982   0.326   7.016  0.0478 -0.4760 -0.9047
  180SOPE   C2620534   5.996   0.111   7.033  0.2229  0.5157  0.2445
  180SOPE   H6R20535   5.927   0.087   6.950  0.4658  1.8161 -0.3398
  180SOPE   H6S20536   6.074   0.032   7.034  1.2274  1.4725 -0.7459
  180SOPE   C2720537   5.903   0.102   7.158 -0.0726  0.4590  0.7680
  180SOPE   H7R20538   5.817   0.170   7.138 -0.6772 -0.3461  0.5771
  180SOPE   H7S20539   5.865  -0.003   7.160 -0.3359  0.5217 -0.2576
  180SOPE   C2820540   5.967   0.127   7.300 -0.5488 -0.0792  0.5343
  180SOPE   H8R20541   6.047   0.049   7.306 -0.7764 -0.2472  1.3597
  180SOPE   H8S20542   5.996   0.233   7.283 -1.4636 -0.2230 -2.2371
  180SOPE   C2920543   5.867   0.124   7.414  0.1051 -0.2065  0.2422
  180SOPE   H9120544   5.782   0.190   7.390 -0.0520 -0.5689 -0.2088
  180SOPE  C21020545   5.879   0.062   7.531 -0.2566  0.7434 -0.5683
  180SOPE  H10120546   5.805   0.075   7.612  0.9721 -0.6124  0.7971
  180SOPE  C21120547   6.001  -0.021   7.563  0.4162 -0.0434 -0.2474
  180SOPE  H11R20548   6.093   0.017   7.513  0.6395 -0.4874 -0.1750
  180SOPE  H11S20549   5.980  -0.126   7.535 -0.4869  0.4878 -1.5963
  180SOPE  C21220550   6.045  -0.017   7.711 -0.3268  0.2817 -0.0899
  180SOPE  H12R20551   6.032   0.087   7.749  3.1689  0.5628  0.5158
  180SOPE  H12S20552   6.153  -0.041   7.721 -0.4271 -0.9416 -1.7633
  180SOPE  C21320553   5.962  -0.134   7.786  0.1616  0.0255 -0.4210
  180SOPE  H13R20554   5.981  -0.236   7.744  0.7733 -0.6229  1.3958
  180SOPE  H13S20555   5.856  -0.121   7.756  0.1920 -1.1505 -1.0892
  180SOPE  C21420556   5.974  -0.123   7.935 -0.0829 -0.0783  0.2005
  180SOPE  H14R20557   5.922  -0.033   7.975  0.6867 -0.5106  2.2804
  180SOPE  H14S20558   6.081  -0.107   7.961  0.3935 -0.6861 -1.3752
  180SOPE  C21520559   5.902  -0.241   8.005 -0.4997 -0.0071  0.1689
  180SOPE  H15R20560   5.948  -0.338   7.977  0.0668  0.5354 -0.7833
  180SOPE  H15S20561   5.802  -0.244   7.958  0.0645 -1.3905 -0.9760
  180SOPE  C21620562   5.891  -0.228   8.160 -1.0501  0.2760 -0.3186
  180SOPE  H16R20563   5.862  -0.127   8.196  0.4275  1.1429 -1.5315
  180SOPE  H16S20564   5.992  -0.248   8.203 -1.2110 -1.1471 -0.5935
  180SOPE  C21720565   5.799  -0.330   8.220 -0.0277  0.7445  0.4874
  180SOPE  H17R20566   5.796  -0.417   8.150 -0.9066  0.8869  0.3430
  180SOPE  H17S20567   5.695  -0.294   8.204  0.0092  0.6215 -0.0585
  180SOPE  C21820568   5.834  -0.362   8.365  0.3248  0.6727  0.0633
  180SOPE  H18R20569   5.823  -0.278   8.436  3.1865 -0.3613  1.8227
  180SOPE  H18S20570   5.941  -0.392   8.365  0.8814  2.5551  1.1565
  180SOPE  H18T20571   5.775  -0.446   8.408 -0.1665  1.1654  0.3543
  180SOPE   C3320572   5.716   0.886   7.093  0.3437 -0.4529  0.7205
  180SOPE   H3X20573   5.633   0.813   7.089  0.3550 -0.4182 -0.4923
  180SOPE   H3Y20574   5.690   0.985   7.048  0.4736 -1.2995 -1.2741
  180SOPE   C3420575   5.762   0.901   7.239 -0.6588 -0.0931  0.0435
  180SOPE   H4X20576   5.788   0.801   7.280 -1.3676 -0.8255 -1.2476
  180SOPE   H4Y20577   5.684   0.941   7.308  1.6478  2.1483  1.4322
  180SOPE   C3520578   5.872   0.997   7.261 -0.6234 -0.0279 -0.0259
  180SOPE   H5X20579   5.846   1.097   7.221 -0.9710  0.1184  0.5603
  180SOPE   H5Y20580   5.960   0.970   7.200 -0.7132 -0.4022  0.0113
  180SOPE   C3620581   5.910   1.009   7.408 -1.0595  0.4881  0.1207
  180SOPE   H6X20582   5.949   0.912   7.444 -1.6392  0.5905  1.0214
  180SOPE   H6Y20583   5.830   1.038   7.478 -1.8030  0.5017 -0.7258
  180SOPE   C3720584   6.031   1.104   7.428 -0.2924  0.0255  0.8945
  180SOPE   H7X20585   5.986   1.204   7.411 -0.1768  0.2078  1.6501
  180SOPE   H7Y20586   6.112   1.076   7.357 -0.4792 -2.1965  1.5432
  180SOPE   C3820587   6.076   1.105   7.568  0.2866 -0.0175  0.5772
  180SOPE   H8X20588   6.130   1.009   7.578  0.0236 -0.2389 -0.0945
  180SOPE   H8Y20589   5.989   1.110   7.638 -0.4260  1.1717 -0.3673
  180SOPE   C3920590   6.171   1.219   7.611  0.0244  0.1792 -0.1781
  180SOPE   H9X20591   6.136   1.318   7.575 -1.7453 -0.5203 -0.4700
  180SOPE   H9Y20592   6.271   1.193   7.572  0.4334 -1.4875  1.8598
  180SOPE  C31020593   6.182   1.206   7.763  0.0303  0.3386 -0.3114
  180SOPE  H10X20594   6.266   1.268   7.802  0.7566 -2.4228  2.7821
  180SOPE  H10Y20595   6.208   1.098   7.770 -0.2933  0.2670 -0.2011
  180SOPE  C31120596   6.056   1.248   7.845  0.3849  0.5386 -0.3116
  180SOPE  H11X20597   5.990   1.159   7.842  2.6768 -1.2588  1.0245
  180SOPE  H11Y20598   5.998   1.325   7.790 -1.0771 -0.3059  0.0007
  180SOPE  C31220599   6.090   1.297   7.981  0.5197  0.3096  0.4220
  180SOPE  H12X20600   6.109   1.405   7.967  0.7483  0.4643  1.9175
  180SOPE  H12Y20601   6.178   1.245   8.026  0.3371 -0.3736 -0.0081
  180SOPE  C31320602   5.971   1.307   8.077  0.2914 -0.6615 -0.2236
  180SOPE  H13X20603   5.941   1.205   8.107 -1.4633 -0.0875  0.0348
  180SOPE  H13Y20604   5.887   1.348   8.017  0.5901  1.3001  0.6306
  180SOPE  C31420605   6.004   1.379   8.210  0.9287 -0.3656  0.3274
  180SOPE  H14X20606   6.052   1.304   8.276  0.2857 -1.9891 -1.0105
  180SOPE  H14Y20607   5.904   1.405   8.250  0.5575  0.2268 -0.9431
  180SOPE  C31520608   6.078   1.512   8.207  0.5149  1.0977 -0.7532
  180SOPE  H15X20609   6.021   1.577   8.136 -0.2908 -0.2513 -1.3655
  180SOPE  H15Y20610   6.176   1.504   8.155 -0.6611 -1.8161 -2.6624
  180SOPE  C31620611   6.055   1.584   8.354  0.3883  0.5926  0.5195
  180SOPE  H16X20612   5.944   1.590   8.365  0.3076 -2.2123  1.4966
  180SOPE  H16Y20613   6.100   1.686   8.345 -0.2354  0.8511  0.2823
  180SOPE  C31720614   6.108   1.510   8.479 -0.1308 -0.1269  0.5310
  180SOPE  H17X20615   6.218   1.502   8.467 -0.0998  0.9565  0.0707
  180SOPE  H17Y20616   6.061   1.410   8.481  0.1763 -0.2646  0.8768
  180SOPE  C31820617   6.067   1.571   8.611 -0.2993  0.4789  0.2294
  180SOPE  H18X20618   5.959   1.573   8.637  0.4585  0.4181  3.5630
  180SOPE  H18Y20619   6.116   1.671   8.612  3.0721 -1.0468 -2.0293
  180SOPE  H18Z20620   6.105   1.504   8.692 -0.4735  1.2920  0.9836
  181SOPE     N20621   5.729   5.178   5.968  0.2825  0.8091 -0.4685
  181SOPE   HN120622   5.730   5.254   6.040  0.2850 -0.0944  0.4947
  181SOPE   HN220623   5.743   5.097   6.032 -0.5526  1.1578  0.1671
  181SOPE   HN320624   5.816   5.186   5.911 -1.3962 -2.7339 -3.7225
  181SOPE   C1220625   5.601   5.173   5.885  0.4511 -0.0583  0.3991
  181SOPE  H12A20626   5.611   5.098   5.803 -1.5519 -1.3794  1.3244
  181SOPE  H12B20627   5.579   5.273   5.844  1.7132 -0.7972 -2.1626
  181SOPE   C1120628   5.476   5.134   5.973  0.3736  0.0959  0.1654
  181SOPE  H11A20629   5.398   5.133   5.894  0.3219  1.7407  0.1917
  181SOPE  H11B20630   5.453   5.215   6.045 -2.7555  0.7398 -1.4991
  181SOPE     P20631   5.367   4.911   6.053 -0.0103 -0.3032 -0.1138
  181SOPE   O1320632   5.402   4.771   6.017  0.1400 -0.2795  0.3150
  181SOPE   O1420633   5.241   4.963   5.993 -0.2443 -0.0442  0.1141
  181SOPE   O1220634   5.490   5.014   6.042  0.2584  0.2300  0.2334
  181SOPE   O1120635   5.349   4.897   6.204 -0.0100  0.2131 -0.0396
  181SOPE    C120636   5.444   4.937   6.300 -0.0813 -0.0351  0.0801
  181SOPE    HA20637   5.539   4.978   6.258  0.6493  0.4102  2.0998
  181SOPE    HB20638   5.476   4.844   6.351  0.5248  0.4668  0.6133
  181SOPE    C220639   5.381   5.043   6.394 -0.4583  0.5899  0.8967
  181SOPE    HS20640   5.389   5.137   6.335 -0.9703 -0.3128 -0.6486
  181SOPE   O2120641   5.447   5.049   6.516 -0.5772 -0.0814  0.0936
  181SOPE   C2120642   5.492   5.167   6.557  0.1823  0.4906  0.1234
  181SOPE   O2220643   5.454   5.273   6.514 -0.2323 -0.6675 -0.1204
  181SOPE   C2220644   5.572   5.143   6.680  0.3363  0.1177 -0.7198
  181SOPE   H2R20645   5.635   5.052   6.673 -2.1098 -1.6140 -0.9301
  181SOPE   H2S20646   5.496   5.134   6.761  0.3437 -2.3388 -0.9557
  181SOPE    C320647   5.236   5.021   6.446  0.1082  0.3322  0.2482
  181SOPE    HX20648   5.212   4.922   6.489 -1.3585 -0.7800 -2.9563
  181SOPE    HY20649   5.182   5.004   6.351  1.3591  1.6959 -0.7316
  181SOPE   O3120650   5.188   5.123   6.533  0.2879 -0.1209  0.4447
  181SOPE   C3120651   5.134   5.224   6.470  0.4626  0.5302  0.3252
  181SOPE   O3220652   5.114   5.230   6.348  0.4608  0.1753 -0.3547
  181SOPE   C3220653   5.109   5.335   6.571 -0.2292  0.0767  0.3658
  181SOPE   H2X20654   4.999   5.331   6.586 -0.7796 -1.9922 -3.5121
  181SOPE   H2Y20655   5.127   5.434   6.526 -3.8961  0.6822  0.0979
  181SOPE   C2320656   5.677   5.254   6.717 -0.6974 -0.8847 -0.3536
  181SOPE   H3R20657   5.668   5.342   6.650  1.9771  1.0583  1.7291
  181SOPE   H3S20658   5.779   5.210   6.708 -0.9357 -1.0611 -2.5196
  181SOPE   C2420659   5.659   5.320   6.859  0.6876 -0.3090  0.0677
  181SOPE   H4R20660   5.739   5.394   6.878 -0.4232  1.2287 -1.0740
  181SOPE   H4S20661   5.564   5.377   6.874  0.4885 -1.1424  2.1733
  181SOPE   C2520662   5.676   5.212   6.963  0.4568 -0.4466  0.0918
  181SOPE   H5R20663   5.587   5.146   6.948  0.1716  0.1760 -0.9928
  181SOPE   H5S20664   5.776   5.170   6.940 -0.3508 -2.8530  0.8308
  181SOPE   C2620665   5.673   5.256   7.107  0.2081 -0.4362 -0.2370
  181SOPE   H6R20666   5.746   5.339   7.116 -0.3956  0.1770 -0.9428
  181SOPE   H6S20667   5.567   5.281   7.130  0.1050 -0.6217 -0.5075
  181SOPE   C2720668   5.708   5.138   7.204  1.2324  0.0088  0.5439
  181SOPE   H7R20669   5.633   5.058   7.194  1.6648 -0.4067  0.6099
  181SOPE   H7S20670   5.808   5.100   7.173  0.6033 -0.3569 -1.0232
  181SOPE   C2820671   5.726   5.175   7.354 -0.4629 -0.7323 -0.6696
  181SOPE   H8R20672   5.783   5.094   7.404  1.9224  0.6533 -1.0593
  181SOPE   H8S20673   5.799   5.258   7.345 -1.8631  0.6265  0.2246
  181SOPE   C2920674   5.596   5.211   7.418  0.2528 -0.0596  0.2149
  181SOPE   H9120675   5.548   5.302   7.379  0.2970  0.4859  1.4270
  181SOPE  C21020676   5.539   5.147   7.523  0.1566  0.7567 -0.4539
  181SOPE  H10120677   5.440   5.187   7.551 -0.5876  0.4533 -2.6095
  181SOPE  C21120678   5.586   5.031   7.607 -0.6033 -0.4706  0.5359
  181SOPE  H11R20679   5.681   4.985   7.572 -0.4588  0.8474 -0.8500
  181SOPE  H11S20680   5.507   4.953   7.610 -1.4060  0.2366 -1.7262
  181SOPE  C21220681   5.608   5.088   7.752 -0.1133 -0.7239  0.5092
  181SOPE  H12R20682   5.698   5.152   7.736  0.0074 -1.1056 -0.3399
  181SOPE  H12S20683   5.646   4.997   7.803  1.3142  0.1204  0.9721
  181SOPE  C21320684   5.491   5.152   7.832  0.0161 -0.4991  0.5034
  181SOPE  H13R20685   5.436   5.226   7.771 -1.4484 -0.2026  2.1520
  181SOPE  H13S20686   5.533   5.203   7.921  2.2848 -0.2780 -0.6616
  181SOPE  C21420687   5.395   5.047   7.879 -0.0659 -0.6254  0.2876
  181SOPE  H14R20688   5.444   4.982   7.955 -0.7692 -0.2208  1.0921
  181SOPE  H14S20689   5.360   4.988   7.791  2.3116 -0.9444 -0.4638
  181SOPE  C21520690   5.269   5.109   7.955 -0.3174 -0.7607 -0.0141
  181SOPE  H15R20691   5.207   5.163   7.881 -1.3843 -0.8441  0.8118
  181SOPE  H15S20692   5.310   5.189   8.020 -0.4393  0.3318 -1.2682
  181SOPE  C21620693   5.192   5.016   8.050 -0.1090 -0.1333  0.9109
  181SOPE  H16R20694   5.140   4.932   7.998 -0.1027  1.1047 -1.1246
  181SOPE  H16S20695   5.100   5.069   8.082 -0.9354 -0.7315 -0.3903
  181SOPE  C21720696   5.276   4.965   8.163 -0.0414 -0.1629 -0.2134
  181SOPE  H17R20697   5.361   4.897   8.138 -1.6352 -2.9035  1.6501
  181SOPE  H17S20698   5.208   4.901   8.223  0.4365 -0.0279  0.4707
  181SOPE  C21820699   5.331   5.070   8.262 -0.8104  0.0876  0.0744
  181SOPE  H18R20700   5.385   5.148   8.203  1.5692 -1.2439  0.4204
  181SOPE  H18S20701   5.407   5.023   8.328 -0.2390  1.5509  0.4804
  181SOPE  H18T20702   5.260   5.109   8.338 -1.0483 -1.6384  0.7640
  181SOPE   C3320703   5.179   5.333   6.714 -0.4362  0.5202  0.3531
  181SOPE   H3X20704   5.267   5.401   6.712  0.5062 -0.5912  2.2467
  181SOPE   H3Y20705   5.208   5.230   6.743  0.8421  0.9065  0.4939
  181SOPE   C3420706   5.085   5.395   6.818 -0.4106 -0.4855 -0.1061
  181SOPE   H4X20707   4.986   5.347   6.804 -0.3341 -0.0764 -2.2408
  181SOPE   H4Y20708   5.072   5.504   6.805  1.1093 -0.2426  0.3314
  181SOPE   C3520709   5.135   5.354   6.960  0.4036 -0.1746 -0.3836
  181SOPE   H5X20710   5.220   5.282   6.954  1.3464  1.0198 -1.7361
  181SOPE   H5Y20711   5.049   5.300   7.004  1.7903 -3.3079 -1.3253
  181SOPE   C3620712   5.164   5.464   7.067  0.1079 -0.4675 -0.0556
  181SOPE   H6X20713   5.091   5.548   7.069  2.0576  1.3349 -2.3219
  181SOPE   H6Y20714   5.260   5.508   7.033 -1.6605  1.1355 -3.3252
  181SOPE   C3720715   5.178   5.406   7.202 -0.4702  0.5218 -0.0260
  181SOPE   H7X20716   5.238   5.312   7.200  3.7227  3.0509 -0.2991
  181SOPE   H7Y20717   5.080   5.379   7.247 -0.6729 -1.3393 -1.5039
  181SOPE   C3820718   5.245   5.509   7.293 -0.7061  0.1977  0.4891
  181SOPE   H8X20719   5.187   5.602   7.275  0.2995  0.6044 -0.7809
  181SOPE   H8Y20720   5.343   5.537   7.249 -2.2492  1.1864 -2.4376
  181SOPE   C3920721   5.242   5.462   7.434  0.5069  0.7130  0.6432
  181SOPE   H9X20722   5.281   5.358   7.433 -0.3365  0.3766  1.6249
  181SOPE   H9Y20723   5.135   5.456   7.464  1.0779  0.4202  2.7144
  181SOPE  C31020724   5.313   5.554   7.535 -0.3844  0.1474 -0.5493
  181SOPE  H10X20725   5.243   5.638   7.556  0.4969  1.2636 -2.0234
  181SOPE  H10Y20726   5.410   5.593   7.498 -0.6418 -0.7006 -2.1731
  181SOPE  C31120727   5.347   5.494   7.675 -0.9118 -0.0168  0.2350
  181SOPE  H11X20728   5.430   5.423   7.656  1.2600  2.4075  0.2947
  181SOPE  H11Y20729   5.255   5.445   7.712 -0.3889 -0.4088  1.0544
  181SOPE  C31220730   5.398   5.595   7.782  0.1496  0.3466 -0.2096
  181SOPE  H12X20731   5.312   5.665   7.797 -1.0712 -0.9477 -1.1024
  181SOPE  H12Y20732   5.489   5.645   7.742  2.1752 -0.7405  2.8546
  181SOPE  C31320733   5.435   5.542   7.918  0.2675 -0.0628  0.1029
  181SOPE  H13X20734   5.486   5.445   7.903  1.3697  0.6215 -0.6267
  181SOPE  H13Y20735   5.342   5.532   7.978  0.1828  1.2753  0.2176
  181SOPE  C31420736   5.525   5.635   8.000  0.5054  0.1437 -0.7507
  181SOPE  H14X20737   5.465   5.726   8.021 -2.9700 -1.6765 -2.3093
  181SOPE  H14Y20738   5.613   5.663   7.938  0.6647 -1.2720 -1.1963
  181SOPE  C31520739   5.566   5.561   8.131  0.4397 -0.1588 -0.1798
  181SOPE  H15X20740   5.597   5.644   8.198 -0.6225 -1.4606  1.9574
  181SOPE  H15Y20741   5.656   5.500   8.107 -1.9517 -3.3835 -1.2249
  181SOPE  C31620742   5.457   5.481   8.205  0.2740  0.0465 -0.8194
  181SOPE  H16X20743   5.450   5.383   8.153 -0.4063 -1.3783  1.8910
  181SOPE  H16Y20744   5.357   5.523   8.185  0.8012  0.8946 -1.7410
  181SOPE  C31720745   5.476   5.478   8.358 -0.6144  0.3351  0.3168
  181SOPE  H17X20746   5.506   5.581   8.389  0.3669  0.4775 -1.0806
  181SOPE  H17Y20747   5.564   5.416   8.382 -0.7340 -0.4779 -1.3103
  181SOPE  C31820748   5.353   5.450   8.455 -0.1825  0.3740 -0.4068
  181SOPE  H18X20749   5.389   5.402   8.549  1.6809 -1.0522 -1.7985
  181SOPE  H18Y20750   5.288   5.375   8.405  0.4308  0.7026 -1.7228
  181SOPE  H18Z20751   5.300   5.547   8.464  1.8974  1.6589 -1.5909
  182SOPE     N20752   6.399   0.742   6.433 -0.0579  0.4548  0.2903
  182SOPE   HN120753   6.344   0.667   6.479  1.2670 -1.7609 -1.5807
  182SOPE   HN220754   6.481   0.757   6.495  0.4337  0.5064 -0.3633
  182SOPE   HN320755   6.350   0.833   6.437  1.1706  1.0704  2.4167
  182SOPE   C1220756   6.429   0.686   6.302 -0.2811 -0.4418 -0.3854
  182SOPE  H12A20757   6.497   0.762   6.256 -0.2118 -1.5602 -2.1669
  182SOPE  H12B20758   6.337   0.672   6.242  0.3883 -0.0938 -1.5207
  182SOPE   C1120759   6.495   0.551   6.328  0.0654  0.3285  0.3357
  182SOPE  H11A20760   6.413   0.480   6.350 -0.8160  1.7971  1.7955
  182SOPE  H11B20761   6.567   0.548   6.412 -0.2108  1.1464  0.6020
  182SOPE     P20762   6.718   0.537   6.174  0.4068 -0.0431  0.1379
  182SOPE   O1320763   6.754   0.677   6.206  0.0898  0.1762 -0.4816
  182SOPE   O1420764   6.735   0.490   6.030 -0.2238 -0.2536 -0.2466
  182SOPE   O1220765   6.562   0.511   6.207  0.0612 -0.2879 -0.0184
  182SOPE   O1120766   6.786   0.441   6.277  0.4029  0.3602 -0.0722
  182SOPE    C120767   6.747   0.300   6.273  0.9700  0.0425 -0.1623
  182SOPE    HA20768   6.835   0.233   6.273  1.1549  0.2612  1.1398
  182SOPE    HB20769   6.692   0.273   6.181  2.1351 -0.3451 -0.7425
  182SOPE    C220770   6.670   0.264   6.401 -0.4566 -0.0315  0.0338
  182SOPE    HS20771   6.571   0.314   6.398 -0.2883  0.6441  3.2826
  182SOPE   O2120772   6.757   0.304   6.510 -0.4494 -0.0777 -0.2243
  182SOPE   C2120773   6.686   0.330   6.620 -0.4282 -0.7658 -0.4055
  182SOPE   O2220774   6.567   0.325   6.628 -0.2205 -0.7963  0.4081
  182SOPE   C2220775   6.778   0.358   6.741  0.1997 -0.5000  0.2419
  182SOPE   H2R20776   6.768   0.465   6.770  0.2502 -0.5899  0.5903
  182SOPE   H2S20777   6.882   0.325   6.719 -0.9764 -4.0969 -0.2830
  182SOPE    C320778   6.648   0.106   6.407  0.3906  0.0068 -0.4241
  182SOPE    HX20779   6.749   0.059   6.407 -0.0617 -1.0026 -2.1780
  182SOPE    HY20780   6.594   0.082   6.313 -2.5354  0.8288  0.9824
  182SOPE   O3120781   6.581   0.076   6.528  0.7739 -0.1881 -0.4524
  182SOPE   C3120782   6.452   0.079   6.526  0.6109 -0.4937  0.3384
  182SOPE   O3220783   6.380   0.130   6.443  0.0231  0.3090  0.6742
  182SOPE   C3220784   6.411   0.014   6.662  0.2534  0.3306 -0.1660
  182SOPE   H2X20785   6.375   0.085   6.739  0.9970  1.0543 -0.4826
  182SOPE   H2Y20786   6.502  -0.035   6.702  0.7520  0.4117 -1.1852
  182SOPE   C2320787   6.746   0.273   6.873 -0.1611  0.5626 -0.0714
  182SOPE   H3R20788   6.835   0.273   6.940 -0.2934  5.4576  0.2717
  182SOPE   H3S20789   6.743   0.166   6.841 -0.2782  0.3096  0.7783
  182SOPE   C2420790   6.632   0.328   6.957 -0.0659 -0.6168 -0.8497
  182SOPE   H4R20791   6.666   0.421   7.007 -1.2391 -1.3083  1.2841
  182SOPE   H4S20792   6.541   0.341   6.895 -0.7548 -0.8074  0.1183
  182SOPE   C2520793   6.593   0.221   7.057 -0.6330  0.3662 -0.2613
  182SOPE   H5R20794   6.536   0.149   6.994  1.1873 -0.1809 -1.3250
  182SOPE   H5S20795   6.690   0.188   7.101  0.4945  1.9118 -1.5516
  182SOPE   C2620796   6.517   0.272   7.177 -0.1233  0.3699 -0.0937
  182SOPE   H6R20797   6.563   0.363   7.222  1.8933 -0.9236  0.5212
  182SOPE   H6S20798   6.415   0.304   7.148  0.2089  1.4048 -0.1310
  182SOPE   C2720799   6.501   0.161   7.281  1.4629  0.3743 -0.0404
  182SOPE   H7R20800   6.495   0.063   7.228  1.4554  0.7252 -0.6892
  182SOPE   H7S20801   6.582   0.161   7.357  0.5354  1.7936  0.9821
  182SOPE   C2820802   6.370   0.160   7.370  0.3844  0.5781  0.2688
  182SOPE   H8R20803   6.370   0.254   7.429 -2.0588 -0.2886  1.7166
  182SOPE   H8S20804   6.285   0.165   7.298  1.1265 -0.9100 -0.7417
  182SOPE   C2920805   6.377   0.039   7.464 -0.2883  0.0458 -0.6443
  182SOPE   H9120806   6.379  -0.056   7.409 -2.3155 -0.5155  0.1984
  182SOPE  C21020807   6.380   0.038   7.596  0.1312 -0.4346 -0.8217
  182SOPE  H10120808   6.399  -0.060   7.644  0.9531  1.9545  4.0619
  182SOPE  C21120809   6.379   0.155   7.688  0.2826  0.0849  0.0497
  182SOPE  H11R20810   6.274   0.191   7.687 -0.0722 -0.9117 -2.8687
  182SOPE  H11S20811   6.433   0.242   7.644 -0.3525  0.7408  0.5536
  182SOPE  C21220812   6.443   0.135   7.824 -0.0581 -0.8408 -0.7578
  182SOPE  H12R20813   6.440   0.234   7.875  1.2143 -1.1137 -0.1376
  182SOPE  H12S20814   6.544   0.094   7.802 -0.5561 -1.5777 -1.7290
  182SOPE  C21320815   6.359   0.048   7.914  0.2133  0.7554 -0.6767
  182SOPE  H13R20816   6.371  -0.055   7.873  1.7702  0.6187  0.0830
  182SOPE  H13S20817   6.253   0.078   7.898 -0.2791 -0.6395 -0.1486
  182SOPE  C21420818   6.400   0.050   8.063 -0.5519  0.8205  0.2651
  182SOPE  H14R20819   6.375   0.144   8.117  0.5594  1.4911 -0.3586
  182SOPE  H14S20820   6.508   0.026   8.072  0.1533  4.0127  1.0153
  182SOPE  C21520821   6.329  -0.054   8.152 -0.2626  0.4631 -0.3328
  182SOPE  H15R20822   6.381  -0.146   8.118  1.0888  0.1356  2.5433
  182SOPE  H15S20823   6.221  -0.042   8.128 -0.1317  2.5685  0.0571
  182SOPE  C21620824   6.354  -0.042   8.307  0.1375  0.3892  0.2045
  182SOPE  H16R20825   6.317   0.052   8.353  0.8024 -0.3138  2.2127
  182SOPE  H16S20826   6.462  -0.040   8.334  0.1781  1.3268  0.0196
  182SOPE  C21720827   6.297  -0.163   8.382  0.2867  0.2632 -0.2163
  182SOPE  H17R20828   6.336  -0.253   8.331  0.5470  0.2350  0.0321
  182SOPE  H17S20829   6.189  -0.179   8.361  0.0748  0.2157  0.8640
  182SOPE  C21820830   6.326  -0.168   8.531  0.1460 -0.3214  0.3416
  182SOPE  H18R20831   6.319  -0.066   8.574  0.9291 -0.4759  0.8523
  182SOPE  H18S20832   6.425  -0.212   8.557  1.1567  1.0192 -1.1810
  182SOPE  H18T20833   6.253  -0.229   8.590 -1.1807  0.4505 -0.4858
  182SOPE   C3320834   6.301  -0.089   6.639  0.1663 -0.9142 -0.1476
  182SOPE   H3X20835   6.322  -0.175   6.572  0.2029 -2.5454  1.8975
  182SOPE   H3Y20836   6.216  -0.033   6.593  0.3385 -1.1086 -0.7119
  182SOPE   C3420837   6.240  -0.163   6.761 -0.7405  0.3915 -0.7621
  182SOPE   H4X20838   6.155  -0.228   6.730 -1.9473  0.6306  1.9165
  182SOPE   H4Y20839   6.203  -0.085   6.830 -0.5260 -0.2063  0.0303
  182SOPE   C3520840   6.349  -0.242   6.839 -0.2280  0.4060  0.9278
  182SOPE   H5X20841   6.436  -0.173   6.850 -0.2093  0.3732  0.9859
  182SOPE   H5Y20842   6.363  -0.329   6.772 -0.7615  3.4971 -3.4508
  182SOPE   C3620843   6.308  -0.292   6.978  0.4902  0.5792 -0.8924
  182SOPE   H6X20844   6.381  -0.367   7.015  0.1428  0.1391 -1.0871
  182SOPE   H6Y20845   6.215  -0.354   6.977  0.8019  0.0728  0.5046
  182SOPE   C3720846   6.289  -0.199   7.090  0.4218 -0.2120 -0.4393
  182SOPE   H7X20847   6.217  -0.119   7.062  2.1285  0.8316 -1.9642
  182SOPE   H7Y20848   6.380  -0.139   7.112  0.8966 -0.5659 -1.4189
  182SOPE   C3820849   6.249  -0.268   7.226 -0.3290  0.1368  0.1385
  182SOPE   H8X20850   6.152  -0.320   7.216 -1.4370  2.1659 -0.0434
  182SOPE   H8Y20851   6.236  -0.191   7.305 -0.7497  0.7396 -0.5014
  182SOPE   C3920852   6.359  -0.365   7.274 -0.1063  0.7490 -0.5514
  182SOPE   H9X20853   6.442  -0.292   7.290 -1.0985  2.5838 -3.4523
  182SOPE   H9Y20854   6.382  -0.446   7.201  0.0387 -0.0156  0.3276
  182SOPE  C31020855   6.345  -0.435   7.412  0.7943  0.4845  0.3089
  182SOPE  H10X20856   6.427  -0.509   7.428  1.0573  0.5278 -0.7992
  182SOPE  H10Y20857   6.250  -0.494   7.410  0.2744  1.2715  1.5335
  182SOPE  C31120858   6.341  -0.341   7.528  0.2684 -0.2733  0.3837
  182SOPE  H11X20859   6.249  -0.279   7.520 -0.4707 -1.2521  1.2152
  182SOPE  H11Y20860   6.425  -0.269   7.526  1.3237 -1.4761  0.9514
  182SOPE  C31220861   6.350  -0.408   7.657  0.3711 -0.6734 -0.8388
  182SOPE  H12X20862   6.433  -0.482   7.661  1.1236  0.2081  0.2056
  182SOPE  H12Y20863   6.251  -0.455   7.676 -1.2819  3.2320  0.7295
  182SOPE  C31320864   6.382  -0.303   7.770 -0.4752  0.3727 -0.6794
  182SOPE  H13X20865   6.298  -0.238   7.801 -0.3334 -0.4763  1.5691
  182SOPE  H13Y20866   6.468  -0.241   7.739  0.3544 -1.7818 -2.8746
  182SOPE  C31420867   6.422  -0.372   7.906 -0.4202  0.2051 -0.0567
  182SOPE  H14X20868   6.438  -0.298   7.988 -0.1025 -1.1141  1.1035
  182SOPE  H14Y20869   6.513  -0.433   7.886 -2.1387 -1.3674 -3.3707
  182SOPE  C31520870   6.321  -0.468   7.964 -0.3730 -0.1845 -0.3838
  182SOPE  H15X20871   6.309  -0.554   7.895  2.6974 -0.3175 -0.8478
  182SOPE  H15Y20872   6.226  -0.411   7.958 -0.1757  0.2607  0.6583
  182SOPE  C31620873   6.340  -0.501   8.113 -0.5430  0.1831 -0.4362
  182SOPE  H16X20874   6.264  -0.568   8.160  2.0182 -1.6150  1.3108
  182SOPE  H16Y20875   6.322  -0.405   8.166  1.3772  1.9029 -2.8530
  182SOPE  C31720876   6.467  -0.582   8.159  0.6131 -0.0931 -0.4782
  182SOPE  H17X20877   6.559  -0.524   8.136 -0.4521  2.7392  1.9826
  182SOPE  H17Y20878   6.463  -0.669   8.090  0.1521 -0.3980 -0.0735
  182SOPE  C31820879   6.463  -0.614   8.315 -0.0306  0.4296  0.5514
  182SOPE  H18X20880   6.454  -0.516   8.366 -2.3894 -0.2277  1.4342
  182SOPE  H18Y20881   6.567  -0.645   8.340  0.5111  0.6454 -1.3137
  182SOPE  H18Z20882   6.383  -0.688   8.338 -0.8818  1.1552 -0.0569
  183SOPE     N20883   1.745   5.726   6.138 -0.3338  0.7771 -0.0187
  183SOPE   HN120884   1.813   5.690   6.068  1.3317  0.8911  1.5096
  183SOPE   HN220885   1.679   5.648   6.155  0.3446  0.5269  1.5615
  183SOPE   HN320886   1.715   5.814   6.091 -1.3667  0.6789  0.4481
  183SOPE   C1220887   1.841   5.751   6.245 -0.4562  0.3005  0.1388
  183SOPE  H12A20888   1.795   5.815   6.323  0.6008  1.0477  0.1696
  183SOPE  H12B20889   1.924   5.816   6.210  0.1568 -0.6848 -0.2689
  183SOPE   C1120890   1.899   5.620   6.305  0.5053 -0.3763  0.6920
  183SOPE  H11A20891   1.826   5.570   6.372  0.1359 -0.6944  0.0620
  183SOPE  H11B20892   1.993   5.646   6.359  0.7421  0.3778 -0.0709
  183SOPE     P20893   2.031   5.404   6.204 -0.0044 -0.2318  0.1010
  183SOPE   O1320894   2.175   5.446   6.222  0.5035  0.2528 -0.1226
  183SOPE   O1420895   2.005   5.328   6.085  0.6154  0.1450 -0.4444
  183SOPE   O1220896   1.938   5.530   6.196 -0.2658 -0.1631  0.2153
  183SOPE   O1120897   1.974   5.327   6.336 -0.4452  0.0261 -0.9454
  183SOPE    C120898   1.877   5.222   6.308  0.2393  0.4813 -0.1720
  183SOPE    HA20899   1.922   5.141   6.248 -0.2431 -0.4704  0.7260
  183SOPE    HB20900   1.796   5.258   6.241  0.5680 -0.4998 -1.1108
  183SOPE    C220901   1.830   5.155   6.443 -0.0003  0.3550 -0.4602
  183SOPE    HS20902   1.774   5.226   6.508  0.2740  0.2703 -0.1327
  183SOPE   O2120903   1.946   5.092   6.498 -0.1763 -0.7065 -0.0987
  183SOPE   C2120904   1.987   5.150   6.611 -0.0562  0.1835  0.6756
  183SOPE   O2220905   1.953   5.261   6.649 -0.7242  0.7641 -0.1525
  183SOPE   C2220906   2.099   5.067   6.671  0.1858 -0.1452  0.1705
  183SOPE   H2R20907   2.191   5.101   6.620 -2.1956  1.4862 -3.2513
  183SOPE   H2S20908   2.089   4.958   6.651  1.4337  0.1488 -2.2524
  183SOPE    C320909   1.735   5.037   6.425  0.5063  0.2257  0.4088
  183SOPE    HX20910   1.780   4.959   6.359 -2.6424 -1.8452  0.5456
  183SOPE    HY20911   1.640   5.071   6.377 -1.3720 -1.3120  2.8615
  183SOPE   O3120912   1.697   4.981   6.555 -0.4004  0.4719 -0.4721
  183SOPE   C3120913   1.764   4.871   6.590 -0.9885  0.0545 -0.5824
  183SOPE   O3220914   1.850   4.812   6.522  0.2354 -0.0316 -0.0245
  183SOPE   C3220915   1.733   4.842   6.735  0.1503 -1.0440  0.1454
  183SOPE   H2X20916   1.623   4.851   6.743  0.0638 -0.9122 -1.0833
  183SOPE   H2Y20917   1.771   4.908   6.817 -1.6429 -3.3948  2.9603
  183SOPE   C2320918   2.123   5.082   6.825  0.3839  0.2415 -0.1843
  183SOPE   H3R20919   2.140   5.189   6.850 -2.5267  0.6645  0.1228
  183SOPE   H3S20920   2.222   5.034   6.840 -0.4393 -0.7899  2.0923
  183SOPE   C2420921   2.010   5.021   6.907 -0.0841  0.6112 -0.5668
  183SOPE   H4R20922   1.919   5.075   6.872  0.0904  0.5585 -1.0998
  183SOPE   H4S20923   2.001   4.913   6.887  0.6127  0.2411  1.0343
  183SOPE   C2520924   2.042   5.058   7.056  0.3013  1.0502 -0.4921
  183SOPE   H5R20925   2.146   5.030   7.084  0.0838  0.8514  0.1236
  183SOPE   H5S20926   2.037   5.169   7.057  0.6035  1.0796 -1.6801
  183SOPE   C2620927   1.941   5.008   7.164  0.2022 -0.1292  0.6527
  183SOPE   H6R20928   1.837   5.025   7.128  0.5365 -0.6626 -0.6344
  183SOPE   H6S20929   1.951   4.897   7.157  0.6597 -0.1181  1.1023
  183SOPE   C2720930   1.968   5.074   7.305  0.2425 -0.0801 -0.1306
  183SOPE   H7R20931   1.933   5.179   7.298  0.8219  0.0661 -0.7985
  183SOPE   H7S20932   1.903   5.023   7.380 -0.3016  1.9761  0.8163
  183SOPE   C2820933   2.114   5.065   7.360  0.2821  0.1110 -0.0378
  183SOPE   H8R20934   2.135   4.962   7.395  1.1836  0.0016 -0.8696
  183SOPE   H8S20935   2.185   5.097   7.281  1.2480  0.4896  0.9640
  183SOPE   C2920936   2.137   5.157   7.477 -0.0400 -0.2579 -0.1026
  183SOPE   H9120937   2.172   5.256   7.443  2.0999 -0.9545  0.0110
  183SOPE  C21020938   2.112   5.156   7.608 -0.6795  0.3866 -0.6661
  183SOPE  H10120939   2.136   5.247   7.666 -0.5929  0.0367 -0.1512
  183SOPE  C21120940   2.038   5.039   7.669  0.2774 -1.1898 -0.4434
  183SOPE  H11R20941   2.076   4.946   7.621  1.7048 -0.5665 -0.5607
  183SOPE  H11S20942   1.931   5.047   7.642  0.2927  0.6384 -0.0185
  183SOPE  C21220943   2.059   5.007   7.819  0.6125 -0.0693  0.0049
  183SOPE  H12R20944   2.166   4.992   7.841  0.3523  1.4870  2.4562
  183SOPE  H12S20945   2.020   4.905   7.841 -1.3682  1.2400  2.7743
  183SOPE  C21320946   2.005   5.112   7.923  0.5623 -0.2437  0.1746
  183SOPE  H13R20947   1.930   5.177   7.871  0.5080  0.3961  1.0476
  183SOPE  H13S20948   2.093   5.166   7.964 -0.4150  0.2864  1.6198
  183SOPE  C21420949   1.934   5.047   8.037 -0.4494  1.0732 -0.0297
  183SOPE  H14R20950   1.842   4.995   8.003 -0.2133 -0.2288  1.2760
  183SOPE  H14S20951   1.892   5.119   8.111 -0.3114  1.7671 -0.6279
  183SOPE  C21520952   2.032   4.953   8.117 -0.3512 -0.0783 -0.6373
  183SOPE  H15R20953   2.118   5.019   8.143 -0.9865  0.2050  0.8167
  183SOPE  H15S20954   2.065   4.862   8.063  0.5589 -0.6271  0.7992
  183SOPE  C21620955   1.974   4.910   8.262  0.1056  0.6208  0.0519
  183SOPE  H16R20956   1.895   4.980   8.295  0.1748  1.4823 -1.5509
  183SOPE  H16S20957   2.055   4.900   8.338  0.9962 -1.6180 -1.1205
  183SOPE  C21720958   1.903   4.780   8.250 -0.4255  0.1061 -1.1100
  183SOPE  H17R20959   1.980   4.702   8.231 -2.7748 -1.6766 -3.7252
  183SOPE  H17S20960   1.831   4.766   8.166 -0.3464  2.9132 -1.6794
  183SOPE  C21820961   1.829   4.743   8.379 -0.3176  0.6905 -0.5519
  183SOPE  H18R20962   1.770   4.651   8.365  0.2591  0.2345 -0.0124
  183SOPE  H18S20963   1.768   4.830   8.411  0.2998  1.0885 -0.4434
  183SOPE  H18T20964   1.910   4.720   8.452 -2.4465  1.1583  2.0600
  183SOPE   C3320965   1.768   4.688   6.774  0.0433  0.0655 -0.0159
  183SOPE   H3X20966   1.877   4.673   6.785 -0.0472 -1.4410 -1.0404
  183SOPE   H3Y20967   1.724   4.618   6.700 -1.4106 -1.0161  1.8372
  183SOPE   C3420968   1.703   4.638   6.906  0.1629  0.2311 -0.2007
  183SOPE   H4X20969   1.720   4.530   6.926 -2.4101 -0.7823 -2.9554
  183SOPE   H4Y20970   1.594   4.654   6.918 -0.1782 -0.2849 -2.3971
  183SOPE   C3520971   1.767   4.714   7.022 -0.6499 -0.6305  0.1059
  183SOPE   H5X20972   1.761   4.822   6.997 -1.8790 -1.1520 -1.9381
  183SOPE   H5Y20973   1.876   4.691   7.028 -0.8112 -1.0305  1.4953
  183SOPE   C3620974   1.690   4.680   7.154  0.8277  0.4449  0.3529
  183SOPE   H6X20975   1.668   4.573   7.174 -1.7920  0.6166 -1.3054
  183SOPE   H6Y20976   1.591   4.730   7.145  0.4980 -0.6869 -3.2124
  183SOPE   C3720977   1.760   4.728   7.285  0.1238 -0.2080  0.2671
  183SOPE   H7X20978   1.771   4.839   7.284 -1.2751 -0.0533  1.0621
  183SOPE   H7Y20979   1.854   4.668   7.293  0.7622  0.4135 -2.3041
  183SOPE   C3820980   1.679   4.683   7.405  0.1679 -0.4199 -0.6256
  183SOPE   H8X20981   1.657   4.575   7.390 -0.6786 -0.7005  2.2109
  183SOPE   H8Y20982   1.582   4.737   7.404  1.0186  1.0981 -1.4862
  183SOPE   C3920983   1.748   4.704   7.543 -0.0199  0.8412 -0.3789
  183SOPE   H9X20984   1.787   4.808   7.550 -0.7263  1.0635  0.3651
  183SOPE   H9Y20985   1.833   4.634   7.557  0.7945  2.0426  0.7726
  183SOPE  C31020986   1.658   4.707   7.671  1.2530 -0.0159 -0.1381
  183SOPE  H10X20987   1.621   4.603   7.682  3.4760 -0.8748 -0.7055
  183SOPE  H10Y20988   1.567   4.767   7.649  0.8288 -0.8695 -0.7379
  183SOPE  C31120989   1.723   4.752   7.801 -0.7519  0.0916 -0.3019
  183SOPE  H11X20990   1.761   4.856   7.790 -0.2392 -0.0346  0.2393
  183SOPE  H11Y20991   1.809   4.685   7.821 -1.6234 -0.5686  1.3255
  183SOPE  C31220992   1.630   4.749   7.915 -0.1840 -0.4427 -0.0491
  183SOPE  H12X20993   1.538   4.799   7.880 -0.1024 -2.0697 -2.7385
  183SOPE  H12Y20994   1.666   4.793   8.011 -3.3387  0.4456  0.7951
  183SOPE  C31320995   1.597   4.608   7.965 -0.6324 -0.6757 -0.1328
  183SOPE  H13X20996   1.686   4.557   8.007  0.9580  1.0704 -1.3163
  183SOPE  H13Y20997   1.552   4.554   7.879 -1.6883 -1.0091  0.6105
  183SOPE  C31420998   1.492   4.613   8.078 -0.6653  0.0514  0.4543
  183SOPE  H14X20999   1.412   4.684   8.046  0.3871  0.3035 -1.6619
  183SOPE  H14Y21000   1.544   4.654   8.167  1.9422 -0.0902 -0.9843
  183SOPE  C31521001   1.429   4.474   8.104 -0.5059 -0.2610  0.5495
  183SOPE  H15X21002   1.499   4.390   8.089  0.9099  1.0964 -0.5861
  183SOPE  H15Y21003   1.338   4.451   8.044  0.4282 -2.9046  0.1060
  183SOPE  C31621004   1.391   4.464   8.250 -0.4980 -0.2294  0.2121
  183SOPE  H16X21005   1.324   4.546   8.283 -1.2618 -0.9166  0.3914
  183SOPE  H16Y21006   1.480   4.489   8.311  1.0641 -0.6744 -1.8251
  183SOPE  C31721007   1.347   4.328   8.297  0.0375 -0.8502 -0.2867
  183SOPE  H17X21008   1.404   4.245   8.250 -0.2752  0.0526 -2.3395
  183SOPE  H17Y21009   1.246   4.322   8.251  0.0743 -1.7931 -0.2435
  183SOPE  C31821010   1.329   4.304   8.444  0.0709 -0.1409 -0.0725
  183SOPE  H18X21011   1.293   4.398   8.491  0.2511  0.3606 -0.9168
  183SOPE  H18Y21012   1.422   4.274   8.496 -2.4952 -1.4758  3.9429
  183SOPE  H18Z21013   1.250   4.227   8.452  0.4611 -0.6894 -1.2694
  184SOPE     N21014   1.135   4.501   6.260  0.4696  0.3388 -0.0069
  184SOPE   HN121015   1.068   4.455   6.325 -1.2722  2.0162 -0.5654
  184SOPE   HN221016   1.077   4.542   6.184  2.0286  1.3409 -0.6782
  184SOPE   HN321017   1.192   4.424   6.220  0.6574  1.9356 -2.9581
  184SOPE   C1221018   1.218   4.609   6.313  0.2647  0.0535 -0.4485
  184SOPE  H12A21019   1.290   4.643   6.236  0.0928  1.4950  0.0233
  184SOPE  H12B21020   1.276   4.560   6.394 -1.0565  2.8265  2.2577
  184SOPE   C1121021   1.134   4.724   6.373  0.0389 -0.2046 -0.0785
  184SOPE  H11A21022   1.196   4.806   6.415 -1.4459  0.5677  0.6206
  184SOPE  H11B21023   1.074   4.683   6.457 -0.1955  0.4433  0.0746
  184SOPE     P21024   1.091   4.904   6.183 -0.2365 -0.0842  0.1655
  184SOPE   O1321025   0.968   4.978   6.144 -0.5039  0.2091  0.1839
  184SOPE   O1421026   1.174   4.848   6.069  0.2354  0.1081  0.5081
  184SOPE   O1221027   1.049   4.784   6.282  0.9349  0.0685 -0.4152
  184SOPE   O1121028   1.177   5.000   6.276  0.3058  0.1893 -0.5606
  184SOPE    C121029   1.113   5.107   6.353  0.1463 -0.0519  0.1683
  184SOPE    HA21030   1.056   5.067   6.439 -0.8314 -0.6367 -0.7521
  184SOPE    HB21031   1.050   5.169   6.286  0.9968 -0.6336 -1.1991
  184SOPE    C221032   1.214   5.202   6.418  0.6683  0.0506  0.1075
  184SOPE    HS21033   1.291   5.231   6.343 -0.8498 -0.7971 -1.8214
  184SOPE   O2121034   1.276   5.129   6.532 -0.3672  0.0063 -0.1184
  184SOPE   C2121035   1.378   5.185   6.593  0.3840 -0.5244 -0.1774
  184SOPE   O2221036   1.435   5.290   6.556 -0.9187 -0.0042  1.0782
  184SOPE   C2221037   1.412   5.102   6.717 -0.0745  0.1015  0.1888
  184SOPE   H2R21038   1.464   5.012   6.677  0.9138  1.0022 -0.6121
  184SOPE   H2S21039   1.315   5.064   6.755  0.3857 -0.7190  0.5361
  184SOPE    C321040   1.149   5.331   6.466  0.4654 -0.2452  0.7047
  184SOPE    HX21041   1.093   5.367   6.377 -1.2667  0.6788  2.1193
  184SOPE    HY21042   1.227   5.406   6.492 -0.0643  0.6205 -0.1408
  184SOPE   O3121043   1.045   5.314   6.558  0.4871 -0.5333 -0.3988
  184SOPE   C3121044   1.076   5.337   6.689  0.1590 -0.1023 -0.3784
  184SOPE   O3221045   1.190   5.355   6.738 -0.2459 -0.3441 -0.1349
  184SOPE   C3221046   0.946   5.340   6.774  0.0963  0.3237  0.0983
  184SOPE   H2X21047   0.880   5.255   6.746  0.2991 -0.2887  1.4407
  184SOPE   H2Y21048   0.894   5.434   6.748 -0.1335  0.8560  2.3790
  184SOPE   C2321049   1.505   5.178   6.814 -0.2862 -0.2403 -0.0406
  184SOPE   H3R21050   1.442   5.265   6.843 -0.1214 -0.2993  0.4847
  184SOPE   H3S21051   1.596   5.213   6.760 -0.3964 -0.4381 -0.3579
  184SOPE   C2421052   1.534   5.087   6.936  0.2798 -0.0262 -0.6045
  184SOPE   H4R21053   1.440   5.033   6.958  1.2681 -0.5327  2.7194
  184SOPE   H4S21054   1.617   5.014   6.919 -1.0801 -1.7880  0.2129
  184SOPE   C2521055   1.568   5.162   7.060 -0.9418 -0.0055 -0.5644
  184SOPE   H5R21056   1.678   5.178   7.063 -1.3307  2.7421  0.2203
  184SOPE   H5S21057   1.511   5.257   7.055 -0.8915 -0.1123 -3.6480
  184SOPE   C2621058   1.532   5.086   7.188 -0.0458  0.1510  0.0518
  184SOPE   H6R21059   1.423   5.065   7.197 -0.1285  0.6255  0.1925
  184SOPE   H6S21060   1.580   4.987   7.175 -1.9310 -0.4649 -2.6426
  184SOPE   C2721061   1.598   5.147   7.311  0.3246  0.3427  0.3126
  184SOPE   H7R21062   1.705   5.173   7.297  0.5442 -0.5861  0.2129
  184SOPE   H7S21063   1.544   5.243   7.324 -1.1305 -0.0933 -2.2372
  184SOPE   C2821064   1.584   5.066   7.439  0.3898 -0.1189 -0.4173
  184SOPE   H8R21065   1.478   5.057   7.474 -0.1128 -1.6229 -2.2312
  184SOPE   H8S21066   1.635   4.971   7.410 -0.7997 -0.3041 -1.9627
  184SOPE   C2921067   1.661   5.133   7.546  0.1019 -0.3271 -0.4000
  184SOPE   H9121068   1.768   5.141   7.522  0.1724 -1.9406 -0.6907
  184SOPE  C21021069   1.617   5.187   7.660  0.2143 -0.2554 -0.0105
  184SOPE  H10121070   1.698   5.241   7.713 -0.0401 -0.5751  0.7152
  184SOPE  C21121071   1.475   5.204   7.708  0.5907 -0.0343  0.4619
  184SOPE  H11R21072   1.399   5.191   7.628  0.3863 -1.5392  0.8869
  184SOPE  H11S21073   1.457   5.308   7.745  0.8314  0.4758 -0.8361
  184SOPE  C21221074   1.437   5.105   7.819  0.6168  0.1557 -0.1621
  184SOPE  H12R21075   1.433   5.003   7.777 -0.8508 -0.6434  1.8308
  184SOPE  H12S21076   1.330   5.129   7.842  0.1781 -1.8487 -0.0701
  184SOPE  C21321077   1.518   5.106   7.948  0.3038 -0.1554 -0.0512
  184SOPE  H13R21078   1.627   5.113   7.930  0.0326 -1.4420 -2.3607
  184SOPE  H13S21079   1.490   5.016   8.006 -2.5747 -0.1516 -1.3066
  184SOPE  C21421080   1.496   5.228   8.038  0.3138 -0.4034  0.4328
  184SOPE  H14R21081   1.388   5.248   8.051  0.0891  0.1302 -2.0823
  184SOPE  H14S21082   1.536   5.318   7.985  1.6625 -1.8475 -1.0384
  184SOPE  C21521083   1.583   5.226   8.158 -0.6854 -0.7964 -0.5265
  184SOPE  H15R21084   1.599   5.321   8.214 -0.2140  0.4637 -2.7711
  184SOPE  H15S21085   1.681   5.182   8.134 -0.1736 -0.5753  1.0623
  184SOPE  C21621086   1.525   5.132   8.262  0.0228 -0.0723 -0.7124
  184SOPE  H16R21087   1.597   5.109   8.344 -1.9163 -1.2356  0.7079
  184SOPE  H16S21088   1.508   5.030   8.220 -0.1827 -0.3528  0.0469
  184SOPE  C21721089   1.394   5.184   8.329  0.2483 -0.0202  0.1352
  184SOPE  H17R21090   1.334   5.207   8.239 -0.0649  0.1390  0.3829
  184SOPE  H17S21091   1.409   5.274   8.393 -0.1084 -0.0721  0.2948
  184SOPE  C21821092   1.318   5.079   8.417  0.2734 -0.3942 -0.0388
  184SOPE  H18R21093   1.308   4.992   8.349  1.7602 -0.1318 -0.6200
  184SOPE  H18S21094   1.217   5.111   8.451 -0.4003 -2.0584 -0.4580
  184SOPE  H18T21095   1.373   5.053   8.510  0.3350 -0.2284 -0.0294
  184SOPE   C3321096   0.972   5.357   6.926 -0.2852  0.1221  0.1631
  184SOPE   H3X21097   0.880   5.377   6.985 -0.0025  1.0031  0.3114
  184SOPE   H3Y21098   1.034   5.446   6.947 -0.3541  0.0929  0.4975
  184SOPE   C3421099   1.029   5.226   6.984  0.4519 -0.7671 -0.6823
  184SOPE   H4X21100   1.042   5.149   6.905 -1.9034 -0.3621 -1.4867
  184SOPE   H4Y21101   0.955   5.182   7.054  0.3545  0.8045  0.2169
  184SOPE   C3521102   1.161   5.244   7.053  0.4231  0.3296 -0.2970
  184SOPE   H5X21103   1.235   5.308   7.001  0.4759  2.3685  2.2059
  184SOPE   H5Y21104   1.209   5.145   7.059  1.4309  0.8989  1.1714
  184SOPE   C3621105   1.145   5.297   7.199 -0.4273 -0.2015 -0.0919
  184SOPE   H6X21106   1.063   5.239   7.248  2.1158 -2.5996  1.4591
  184SOPE   H6Y21107   1.111   5.402   7.188  0.6123  0.1499 -0.0074
  184SOPE   C3721108   1.268   5.304   7.292  0.1676 -0.3022 -0.1678
  184SOPE   H7X21109   1.353   5.312   7.220 -0.3435  0.8027 -0.6701
  184SOPE   H7Y21110   1.275   5.217   7.360  1.0758  1.8698  2.6100
  184SOPE   C3821111   1.262   5.430   7.392 -0.1367  0.2698  0.8086
  184SOPE   H8X21112   1.287   5.524   7.338 -1.2095 -0.2290 -0.5939
  184SOPE   H8Y21113   1.340   5.421   7.470  0.7372  1.5045  0.1096
  184SOPE   C3921114   1.130   5.433   7.468 -0.2004 -1.3838  0.1332
  184SOPE   H9X21115   1.049   5.458   7.396  0.6889 -0.8851 -0.7091
  184SOPE   H9Y21116   1.138   5.510   7.547  0.0110  0.2355 -1.4452
  184SOPE  C31021117   1.090   5.307   7.543 -0.1692  0.4723 -0.3802
  184SOPE  H10X21118   1.187   5.276   7.588  1.0057  4.1190 -0.1854
  184SOPE  H10Y21119   1.045   5.226   7.483 -1.0689  0.3078  0.5083
  184SOPE  C31121120   0.991   5.327   7.666 -0.3242 -0.7529  0.2944
  184SOPE  H11X21121   1.040   5.384   7.748  3.0746 -0.3219 -1.9202
  184SOPE  H11Y21122   0.961   5.230   7.711 -0.2986 -1.9371 -2.1348
  184SOPE  C31221123   0.854   5.396   7.633  0.1411  0.1342 -0.0778
  184SOPE  H12X21124   0.857   5.487   7.570  0.6999  0.6239  0.6479
  184SOPE  H12Y21125   0.798   5.421   7.726  0.2886  2.9463 -0.7287
  184SOPE  C31321126   0.753   5.315   7.553 -0.0288  0.1871  0.1210
  184SOPE  H13X21127   0.762   5.216   7.603 -0.8154  1.3442  2.6493
  184SOPE  H13Y21128   0.783   5.309   7.446  0.3730  3.1996  0.0434
  184SOPE  C31421129   0.607   5.364   7.558  0.7523 -0.5954  0.8423
  184SOPE  H14X21130   0.604   5.424   7.652 -0.6772 -1.5162  1.3923
  184SOPE  H14Y21131   0.540   5.278   7.576 -0.7913  0.5815  0.8782
  184SOPE  C31521132   0.565   5.449   7.433 -0.1428  0.1612 -0.2924
  184SOPE  H15X21133   0.649   5.517   7.408  0.4035  0.5266  2.4191
  184SOPE  H15Y21134   0.472   5.505   7.459 -0.5813  0.1057 -1.6698
  184SOPE  C31621135   0.537   5.365   7.310  0.7524 -0.0847 -0.3752
  184SOPE  H16X21136   0.456   5.294   7.336  0.4447  0.5110  0.2901
  184SOPE  H16Y21137   0.628   5.305   7.287 -0.4420 -1.6280 -1.2337
  184SOPE  C31721138   0.474   5.443   7.185  0.3568 -0.2575  0.3236
  184SOPE  H17X21139   0.550   5.504   7.132 -0.8289  0.2734 -0.7861
  184SOPE  H17Y21140   0.412   5.525   7.227  0.3285 -0.6073  0.9768
  184SOPE  C31821141   0.395   5.360   7.091  0.0076 -0.6562  0.1515
  184SOPE  H18X21142   0.358   5.420   7.005  2.5933  1.4258  0.4304
  184SOPE  H18Y21143   0.309   5.330   7.155 -1.2507  2.2743 -0.0972
  184SOPE  H18Z21144   0.455   5.271   7.060  1.6030 -0.1500  1.7009
  185SAPI   C1221145   3.846   2.466  11.281  0.2044 -0.3762  0.8771
  185SAPI    H221146   3.737   2.456  11.300  0.7440 -1.5233  3.5450
  185SAPI    O221147   3.882   2.603  11.301  0.2111 -0.0886 -0.1562
  185SAPI   HO221148   3.852   2.662  11.232  3.1275  0.4736 -1.0431
  185SAPI   C1321149   3.914   2.380  11.382 -1.0688  0.5188  0.1042
  185SAPI    H321150   3.907   2.276  11.343 -2.1013  0.2042  1.0943
  185SAPI    O321151   3.840   2.395  11.506 -0.2019 -0.1338 -0.1561
  185SAPI   HO321152   3.807   2.485  11.506 -0.7532 -0.3266  0.6199
  185SAPI   C1421153   4.066   2.416  11.385 -0.1905  0.0881  0.7715
  185SAPI    H421154   4.073   2.525  11.402 -2.4432  0.4157 -0.2430
  185SAPI    O421155   4.141   2.341  11.488  0.1128 -0.3876  0.1776
  185SAPI   HO421156   4.219   2.396  11.501 -0.4074  0.0479  1.5113
  185SAPI   C1521157   4.125   2.385  11.241  0.0843  0.5689 -0.6468
  185SAPI    H521158   4.108   2.278  11.216 -1.4917  0.4121  0.9959
  185SAPI    O521159   4.265   2.422  11.242 -0.4902 -0.1759 -0.0448
  185SAPI   HO521160   4.316   2.368  11.181  0.2129  0.9973 -0.5192
  185SAPI   C1621161   4.049   2.460  11.136 -0.2701  0.4470 -0.2690
  185SAPI    H621162   4.068   2.570  11.139 -1.4339  0.6353  1.2105
  185SAPI    O621163   4.101   2.420  11.008 -0.6278  0.4143 -0.5134
  185SAPI   HO621164   4.196   2.426  11.018 -0.2962 -2.4919 -1.5380
  185SAPI   C1121165   3.898   2.434  11.138 -0.0864 -0.0475  0.4615
  185SAPI    H121166   3.897   2.323  11.131  0.2485 -0.0442  0.3272
  185SAPI     P21167   3.711   2.404  10.954  0.2965 -0.0784 -0.1367
  185SAPI   O1321168   3.622   2.485  10.869 -0.0822  0.7995 -0.1100
  185SAPI   O1421169   3.646   2.310  11.051 -0.1362  0.4550  0.8789
  185SAPI   O1221170   3.822   2.499  11.035  0.3683 -0.2825  0.0742
  185SAPI   O1121171   3.798   2.311  10.857  0.3236 -0.3330 -0.6672
  185SAPI    C121172   3.756   2.188  10.806  0.6978  0.0449 -0.1017
  185SAPI    HA21173   3.817   2.105  10.849  1.4859  0.5167 -0.2979
  185SAPI    HB21174   3.653   2.159  10.833  0.3765  1.0241 -0.2532
  185SAPI    C221175   3.770   2.174  10.650  0.3424  1.5216 -0.4656
  185SAPI    HS21176   3.722   2.075  10.632 -0.6915  1.7785  0.8124
  185SAPI   O2121177   3.908   2.177  10.609 -0.2032 -0.1070  0.1706
  185SAPI   C2121178   3.921   2.142  10.479 -0.0446  0.1987 -0.4996
  185SAPI   O2221179   3.854   2.058  10.419  0.1138  0.3485  0.5796
  185SAPI   C2221180   4.038   2.220  10.425 -0.2210 -0.7134  0.2046
  185SAPI   H2R21181   4.002   2.325  10.418  1.1858 -0.3138 -1.4895
  185SAPI   H2S21182   4.125   2.204  10.492  0.8769 -1.1100 -1.2903
  185SAPI    C321183   3.685   2.291  10.587 -0.3680  0.4580  0.1340
  185SAPI    HX21184   3.739   2.384  10.562 -0.4551  0.1914 -1.0642
  185SAPI    HY21185   3.605   2.316  10.660 -0.1456  2.3607 -0.2632
  185SAPI   O3121186   3.619   2.239  10.472  0.0008  0.7693  0.1048
  185SAPI   C3121187   3.655   2.290  10.349 -0.1906  0.1797 -0.3347
  185SAPI   O3221188   3.741   2.373  10.326 -0.0529  0.1576 -0.4719
  185SAPI   C3221189   3.572   2.223  10.244  0.1353  0.6667  0.1949
  185SAPI   H2X21190   3.472   2.235  10.290  1.0287  2.0475  1.8270
  185SAPI   H2Y21191   3.595   2.115  10.234 -0.0395  0.6773 -0.3495
  185SAPI   C2321192   4.079   2.183  10.279  1.2966  0.2829 -0.0083
  185SAPI   H3R21193   4.084   2.073  10.264  0.1274  0.0866  0.9860
  185SAPI   H3S21194   4.183   2.221  10.262  1.3167  0.8303  1.2608
  185SAPI   C2421195   3.997   2.243  10.163 -0.5011  0.0256 -0.1300
  185SAPI   H4R21196   4.005   2.351  10.187 -1.0074  0.1068 -0.3336
  185SAPI   H4S21197   3.890   2.216  10.168 -0.3267 -0.9244 -1.2626
  185SAPI   C2521198   4.058   2.226  10.025  0.4622  0.6053  0.0589
  185SAPI   H5R21199   4.067   2.323   9.974  0.8113  0.7824  0.4535
  185SAPI   C2621200   4.075   2.111   9.950 -0.3142  0.1682  0.3211
  185SAPI   H6R21201   4.128   2.115   9.853 -0.5221  0.6572  0.2235
  185SAPI   C2721202   4.044   1.968   9.991  0.0073 -0.5987  0.1649
  185SAPI   H7R21203   4.080   1.945  10.094  1.7462 -0.9611 -0.5093
  185SAPI   H7S21204   4.081   1.893   9.918 -1.8238 -1.5164  0.1444
  185SAPI   C2821205   3.890   1.968   9.986 -0.3463  0.4718 -0.4578
  185SAPI   H8R21206   3.843   2.001  10.080  2.2658  1.9827  0.3671
  185SAPI   C2921207   3.814   1.932   9.881 -0.5454 -0.4115  0.5755
  185SAPI   H9R21208   3.705   1.934   9.900 -1.0135 -2.5574 -1.5498
  185SAPI  C21021209   3.862   1.876   9.748  0.4742  0.3536  0.4449
  185SAPI  H10R21210   3.869   1.767   9.769  2.2447  0.0141 -1.7252
  185SAPI  H10S21211   3.963   1.913   9.723  1.3985 -1.7172  0.9518
  185SAPI  C21121212   3.769   1.907   9.630 -0.4961 -0.3172 -0.1915
  185SAPI  H11R21213   3.663   1.891   9.654 -0.6976 -0.6335 -1.2733
  185SAPI  C21221214   3.800   1.952   9.510 -0.3903 -0.5585 -0.1396
  185SAPI  H12R21215   3.718   1.975   9.440 -0.6670 -0.7813  0.1094
  185SAPI  C21321216   3.939   1.972   9.456 -0.5890  0.2633 -0.2149
  185SAPI  H13R21217   3.929   2.005   9.351 -0.2811  3.1972  0.6118
  185SAPI  H13S21218   3.981   1.871   9.438 -1.3252 -0.1907  0.5367
  185SAPI  C21421219   4.029   2.074   9.520 -0.0112  0.0525 -0.0934
  185SAPI  H14R21220   4.047   2.062   9.627 -2.1330  0.5580  0.3351
  185SAPI  C21521221   4.107   2.162   9.453 -1.0070  0.5082 -0.2611
  185SAPI  H15R21222   4.173   2.233   9.504 -1.6423  1.3380 -0.5769
  185SAPI  C21621223   4.123   2.178   9.296 -0.2917  0.3413 -0.6135
  185SAPI  H16R21224   4.086   2.277   9.263 -2.4635  0.0447  0.8549
  185SAPI  H16S21225   4.072   2.104   9.231 -0.4923  1.0647 -1.2784
  185SAPI  C21721226   4.276   2.171   9.258  0.3664 -0.4497  0.2059
  185SAPI  H17R21227   4.332   2.117   9.338 -0.3748 -1.1483  0.2609
  185SAPI  H17S21228   4.320   2.273   9.263 -2.5829  0.8703 -0.0771
  185SAPI  C21821229   4.304   2.101   9.118 -0.4730  0.4039  0.3367
  185SAPI  H18R21230   4.251   2.149   9.032 -1.2240 -1.0690 -0.0393
  185SAPI  H18S21231   4.263   1.998   9.122 -0.0131  0.1338 -1.5659
  185SAPI  C21921232   4.462   2.079   9.086  0.2859 -0.4591 -0.2809
  185SAPI  H19R21233   4.467   1.989   9.021 -3.0657  0.4845 -2.0071
  185SAPI  H19S21234   4.518   2.057   9.179  0.5133  0.5184 -0.1745
  185SAPI  C22021235   4.535   2.191   9.009 -0.8234 -0.0437 -0.2757
  185SAPI  H20R21236   4.643   2.181   8.986 -0.3561  2.3993  0.7123
  185SAPI  H20S21237   4.526   2.281   9.072  2.4797  2.0993 -2.6905
  185SAPI  H20T21238   4.483   2.212   8.913  1.6159 -0.6416 -1.7850
  185SAPI   C3321239   3.585   2.290  10.094  0.0234  0.3423  0.3275
  185SAPI   H3X21240   3.690   2.314  10.065 -0.4653  1.1746 -0.8538
  185SAPI   H3Y21241   3.524   2.383  10.088 -0.2321  0.0895 -1.4926
  185SAPI   C3421242   3.525   2.186   9.997  0.4170  0.2697  1.6781
  185SAPI   H4X21243   3.424   2.147  10.024 -0.0171  0.9815  1.0837
  185SAPI   H4Y21244   3.587   2.094  10.006  1.0241  0.4685 -0.2501
  185SAPI   C3521245   3.521   2.233   9.853 -0.0548 -0.3578 -0.1479
  185SAPI   H5X21246   3.624   2.260   9.822  0.7839 -0.7970  2.1390
  185SAPI   H5Y21247   3.455   2.322   9.849 -0.8745 -0.8253  1.8930
  185SAPI   C3621248   3.461   2.126   9.756 -0.0707  0.5180  0.5504
  185SAPI   H6X21249   3.373   2.076   9.801  0.3289 -0.0938  0.6604
  185SAPI   H6Y21250   3.540   2.049   9.745 -0.9009 -0.2527 -0.0998
  185SAPI   C3721251   3.407   2.178   9.623 -0.5290 -0.2580  0.0578
  185SAPI   H7X21252   3.490   2.227   9.567 -0.8325 -1.1204 -1.1971
  185SAPI   H7Y21253   3.335   2.259   9.644  0.5911  0.5401  0.8808
  185SAPI   C3821254   3.351   2.066   9.534  0.5045 -0.3044 -0.2734
  185SAPI   H8X21255   3.248   2.053   9.573  0.9889 -0.9586  0.7890
  185SAPI   H8Y21256   3.408   1.973   9.556  1.9024  1.1786  2.7536
  185SAPI   C3921257   3.358   2.094   9.393 -0.0745  0.5947 -0.0034
  185SAPI   H9X21258   3.459   2.113   9.352 -0.3200  0.9818 -0.4398
  185SAPI   H9Y21259   3.295   2.181   9.363 -0.7890  0.0824 -0.0097
  185SAPI  C31021260   3.306   1.976   9.315  0.2260 -0.0138 -0.0557
  185SAPI  H10X21261   3.201   1.958   9.348  0.2724 -0.6890 -0.2844
  185SAPI  H10Y21262   3.353   1.879   9.342 -0.7925 -0.1509  1.2900
  185SAPI  C31121263   3.318   2.009   9.163  0.9023  0.6886  0.7228
  185SAPI  H11X21264   3.426   2.019   9.136  0.7060  2.7568  0.6020
  185SAPI  H11Y21265   3.278   2.110   9.139 -0.7088  0.1605  1.1360
  185SAPI  C31221266   3.251   1.905   9.067 -0.0761 -0.3643  0.8254
  185SAPI  H12X21267   3.141   1.903   9.079 -0.3333 -2.9957 -1.2992
  185SAPI  H12Y21268   3.283   1.799   9.082  0.7386 -0.1634  0.5335
  185SAPI  C31321269   3.290   1.937   8.919  0.0384 -0.5691 -0.3418
  185SAPI  H13X21270   3.400   1.952   8.917 -0.0950  0.8092  1.4707
  185SAPI  H13Y21271   3.257   2.037   8.885  2.6732  0.5094  0.1481
  185SAPI  C31421272   3.254   1.832   8.814  0.2403 -0.2132 -0.5468
  185SAPI  H14X21273   3.144   1.826   8.799  0.2460 -0.9633 -0.3146
  185SAPI  H14Y21274   3.267   1.728   8.850 -0.2817 -0.6271 -1.5519
  185SAPI  C31521275   3.337   1.850   8.688 -0.4134 -0.1463  0.1808
  185SAPI  H15X21276   3.337   1.759   8.624  1.0640  0.8110 -1.2303
  185SAPI  H15Y21277   3.440   1.845   8.729  0.1224 -1.0875 -1.2349
  185SAPI  C31621278   3.298   1.967   8.596  0.1188 -0.1212  0.0731
  185SAPI  H16X21279   3.291   2.063   8.652 -0.0445  1.0603 -1.9474
  185SAPI  H16Y21280   3.198   1.952   8.550 -0.1057 -0.0305  0.5250
  185SAPI  C31721281   3.407   1.997   8.485  0.2700  0.5765 -0.0371
  185SAPI  H17X21282   3.506   1.970   8.528 -0.6314  0.1586  1.8336
  185SAPI  H17Y21283   3.430   2.105   8.476  3.4131  0.0913  1.2051
  185SAPI  C31821284   3.393   1.919   8.349  0.0077 -0.2208 -0.3314
  185SAPI  H18X21285   3.298   1.947   8.299  0.1375  2.1853  0.6600
  185SAPI  H18Y21286   3.387   1.809   8.360  1.2030 -0.3669 -0.9950
  185SAPI  H18Z21287   3.476   1.963   8.289  2.6701 -1.9418  1.9317
  186SAPI   C1221288   4.850   0.146  10.990 -0.5867  0.2501 -0.0308
  186SAPI    H221289   4.872   0.051  10.938 -2.0234 -0.2049  0.1608
  186SAPI    O221290   4.710   0.160  10.978 -0.0187 -0.3223 -0.1782
  186SAPI   HO221291   4.688   0.118  10.894 -0.1465  2.0460 -1.3531
  186SAPI   C1321292   4.910   0.134  11.126 -0.3546  0.3819  0.4876
  186SAPI    H321293   5.020   0.130  11.111  0.1574  3.1452  2.9873
  186SAPI    O321294   4.874   0.009  11.190 -0.1949 -0.7554 -0.1637
  186SAPI   HO321295   4.784  -0.013  11.166 -0.2431 -0.3702 -0.3566
  186SAPI   C1421296   4.890   0.265  11.207  0.0576  0.0328 -0.4835
  186SAPI    H421297   4.780   0.277  11.217 -0.3478 -3.2203 -0.4722
  186SAPI    O421298   4.942   0.242  11.337  0.2820 -0.4877  0.0176
  186SAPI   HO421299   4.865   0.249  11.394 -0.6560 -0.2898 -1.2567
  186SAPI   C1521300   4.949   0.374  11.124 -0.6553 -0.2839 -0.5501
  186SAPI    H521301   5.057   0.353  11.104 -1.0191 -1.2996 -1.5057
  186SAPI    O521302   4.951   0.498  11.192  0.1505 -0.6234  0.1755
  186SAPI   HO521303   4.979   0.561  11.126 -1.4499  0.0065  0.0869
  186SAPI   C1621304   4.885   0.385  10.985  0.3580  0.2093 -0.5442
  186SAPI    H621305   4.774   0.396  10.995  0.5701  1.7414  0.2900
  186SAPI    O621306   4.942   0.494  10.912 -0.1448  0.2855  0.1526
  186SAPI   HO621307   4.981   0.462  10.829  0.1269  0.1027  0.3479
  186SAPI   C1121308   4.916   0.257  10.914 -0.8532  0.4082 -0.6364
  186SAPI    H121309   5.025   0.232  10.909 -0.9704  0.1313 -2.0113
  186SAPI     P21310   4.966   0.286  10.642 -0.0001  0.2768 -0.6219
  186SAPI   O1321311   5.064   0.389  10.683  0.0773  0.3621 -0.0457
  186SAPI   O1421312   4.888   0.312  10.522 -0.1362 -0.0569  0.3367
  186SAPI   O1221313   4.871   0.258  10.771  0.0474 -0.3570 -0.4338
  186SAPI   O1121314   5.040   0.150  10.620 -0.7293 -0.1951 -0.0832
  186SAPI    C121315   4.987   0.017  10.628  0.3658  0.2718 -0.2590
  186SAPI    HA21316   5.049  -0.038  10.702  1.9522  0.4488 -1.4502
  186SAPI    HB21317   4.880   0.026  10.659  0.5990 -1.8526  1.2494
  186SAPI    C221318   4.973  -0.063  10.490  0.0540  0.1513  0.3858
  186SAPI    HS21319   5.070  -0.065  10.435  0.2336  0.2465  0.6963
  186SAPI   O2121320   4.873   0.006  10.415 -0.5179 -0.4718  0.2959
  186SAPI   C2121321   4.893   0.003  10.279 -0.0133 -0.2913  0.0758
  186SAPI   O2221322   4.992  -0.044  10.222  0.2519 -0.1184  0.0545
  186SAPI   C2221323   4.782   0.074  10.206 -0.1508 -0.0698 -0.7672
  186SAPI   H2R21324   4.688   0.041  10.255  0.3748  2.6953  2.2713
  186SAPI   H2S21325   4.801   0.182  10.224  0.8886 -0.0713 -1.8329
  186SAPI    C321326   4.923  -0.211  10.510  0.3519 -0.1728 -0.4206
  186SAPI    HX21327   4.820  -0.210  10.550  0.8842  0.2230  0.9550
  186SAPI    HY21328   4.977  -0.260  10.594  0.6509  0.8927  0.0074
  186SAPI   O3121329   4.940  -0.282  10.385  0.5205  0.0363  0.6783
  186SAPI   C3121330   5.064  -0.330  10.362  0.0617 -0.0435  0.4163
  186SAPI   O3221331   5.148  -0.346  10.449 -0.0344  0.3870  0.5110
  186SAPI   C3221332   5.070  -0.378  10.213 -0.6184  0.3465  0.0218
  186SAPI   H2X21333   4.972  -0.353  10.166  0.2935  1.9679 -1.0779
  186SAPI   H2Y21334   5.070  -0.489  10.215 -1.2107  0.2971 -1.7649
  186SAPI   C2321335   4.795   0.038  10.058  0.6926  0.6876  0.2789
  186SAPI   H3R21336   4.779  -0.071  10.043 -1.3571  0.7759  1.6298
  186SAPI   H3S21337   4.896   0.045  10.014  0.9161 -0.7969  0.5295
  186SAPI   C2421338   4.687   0.102   9.962 -0.1971 -0.0084  0.8789
  186SAPI   H4R21339   4.583   0.065   9.977 -0.0519 -0.4510  0.7882
  186SAPI   H4S21340   4.717   0.068   9.860  0.3818 -2.4706  1.8503
  186SAPI   C2521341   4.686   0.247   9.981 -0.3614 -0.8889  0.2650
  186SAPI   H5R21342   4.731   0.275  10.077 -0.6030  0.4348  0.0032
  186SAPI   C2621343   4.638   0.334   9.896  0.4664  0.5733  0.0101
  186SAPI   H6R21344   4.637   0.439   9.928 -1.1967 -0.0911  2.1997
  186SAPI   C2721345   4.583   0.284   9.765  0.0661 -0.0499  0.3011
  186SAPI   H7R21346   4.531   0.187   9.770  0.7908 -0.5828 -1.8778
  186SAPI   H7S21347   4.663   0.266   9.690 -2.5988  0.6125 -2.8173
  186SAPI   C2821348   4.500   0.384   9.699  0.6657 -0.4302  0.1828
  186SAPI   H8R21349   4.450   0.463   9.757 -0.4443  1.7237 -3.5165
  186SAPI   C2921350   4.474   0.383   9.563 -0.1414  0.0926  0.3466
  186SAPI   H9R21351   4.405   0.456   9.518 -0.8299  0.0260  1.2868
  186SAPI  C21021352   4.530   0.290   9.455 -0.3240  0.2449  0.0116
  186SAPI  H10R21353   4.476   0.194   9.467  1.5661 -0.5033  3.0534
  186SAPI  H10S21354   4.639   0.266   9.460 -0.4525 -0.8819 -2.0492
  186SAPI  C21121355   4.501   0.358   9.322  0.4494  0.3695 -0.1718
  186SAPI  H11R21356   4.397   0.339   9.290 -0.1140  2.7262  0.1575
  186SAPI  C21221357   4.589   0.437   9.253  0.2083  0.1639  0.0540
  186SAPI  H12R21358   4.552   0.497   9.168 -1.1968 -0.0180  0.5236
  186SAPI  C21321359   4.733   0.476   9.280 -0.7562 -0.9632  0.5942
  186SAPI  H13R21360   4.777   0.412   9.360  0.6650  0.6895  1.1729
  186SAPI  H13S21361   4.739   0.578   9.322 -2.1139  0.0823 -1.6714
  186SAPI  C21421362   4.830   0.474   9.167  0.0589  0.3159  0.0463
  186SAPI  H14R21363   4.911   0.401   9.185 -0.5553 -0.5686 -0.7426
  186SAPI  C21521364   4.838   0.547   9.053  0.1457  0.5633  0.0968
  186SAPI  H15R21365   4.915   0.511   8.984 -1.7230 -1.6564 -0.9127
  186SAPI  C21621366   4.744   0.662   9.010  0.1665 -0.0992 -0.1879
  186SAPI  H16R21367   4.797   0.753   8.976  0.6431  0.0221  0.8511
  186SAPI  H16S21368   4.684   0.685   9.101 -1.2256  0.0683 -1.1219
  186SAPI  C21721369   4.644   0.614   8.901 -0.3082 -0.8887  0.3116
  186SAPI  H17R21370   4.555   0.680   8.909 -0.3684 -1.0942  1.5019
  186SAPI  H17S21371   4.597   0.517   8.926 -0.5937 -0.8271  0.0193
  186SAPI  C21821372   4.702   0.614   8.762 -1.0535  0.0800  0.0966
  186SAPI  H18R21373   4.772   0.528   8.757 -1.3687 -0.1517 -0.3864
  186SAPI  H18S21374   4.753   0.712   8.749 -0.8633 -0.2928 -2.2302
  186SAPI  C21921375   4.594   0.592   8.660 -0.3223 -0.1509  0.7676
  186SAPI  H19R21376   4.525   0.679   8.657  2.3662  2.0766  1.2140
  186SAPI  H19S21377   4.537   0.498   8.674  1.3614 -1.0599  1.8040
  186SAPI  C22021378   4.649   0.589   8.513  0.0500 -0.7592  1.2206
  186SAPI  H20R21379   4.740   0.650   8.498 -0.4636 -0.6765 -1.8216
  186SAPI  H20S21380   4.571   0.597   8.434  0.0831  0.3315  1.3019
  186SAPI  H20T21381   4.675   0.481   8.500  1.0677 -0.2937 -0.7713
  186SAPI   C3321382   5.200  -0.320  10.148  0.3021 -0.6308  0.5719
  186SAPI   H3X21383   5.282  -0.379  10.193  1.5072  0.4706 -0.1776
  186SAPI   H3Y21384   5.213  -0.211  10.168 -1.5569 -0.7924  2.9774
  186SAPI   C3421385   5.219  -0.346   9.999 -0.3992  0.6232  0.4846
  186SAPI   H4X21386   5.245  -0.451   9.974 -1.3609  0.7398 -1.0663
  186SAPI   H4Y21387   5.296  -0.276   9.960 -0.4790 -0.9102 -2.5597
  186SAPI   C3521388   5.088  -0.316   9.914  0.5724  0.5585 -1.4541
  186SAPI   H5X21389   5.059  -0.210   9.934  1.8255  0.8015 -0.8641
  186SAPI   H5Y21390   5.011  -0.387   9.950  0.2845  0.6678 -1.8584
  186SAPI   C3621391   5.107  -0.348   9.761  0.4168 -0.2096  0.3332
  186SAPI   H6X21392   5.148  -0.448   9.737  3.1838  1.0327 -0.3678
  186SAPI   H6Y21393   5.179  -0.269   9.731  1.2673 -0.5877  1.3478
  186SAPI   C3721394   4.974  -0.329   9.684  0.0515  1.0081 -0.8969
  186SAPI   H7X21395   4.891  -0.374   9.741  0.9154  0.6798  0.1161
  186SAPI   H7Y21396   4.969  -0.381   9.586  0.0608 -0.6291 -0.0494
  186SAPI   C3821397   4.928  -0.183   9.668  0.5603  0.7529  0.3759
  186SAPI   H8X21398   5.001  -0.143   9.595 -1.3182  3.1877 -0.2532
  186SAPI   H8Y21399   4.936  -0.120   9.760  1.0329 -0.1822  0.9838
  186SAPI   C3921400   4.782  -0.157   9.615 -0.3407  0.5509  0.4634
  186SAPI   H9X21401   4.706  -0.198   9.685 -0.3391  0.9742  0.7160
  186SAPI   H9Y21402   4.770  -0.217   9.522 -2.2988  3.0099 -0.9363
  186SAPI  C31021403   4.755  -0.016   9.570 -0.7861  0.6702 -0.0221
  186SAPI  H10X21404   4.799   0.051   9.648 -0.3752  1.3678 -0.8477
  186SAPI  H10Y21405   4.644  -0.005   9.571 -0.7018  1.6089  0.2892
  186SAPI  C31121406   4.808   0.022   9.434 -1.2485 -0.5254  0.7995
  186SAPI  H11X21407   4.912  -0.008   9.408 -0.9763 -0.4908  1.8196
  186SAPI  H11Y21408   4.811   0.133   9.439  0.7344 -0.3325 -2.8777
  186SAPI  C31221409   4.727  -0.040   9.320  0.0387  0.3449 -0.0855
  186SAPI  H12X21410   4.626  -0.004   9.347  0.6679  1.3695  0.9850
  186SAPI  H12Y21411   4.722  -0.150   9.326  0.8951  0.3072  0.0504
  186SAPI  C31321412   4.761   0.017   9.180 -0.8447 -0.1088  0.0563
  186SAPI  H13X21413   4.855  -0.025   9.139  0.0727 -0.1714  2.1915
  186SAPI  H13Y21414   4.779   0.125   9.198 -0.2698 -0.2296  0.2022
  186SAPI  C31421415   4.650   0.007   9.070 -0.5039  0.2514 -0.5525
  186SAPI  H14X21416   4.558   0.052   9.111  0.1282  0.0818  1.0796
  186SAPI  H14Y21417   4.633  -0.100   9.045 -0.3605  0.2105 -0.4757
  186SAPI  C31521418   4.687   0.070   8.945 -0.0619  0.4499 -0.2533
  186SAPI  H15X21419   4.783   0.035   8.901 -0.2633  1.6702 -1.6968
  186SAPI  H15Y21420   4.707   0.174   8.978 -0.0110  0.4882 -0.4065
  186SAPI  C31621421   4.584   0.067   8.828 -1.0812 -0.4350  1.1795
  186SAPI  H16X21422   4.483   0.102   8.861 -1.8050 -1.4074  0.0293
  186SAPI  H16Y21423   4.573  -0.037   8.791  3.0485 -1.0874  1.5475
  186SAPI  C31721424   4.633   0.152   8.712  0.5777  1.0901  0.3051
  186SAPI  H17X21425   4.647   0.253   8.755 -2.6212  2.5070 -1.7656
  186SAPI  H17Y21426   4.540   0.171   8.654  1.3426  0.8600 -1.0170
  186SAPI  C31821427   4.744   0.095   8.624 -0.8695 -0.8196  0.2582
  186SAPI  H18X21428   4.696   0.019   8.560 -0.3518 -0.8988 -0.0300
  186SAPI  H18Y21429   4.823   0.053   8.690  1.2114  1.6547 -0.5661
  186SAPI  H18Z21430   4.789   0.179   8.567 -0.9275 -1.4859 -0.7835
  187SAPI   C1221431   1.747   1.213   6.297 -0.2714  0.0227 -0.2502
  187SAPI    H221432   1.740   1.225   6.407  0.8147  0.4149 -0.2188
  187SAPI    O221433   1.886   1.210   6.261  0.3727 -0.5917  0.2733
  187SAPI   HO221434   1.937   1.289   6.281 -0.3308  1.4585 -5.0867
  187SAPI   C1321435   1.691   1.079   6.264  0.0089  0.5674 -0.3490
  187SAPI    H321436   1.583   1.080   6.288 -0.3242 -0.5236 -1.7894
  187SAPI    O321437   1.744   0.981   6.356 -0.1055 -0.3163  0.0963
  187SAPI   HO321438   1.840   0.984   6.353 -0.0834  0.7802  1.1119
  187SAPI   C1421439   1.710   1.047   6.114  0.6184  0.9076  0.5782
  187SAPI    H421440   1.819   1.033   6.097  0.6315  0.9983  0.5899
  187SAPI    O421441   1.674   0.915   6.075 -0.7391  0.8697  0.4339
  187SAPI   HO421442   1.745   0.866   6.116 -1.4541  1.0079  1.8893
  187SAPI   C1521443   1.642   1.155   6.029  0.3295  0.0540  0.1252
  187SAPI    H521444   1.532   1.143   6.046  0.1428 -0.0329 -1.1125
  187SAPI    O521445   1.668   1.123   5.892  0.1263  0.7553  0.0770
  187SAPI   HO521446   1.612   1.171   5.830  0.8455 -0.2483 -1.3769
  187SAPI   C1621447   1.686   1.294   6.068 -0.4347  0.1005 -0.1507
  187SAPI    H621448   1.795   1.301   6.049 -0.0590 -1.1977  1.4198
  187SAPI    O621449   1.609   1.401   6.003  0.1324 -0.1699  0.0581
  187SAPI   HO621450   1.518   1.394   6.031 -0.3158 -0.8424 -1.4608
  187SAPI   C1121451   1.668   1.320   6.223  0.1717 -0.7161 -0.7127
  187SAPI    H121452   1.559   1.310   6.242 -0.2037  1.9568 -1.2348
  187SAPI     P21453   1.634   1.569   6.314 -0.3912 -0.2031  0.2690
  187SAPI   O1321454   1.491   1.548   6.280 -0.4638 -0.5719 -0.2298
  187SAPI   O1421455   1.709   1.684   6.256 -0.0881  0.0523 -0.0313
  187SAPI   O1221456   1.726   1.443   6.267  0.2227  0.0646  0.1065
  187SAPI   O1121457   1.652   1.565   6.475  0.8336  0.7341 -0.2090
  187SAPI    C121458   1.586   1.469   6.549  0.1798  0.0610 -0.0436
  187SAPI    HA21459   1.515   1.409   6.488  1.4526  0.2729 -1.7661
  187SAPI    HB21460   1.654   1.391   6.590 -0.3815 -0.8171 -0.7673
  187SAPI    C221461   1.511   1.532   6.666 -0.0568  0.3221 -0.9517
  187SAPI    HS21462   1.470   1.627   6.625 -1.2429  0.2303 -0.0109
  187SAPI   O2121463   1.596   1.556   6.773 -0.0691 -0.4232 -0.7176
  187SAPI   C2121464   1.663   1.670   6.771 -0.4120  0.3096  0.4264
  187SAPI   O2221465   1.666   1.754   6.684 -0.1980 -0.2151  0.5434
  187SAPI   C2221466   1.737   1.691   6.901  0.2581 -0.0259  0.1893
  187SAPI   H2R21467   1.715   1.607   6.970  1.1680 -1.3696 -1.1161
  187SAPI   H2S21468   1.841   1.692   6.862 -0.4963 -0.9526 -1.9615
  187SAPI    C321469   1.393   1.433   6.709 -0.1186  0.0147  0.3266
  187SAPI    HX21470   1.436   1.344   6.759  1.4013 -0.1718 -1.2763
  187SAPI    HY21471   1.338   1.395   6.620 -0.3865  0.1568  0.4311
  187SAPI   O3121472   1.288   1.491   6.787  0.2229  0.7944 -0.0243
  187SAPI   C3121473   1.303   1.485   6.918  0.1563  0.0838 -0.7162
  187SAPI   O3221474   1.380   1.412   6.978 -0.4184 -0.2938 -0.5387
  187SAPI   C3221475   1.201   1.580   6.978  0.1284  0.2670  0.2600
  187SAPI   H2X21476   1.113   1.589   6.911 -0.4229 -1.3108  0.7582
  187SAPI   H2Y21477   1.244   1.683   6.986  1.6309 -0.5387  3.3181
  187SAPI   C2321478   1.696   1.823   6.963 -0.3617 -0.1449 -0.0946
  187SAPI   H3R21479   1.711   1.906   6.891  2.3375 -0.1658  0.3875
  187SAPI   H3S21480   1.759   1.844   7.052  1.4602  1.2077 -1.6695
  187SAPI   C2421481   1.554   1.821   7.022 -0.2896  0.1612  0.5181
  187SAPI   H4R21482   1.553   1.729   7.084 -1.7901  1.2209  2.1109
  187SAPI   H4S21483   1.487   1.806   6.935  0.8911 -2.0233 -0.0521
  187SAPI   C2521484   1.536   1.948   7.098 -0.8282 -0.1311  0.2008
  187SAPI   H5R21485   1.525   2.039   7.038 -1.1015 -0.9515 -1.0131
  187SAPI   C2621486   1.545   1.960   7.231  0.5169 -0.1416  0.2518
  187SAPI   H6R21487   1.541   2.060   7.278  0.0043 -0.8703  1.7846
  187SAPI   C2721488   1.558   1.841   7.325 -0.4664  1.2244 -0.2220
  187SAPI   H7R21489   1.518   1.745   7.287  1.4651 -0.7447  2.5264
  187SAPI   H7S21490   1.495   1.859   7.415 -3.5210 -4.5048 -0.9514
  187SAPI   C2821491   1.697   1.816   7.385 -0.4999 -0.6560 -0.1597
  187SAPI   H8R21492   1.774   1.882   7.342 -0.3511 -0.1786  0.8312
  187SAPI   C2921493   1.719   1.738   7.490  0.1899 -0.1065 -0.6765
  187SAPI   H9R21494   1.822   1.728   7.527  0.7254 -0.4899 -2.2445
  187SAPI  C21021495   1.619   1.654   7.565 -0.4660 -0.9546  0.3698
  187SAPI  H10R21496   1.648   1.548   7.550 -0.4111 -0.5503 -2.6308
  187SAPI  H10S21497   1.521   1.656   7.514 -1.3428 -0.6380  2.0247
  187SAPI  C21121498   1.612   1.692   7.709  0.1425  0.8712 -0.4948
  187SAPI  H11R21499   1.612   1.799   7.735 -0.5235  0.5432  0.9279
  187SAPI  C21221500   1.642   1.600   7.812 -0.0738 -0.8200  0.4527
  187SAPI  H12R21501   1.644   1.620   7.920  2.9423 -1.0810  0.4759
  187SAPI  C21321502   1.675   1.456   7.793 -0.1322 -0.1535 -0.8987
  187SAPI  H13R21503   1.718   1.439   7.692  0.7458  0.0033 -0.5484
  187SAPI  H13S21504   1.582   1.396   7.787 -0.1417 -0.1596 -0.6881
  187SAPI  C21421505   1.777   1.406   7.897  0.7207  0.3920 -0.8434
  187SAPI  H14R21506   1.884   1.427   7.885  0.6698  0.6426 -0.8624
  187SAPI  C21521507   1.750   1.320   8.004  0.0746 -0.1831  0.0711
  187SAPI  H15R21508   1.827   1.286   8.075  0.8827 -1.1517 -1.2478
  187SAPI  C21621509   1.623   1.251   8.040 -0.1302  1.0739  0.2391
  187SAPI  H16R21510   1.620   1.146   8.003  2.4946  1.3607 -0.8841
  187SAPI  H16S21511   1.542   1.304   7.986  0.4135  2.0291  0.3624
  187SAPI  C21721512   1.589   1.236   8.184  0.3598  0.1141 -0.2791
  187SAPI  H17R21513   1.677   1.183   8.228  0.7817  2.7178  2.1648
  187SAPI  H17S21514   1.499   1.173   8.203 -0.7857  0.9710 -2.7602
  187SAPI  C21821515   1.562   1.360   8.259 -0.6185 -0.3904 -0.5704
  187SAPI  H18R21516   1.452   1.368   8.259 -0.6013  0.0569  0.6694
  187SAPI  H18S21517   1.600   1.452   8.210 -2.4571  1.6346  1.6820
  187SAPI  C21921518   1.604   1.362   8.410 -0.3545  0.4978 -0.4543
  187SAPI  H19R21519   1.546   1.283   8.464  0.7571 -0.9176 -1.2876
  187SAPI  H19S21520   1.580   1.463   8.450 -0.2820  0.7336 -1.0156
  187SAPI  C22021521   1.758   1.340   8.441  0.3006  0.4485 -0.8024
  187SAPI  H20R21522   1.817   1.434   8.441  1.9937 -0.5793 -2.7071
  187SAPI  H20S21523   1.797   1.273   8.361 -0.4574  0.7335 -1.4145
  187SAPI  H20T21524   1.766   1.295   8.542 -0.7007 -1.7447 -1.6791
  187SAPI   C3321525   1.162   1.542   7.124 -0.4112 -0.1738  0.1616
  187SAPI   H3X21526   1.123   1.438   7.117 -0.8609  0.0798 -1.3957
  187SAPI   H3Y21527   1.080   1.609   7.157  0.7109  0.6732  1.3082
  187SAPI   C3421528   1.271   1.560   7.223  0.1631  0.0109  0.5952
  187SAPI   H4X21529   1.324   1.656   7.206 -2.0185  1.1765  0.1783
  187SAPI   H4Y21530   1.348   1.483   7.201 -0.2471 -0.3416  0.3809
  187SAPI   C3521531   1.208   1.524   7.362  0.4991 -0.8638  0.1860
  187SAPI   H5X21532   1.292   1.498   7.430  1.1298 -1.0000 -0.6285
  187SAPI   H5Y21533   1.140   1.439   7.343 -0.2111  0.3823 -3.2159
  187SAPI   C3621534   1.154   1.643   7.445  0.7909  0.0617 -0.1014
  187SAPI   H6X21535   1.069   1.696   7.397 -0.1635 -0.1715  1.3029
  187SAPI   H6Y21536   1.231   1.723   7.433  2.1089 -0.9476  1.4228
  187SAPI   C3721537   1.129   1.614   7.589  0.3954  0.1387  0.2244
  187SAPI   H7X21538   1.086   1.512   7.602  0.2357 -0.1425 -2.3752
  187SAPI   H7Y21539   1.050   1.685   7.622 -0.9698 -0.6745 -1.1967
  187SAPI   C3821540   1.250   1.642   7.681 -0.0109 -0.2938 -0.4759
  187SAPI   H8X21541   1.299   1.732   7.640  0.3803 -1.4865 -2.7083
  187SAPI   H8Y21542   1.326   1.562   7.669  1.1366  0.6294  0.6602
  187SAPI   C3921543   1.190   1.649   7.822 -0.5854 -0.0959 -0.1156
  187SAPI   H9X21544   1.114   1.573   7.847 -0.8610 -0.5875 -2.4050
  187SAPI   H9Y21545   1.138   1.747   7.831  1.9493  1.5699 -2.7431
  187SAPI  C31021546   1.288   1.639   7.941 -0.4502  0.3677 -0.2671
  187SAPI  H10X21547   1.383   1.693   7.922  0.0600 -1.2441 -2.4201
  187SAPI  H10Y21548   1.318   1.534   7.957 -2.8322 -0.6681 -2.3123
  187SAPI  C31121549   1.240   1.696   8.076  0.3622 -0.5587 -0.5368
  187SAPI  H11X21550   1.222   1.803   8.053 -0.3693 -0.4743  0.3949
  187SAPI  H11Y21551   1.333   1.687   8.137  2.2898  2.4997 -2.8721
  187SAPI  C31221552   1.111   1.635   8.139  0.0936 -0.8932 -0.3547
  187SAPI  H12X21553   1.110   1.524   8.136 -3.6087 -0.9041 -2.1639
  187SAPI  H12Y21554   1.026   1.668   8.076  0.0937 -1.4393 -0.6499
  187SAPI  C31321555   1.092   1.683   8.283  0.7451 -0.2183  0.7725
  187SAPI  H13X21556   1.105   1.793   8.294  0.2173 -0.2524  1.7541
  187SAPI  H13Y21557   1.163   1.629   8.349  1.7446 -2.2568 -1.8618
  187SAPI  C31421558   0.951   1.644   8.337 -0.1496  0.0531  0.8492
  187SAPI  H14X21559   0.950   1.533   8.346  0.3564 -0.0192  0.1114
  187SAPI  H14Y21560   0.872   1.668   8.262  2.6137  2.3629 -1.4526
  187SAPI  C31521561   0.938   1.697   8.477 -0.2364  0.2678  0.0380
  187SAPI  H15X21562   0.964   1.805   8.480 -0.7184  0.4255 -1.1081
  187SAPI  H15Y21563   1.013   1.639   8.535 -0.7520  1.1156  1.5962
  187SAPI  C31621564   0.802   1.670   8.547 -0.2757 -0.2035 -0.8414
  187SAPI  H16X21565   0.767   1.566   8.535 -1.2636 -0.2993  2.3055
  187SAPI  H16Y21566   0.724   1.731   8.497 -0.4407  0.2301 -0.0677
  187SAPI  C31721567   0.802   1.699   8.697 -0.9547 -0.0138 -0.9129
  187SAPI  H17X21568   0.837   1.804   8.708  1.2750 -0.4882 -3.1478
  187SAPI  H17Y21569   0.865   1.629   8.755  0.3871  0.7916 -1.3885
  187SAPI  C31821570   0.656   1.694   8.747  0.2720 -0.2842 -0.0492
  187SAPI  H18X21571   0.609   1.598   8.717 -0.3684  0.2360 -0.7102
  187SAPI  H18Y21572   0.596   1.770   8.694  0.2861 -0.2630 -0.0342
  187SAPI  H18Z21573   0.651   1.703   8.858 -1.6271  0.3856 -0.1736
  188SAPI   C1221574   2.861   4.717   6.258 -0.0163  0.0954 -1.3506
  188SAPI    H221575   2.845   4.754   6.361 -0.5603 -2.9098 -0.2817
  188SAPI    O221576   2.732   4.741   6.189  0.0899 -0.4039 -0.1342
  188SAPI   HO221577   2.662   4.740   6.255  1.2362  1.4323  1.1670
  188SAPI   C1321578   2.975   4.775   6.178  0.4631 -0.8417 -0.7664
  188SAPI    H321579   3.069   4.767   6.236 -1.2581  0.1504  2.2893
  188SAPI    O321580   2.960   4.918   6.160  0.4306  0.4079  0.3893
  188SAPI   HO321581   2.872   4.943   6.186 -0.4356 -0.8432 -1.2695
  188SAPI   C1421582   2.996   4.709   6.044 -0.3176 -0.2467  0.2912
  188SAPI    H421583   2.903   4.724   5.986 -0.4880  1.1643  0.9149
  188SAPI    O421584   3.105   4.770   5.965  0.2536  0.1518 -0.1736
  188SAPI   HO421585   3.134   4.707   5.898  2.5791  1.4010 -0.3774
  188SAPI   C1521586   3.016   4.566   6.058 -0.0230  0.8784 -0.6147
  188SAPI    H521587   3.100   4.549   6.128  0.3379  1.7535 -0.8272
  188SAPI    O521588   3.046   4.504   5.937  0.0644  0.0072 -0.3230
  188SAPI   HO521589   3.075   4.414   5.949  1.1604  0.2192 -1.2033
  188SAPI   C1621590   2.899   4.498   6.138 -0.1700 -0.4923  0.1596
  188SAPI    H621591   2.813   4.502   6.068  0.5973  0.7333 -0.7478
  188SAPI    O621592   2.927   4.363   6.155 -0.2606  0.0101 -0.5709
  188SAPI   HO621593   2.945   4.345   6.248 -0.4540  0.3780 -0.4606
  188SAPI   C1121594   2.886   4.564   6.272  0.4158 -0.4879  0.7586
  188SAPI    H121595   2.983   4.564   6.324  1.4081  0.4052 -1.0304
  188SAPI     P21596   2.809   4.387   6.451  0.0121  0.0543 -0.2164
  188SAPI   O1321597   2.936   4.318   6.417 -0.2720 -0.3721  0.3707
  188SAPI   O1421598   2.690   4.302   6.449 -0.0430  0.0689 -0.0554
  188SAPI   O1221599   2.778   4.519   6.350 -0.4203  0.1317 -0.3115
  188SAPI   O1121600   2.811   4.463   6.584 -0.3216 -0.2197 -0.8992
  188SAPI    C121601   2.696   4.516   6.653 -1.0796 -0.1611  0.3803
  188SAPI    HA21602   2.684   4.622   6.623  1.9636 -0.0732 -0.7698
  188SAPI    HB21603   2.600   4.463   6.635 -0.4522 -1.1969 -0.0344
  188SAPI    C221604   2.708   4.510   6.811  0.1610 -0.3429  0.8424
  188SAPI    HS21605   2.606   4.533   6.849  0.1955  0.7327  0.2938
  188SAPI   O2121606   2.803   4.598   6.871 -0.2169  0.1764  0.1343
  188SAPI   C2121607   2.772   4.725   6.869 -0.5985  0.9714  0.4050
  188SAPI   O2221608   2.671   4.771   6.817 -0.4165 -0.2533  0.0682
  188SAPI   C2221609   2.890   4.809   6.933 -0.1778  0.5253  0.3543
  188SAPI   H2R21610   2.958   4.744   6.991 -0.1800  0.4134  0.2335
  188SAPI   H2S21611   2.951   4.859   6.855  1.2796  0.3103  1.3426
  188SAPI    C321612   2.752   4.370   6.855 -0.3680  0.2886  0.0331
  188SAPI    HX21613   2.855   4.349   6.819 -1.5595 -3.6197 -1.3332
  188SAPI    HY21614   2.686   4.301   6.799  1.2571  0.7666 -2.5364
  188SAPI   O3121615   2.741   4.352   7.002 -0.2365 -0.1182  0.0603
  188SAPI   C3121616   2.857   4.378   7.066 -0.3773 -0.4840  0.1697
  188SAPI   O3221617   2.964   4.399   7.012 -0.0322 -0.3230  0.4970
  188SAPI   C3221618   2.832   4.388   7.218  0.6793 -0.1736  0.5259
  188SAPI   H2X21619   2.921   4.343   7.265  0.5575 -2.6692 -1.4967
  188SAPI   H2Y21620   2.736   4.341   7.250 -0.1054  1.8740  1.2695
  188SAPI   C2321621   2.828   4.915   7.025 -0.0825  0.3606 -0.5355
  188SAPI   H3R21622   2.795   4.865   7.119 -0.6937  2.7090  0.5336
  188SAPI   H3S21623   2.730   4.953   6.991 -0.1028  1.8023  1.0708
  188SAPI   C2421624   2.916   5.035   7.068  0.1478  0.1289  0.4379
  188SAPI   H4R21625   2.944   5.093   6.978 -1.5279  0.1476 -0.0759
  188SAPI   H4S21626   3.000   4.990   7.126 -0.1019 -2.4321 -1.1543
  188SAPI   C2521627   2.838   5.119   7.162  0.5111  0.3548 -0.9380
  188SAPI   H5R21628   2.757   5.175   7.114 -0.7630  0.7557  1.5723
  188SAPI   C2621629   2.859   5.136   7.299 -0.2183 -0.0735 -0.5528
  188SAPI   H6R21630   2.793   5.211   7.344  0.6727 -0.2955  1.1786
  188SAPI   C2721631   2.968   5.080   7.392  0.1950 -0.0468  0.2364
  188SAPI   H7R21632   3.029   5.163   7.435 -3.0771  1.8617  1.4407
  188SAPI   H7S21633   3.051   5.028   7.340  0.2282  0.8242 -0.5950
  188SAPI   C2821634   2.907   5.005   7.511  0.2183 -0.6499 -0.1656
  188SAPI   H8R21635   2.877   4.901   7.493 -2.4864  0.2761 -1.3704
  188SAPI   C2921636   2.878   5.048   7.635 -0.2605  0.2168  0.1267
  188SAPI   H9R21637   2.836   4.969   7.699 -0.7002  0.6616  0.3909
  188SAPI  C21021638   2.896   5.182   7.692  0.3864  0.2270 -0.3011
  188SAPI  H10R21639   2.802   5.190   7.750  0.5620  1.3820 -0.1624
  188SAPI  H10S21640   2.884   5.259   7.614 -0.9650 -0.5240 -0.8499
  188SAPI  C21121641   3.014   5.209   7.777  0.4842 -0.4080 -0.0186
  188SAPI  H11R21642   3.089   5.129   7.784 -0.5782 -1.3975  0.1675
  188SAPI  C21221643   3.031   5.314   7.865 -0.4111 -0.2718  0.4476
  188SAPI  H12R21644   3.128   5.315   7.917  0.9507  0.0235 -2.0102
  188SAPI  C21321645   2.934   5.424   7.898 -0.8525  0.4059  0.4790
  188SAPI  H13R21646   2.906   5.468   7.800  0.0521 -1.1864 -0.5142
  188SAPI  H13S21647   2.977   5.515   7.945 -1.3317  1.0092 -0.2465
  188SAPI  C21421648   2.817   5.374   7.977 -1.0963 -0.4372  0.1579
  188SAPI  H14R21649   2.743   5.321   7.916  1.8885 -1.1823 -2.9777
  188SAPI  C21521650   2.788   5.405   8.103 -0.0904 -0.1233  0.2153
  188SAPI  H15R21651   2.683   5.400   8.135  0.3726 -0.6205  1.7133
  188SAPI  C21621652   2.873   5.493   8.194 -0.2730 -0.2603  0.4834
  188SAPI  H16R21653   2.943   5.559   8.139  0.1946  0.3358  1.7911
  188SAPI  H16S21654   2.938   5.431   8.258 -0.2740 -3.1939 -2.2036
  188SAPI  C21721655   2.781   5.579   8.286 -0.1941 -0.2539  0.2635
  188SAPI  H17R21656   2.746   5.499   8.356 -1.6333  0.3848  0.2786
  188SAPI  H17S21657   2.691   5.625   8.240  0.1497  1.0950  0.9104
  188SAPI  C21821658   2.878   5.674   8.357  0.2932  0.3701  0.3676
  188SAPI  H18R21659   2.932   5.746   8.292 -1.3600  0.2583 -1.1658
  188SAPI  H18S21660   2.957   5.604   8.393  0.0730 -0.6276 -1.0242
  188SAPI  C21921661   2.814   5.751   8.473  0.5782  0.0630  0.0148
  188SAPI  H19R21662   2.770   5.682   8.548  1.7287 -1.4482 -0.6844
  188SAPI  H19S21663   2.719   5.801   8.444 -1.6992 -3.6503  0.7788
  188SAPI  C22021664   2.918   5.836   8.554 -0.8177  0.4143 -0.0666
  188SAPI  H20R21665   2.963   5.905   8.479 -2.2810  0.8813 -0.5346
  188SAPI  H20S21666   3.001   5.779   8.601 -3.3655 -2.7896  0.7274
  188SAPI  H20T21667   2.870   5.899   8.631  0.3382 -0.6517  1.5580
  188SAPI   C3321668   2.819   4.533   7.281 -0.0924  0.2796 -0.6543
  188SAPI   H3X21669   2.748   4.596   7.224  0.7067 -0.2479 -2.2579
  188SAPI   H3Y21670   2.919   4.580   7.272 -0.7186  1.2208 -3.0712
  188SAPI   C3421671   2.780   4.525   7.428 -0.1356 -0.3517 -0.2365
  188SAPI   H4X21672   2.681   4.477   7.448 -1.2626  2.1478  0.4907
  188SAPI   H4Y21673   2.766   4.632   7.454  1.3275  0.1477 -1.4847
  188SAPI   C3521674   2.887   4.451   7.514 -0.8729  0.2083 -0.1227
  188SAPI   H5X21675   2.984   4.501   7.493 -0.3854 -0.4126  0.6247
  188SAPI   H5Y21676   2.898   4.349   7.473 -1.7805 -0.0564  0.2783
  188SAPI   C3621677   2.862   4.453   7.669  0.3280  0.6445  0.5934
  188SAPI   H6X21678   2.943   4.397   7.719  0.8966  0.3258 -0.6604
  188SAPI   H6Y21679   2.774   4.386   7.684  1.0079 -0.0239  1.6458
  188SAPI   C3721680   2.840   4.599   7.721  0.1927 -0.2868  0.4071
  188SAPI   H7X21681   2.735   4.632   7.706  0.0931 -1.6279 -2.2141
  188SAPI   H7Y21682   2.898   4.659   7.648 -0.9466 -1.2157 -1.2957
  188SAPI   C3821683   2.884   4.635   7.857 -0.0850 -0.1015  1.3407
  188SAPI   H8X21684   2.909   4.743   7.868  3.2984 -0.6975  0.2340
  188SAPI   H8Y21685   2.977   4.579   7.882 -0.0222 -1.1477 -1.0938
  188SAPI   C3921686   2.779   4.605   7.968  0.2798  0.3942 -0.0861
  188SAPI   H9X21687   2.766   4.495   7.971  0.3430  0.3951  0.3656
  188SAPI   H9Y21688   2.683   4.647   7.932  1.0231  0.6555 -1.7777
  188SAPI  C31021689   2.816   4.637   8.115  0.3078 -0.5809 -0.1029
  188SAPI  H10X21690   2.905   4.576   8.141 -0.2001 -2.2943 -2.2664
  188SAPI  H10Y21691   2.739   4.599   8.186 -2.6153  2.0446 -1.7253
  188SAPI  C31121692   2.834   4.789   8.131  0.3105  0.4810  0.2290
  188SAPI  H11X21693   2.731   4.820   8.100 -0.6593 -2.1856  0.6882
  188SAPI  H11Y21694   2.914   4.831   8.066  0.0983 -1.1573 -1.0985
  188SAPI  C31221695   2.865   4.845   8.277  0.0331 -0.2889 -0.1673
  188SAPI  H12X21696   2.969   4.809   8.292  0.0212  0.6928  2.7544
  188SAPI  H12Y21697   2.796   4.809   8.356 -0.8996 -1.3266 -1.4367
  188SAPI  C31321698   2.884   4.996   8.284  0.4993 -0.0956 -0.4614
  188SAPI  H13X21699   2.798   5.058   8.248  0.5571  1.2179  1.5984
  188SAPI  H13Y21700   2.952   5.036   8.206  0.0967 -0.9724 -1.2701
  188SAPI  C31421701   2.921   5.045   8.428 -0.6298 -0.3353  0.6560
  188SAPI  H14X21702   2.938   5.155   8.430 -1.2272 -0.1248 -2.5771
  188SAPI  H14Y21703   3.020   4.996   8.444 -0.3167 -1.0182 -2.9695
  188SAPI  C31521704   2.826   4.998   8.544 -0.2909 -0.1879  0.0228
  188SAPI  H15X21705   2.854   4.892   8.565 -0.8177 -0.5224 -0.9327
  188SAPI  H15Y21706   2.717   5.012   8.529 -0.4275 -0.3449  0.8640
  188SAPI  C31621707   2.848   5.088   8.672 -0.2263 -0.0578 -0.4108
  188SAPI  H16X21708   2.767   5.162   8.681 -0.8298 -0.6442 -0.9486
  188SAPI  H16Y21709   2.949   5.135   8.670 -0.2497 -0.0528 -1.8708
  188SAPI  C31721710   2.846   5.001   8.806  1.0984  0.0480  0.6774
  188SAPI  H17X21711   2.888   5.057   8.892 -0.9189  1.2518  0.9062
  188SAPI  H17Y21712   2.916   4.915   8.798 -0.0732 -0.9624  1.1996
  188SAPI  C31821713   2.708   4.946   8.839  0.1245  0.8030 -1.0519
  188SAPI  H18X21714   2.718   4.874   8.923 -0.0475 -0.5939 -2.2144
  188SAPI  H18Y21715   2.667   4.880   8.760  1.7491 -0.6606 -0.7025
  188SAPI  H18Z21716   2.632   5.021   8.871 -1.7984 -1.2553 -0.7055
  189POPC     N21717   2.833   5.519  11.242 -0.1652 -0.0266  0.1635
  189POPC   C1221718   2.867   5.535  11.095 -0.2204 -0.3817 -0.3085
  189POPC  H12A21719   2.916   5.448  11.054 -0.4709 -0.1353 -1.1447
  189POPC  H12B21720   2.947   5.608  11.090  0.0863 -0.6522  0.6183
  189POPC   C1321721   2.704   5.456  11.262 -0.6107 -0.1536  0.0473
  189POPC  H13A21722   2.709   5.357  11.222  1.2059 -0.7066  1.5225
  189POPC  H13B21723   2.672   5.450  11.365 -0.3934  0.7485  0.1743
  189POPC  H13C21724   2.623   5.503  11.209 -0.7237 -1.2854 -0.7945
  189POPC   C1421725   2.927   5.431  11.315 -0.0053  0.3630  0.0477
  189POPC  H14A21726   2.923   5.436  11.422  0.6585  2.3549 -0.0058
  189POPC  H14B21727   2.913   5.328  11.285 -2.1486 -0.6568  4.2695
  189POPC  H14C21728   3.030   5.453  11.292 -0.2506 -0.4743 -2.0109
  189POPC   C1521729   2.829   5.657  11.300  0.0814 -0.2473  0.1170
  189POPC  H15A21730   2.787   5.666  11.399 -2.2510  1.4125 -0.9818
  189POPC  H15B21731   2.767   5.717  11.235  2.7276  0.0851 -2.2026
  189POPC  H15C21732   2.928   5.701  11.294 -0.3443  0.9566  1.7027
  189POPC   C1121733   2.753   5.582  11.003  0.3147 -0.4310  0.4072
  189POPC  H11A21734   2.657   5.527  11.019 -0.9649  1.8447  0.8760
  189POPC  H11B21735   2.780   5.557  10.899 -0.5840  1.0186 -0.1887
  189POPC     P21736   2.807   5.835  10.956  0.4158  0.0963  0.1566
  189POPC   O1321737   2.949   5.835  10.999 -0.1868 -0.5836 -0.0739
  189POPC   O1421738   2.726   5.956  10.982 -0.0690  0.1415  0.2683
  189POPC   O1221739   2.725   5.718  11.030  0.2349 -0.4921 -0.4027
  189POPC   O1121740   2.791   5.807  10.803 -0.2864  0.3955 -0.9573
  189POPC    C121741   2.663   5.771  10.745  0.1532 -0.4334  0.2452
  189POPC    HA21742   2.597   5.854  10.780  0.2281  0.0723 -0.7984
  189POPC    HB21743   2.619   5.676  10.780  2.0575 -1.0937  0.9338
  189POPC    C221744   2.662   5.776  10.589 -0.1492  0.2688  0.1917
  189POPC    HS21745   2.559   5.770  10.547 -0.6035  0.6992  1.2397
  189POPC   O2121746   2.740   5.666  10.537 -0.1901 -0.4429 -0.0879
  189POPC   C2121747   2.680   5.550  10.535  0.1925 -0.2134 -0.0468
  189POPC   O2221748   2.570   5.525  10.584  0.4513  0.6408 -0.1775
  189POPC   C2221749   2.774   5.449  10.476 -0.3457 -0.6433 -0.2015
  189POPC   H2R21750   2.796   5.374  10.554 -1.2227 -0.6455  0.0538
  189POPC   H2S21751   2.869   5.492  10.439  1.0432 -2.6190  1.0288
  189POPC    C321752   2.716   5.916  10.524  0.1804  0.6811 -0.7711
  189POPC    HX21753   2.822   5.929  10.551  0.2384 -1.9221  0.4320
  189POPC    HY21754   2.653   5.993  10.572 -0.1982  0.2854 -0.6301
  189POPC   O3121755   2.697   5.925  10.383 -0.4176  0.0944 -0.3666
  189POPC   C3121756   2.796   5.871  10.312  0.0891 -0.8957 -0.4406
  189POPC   O3221757   2.890   5.821  10.365 -0.2550  0.1693 -0.0424
  189POPC   C3221758   2.759   5.873  10.167  0.4014  0.7144 -0.2919
  189POPC   H2X21759   2.744   5.977  10.133  0.5077  0.5785 -0.7519
  189POPC   H2Y21760   2.663   5.822  10.145  1.1109 -0.5451 -0.5291
  189POPC   C2321761   2.698   5.370  10.370  0.7766  0.7346 -0.0804
  189POPC   H3R21762   2.603   5.335  10.416  1.6824 -0.3081  1.0053
  189POPC   H3S21763   2.758   5.280  10.345  0.0584 -0.0111  0.8710
  189POPC   C2421764   2.662   5.450  10.242  0.3366 -0.0602  0.0929
  189POPC   H4R21765   2.749   5.510  10.209 -1.7661  1.7869 -2.3086
  189POPC   H4S21766   2.581   5.524  10.263 -1.0300 -0.6846 -2.7393
  189POPC   C2521767   2.611   5.371  10.117 -0.2458  0.0221 -0.5039
  189POPC   H5R21768   2.545   5.288  10.149  1.0631 -0.3528  1.3460
  189POPC   H5S21769   2.707   5.335  10.074 -0.1597  0.8068 -0.9758
  189POPC   C2621770   2.550   5.451  10.003 -0.0993  0.0798  0.2650
  189POPC   H6R21771   2.590   5.555  10.007  1.0905 -0.3460 -0.3574
  189POPC   H6S21772   2.441   5.464  10.021 -0.3817 -0.7828 -0.7878
  189POPC   C2721773   2.573   5.383   9.868  0.0667 -0.0920  0.1975
  189POPC   H7R21774   2.540   5.277   9.883 -0.1483 -0.2986 -1.5953
  189POPC   H7S21775   2.680   5.381   9.840 -0.3950  0.0340 -1.6567
  189POPC   C2821776   2.486   5.448   9.754 -0.3268 -0.7876  1.0682
  189POPC   H8R21777   2.500   5.558   9.761 -2.2445 -0.4300 -0.3188
  189POPC   H8S21778   2.379   5.428   9.775 -0.1695 -2.2425  0.5157
  189POPC   C2921779   2.528   5.385   9.630  0.7720  0.6793 -0.8357
  189POPC   H9121780   2.488   5.283   9.622  1.4176  0.3417  0.1134
  189POPC  C21021781   2.588   5.455   9.532 -0.1965 -0.3366 -0.7250
  189POPC  H10121782   2.612   5.410   9.435  1.3870  1.4787 -1.2163
  189POPC  C21121783   2.641   5.603   9.541 -0.2714 -0.7542  0.4173
  189POPC  H11R21784   2.609   5.653   9.635  4.0342  1.8473  0.6354
  189POPC  H11S21785   2.593   5.652   9.453 -3.2948 -1.7040  1.4714
  189POPC  C21221786   2.795   5.613   9.539 -0.0574 -0.3424 -0.1515
  189POPC  H12R21787   2.847   5.566   9.626 -1.1018  1.8310  1.7051
  189POPC  H12S21788   2.820   5.720   9.554  0.6294 -0.6799  1.2330
  189POPC  C21321789   2.864   5.570   9.411 -0.5224  0.2870  0.3388
  189POPC  H13R21790   2.830   5.466   9.398 -2.5440  0.8126  1.3238
  189POPC  H13S21791   2.975   5.567   9.414 -0.4429  1.1838 -1.0032
  189POPC  C21421792   2.837   5.649   9.286  0.6840 -0.9801  0.0861
  189POPC  H14R21793   2.864   5.757   9.295 -1.8883 -0.2707 -0.1615
  189POPC  H14S21794   2.726   5.644   9.288  0.5682  1.2500  1.0463
  189POPC  C21521795   2.891   5.599   9.154 -0.8637  0.1757  0.5953
  189POPC  H15R21796   2.827   5.515   9.119  0.7280 -1.3380  1.2152
  189POPC  H15S21797   2.988   5.548   9.172 -0.5635  0.2094 -0.9093
  189POPC  C21621798   2.895   5.699   9.034  0.2820  0.6115 -0.5363
  189POPC  H16R21799   2.957   5.782   9.073  0.7833 -0.5771  1.2888
  189POPC  H16S21800   2.791   5.731   9.014  0.1407  0.0492 -0.7281
  189POPC  C21721801   2.952   5.653   8.900 -0.4237  1.5564  0.2910
  189POPC  H17R21802   3.058   5.623   8.904 -0.8741 -0.1385 -0.0357
  189POPC  H17S21803   2.942   5.742   8.834 -1.3177  0.7004 -0.7586
  189POPC  C21821804   2.868   5.538   8.827 -0.0980 -0.6322 -0.2316
  189POPC  H18R21805   2.758   5.553   8.835 -0.0851 -1.4152  1.6823
  189POPC  H18S21806   2.887   5.435   8.864  0.1958 -0.6263 -0.3718
  189POPC  H18T21807   2.897   5.536   8.720  3.1072 -0.1417  0.5902
  189POPC   C3321808   2.870   5.805  10.067 -0.4994 -0.1962 -0.1600
  189POPC   H3X21809   2.865   5.694  10.067 -0.0545 -0.2307  2.2152
  189POPC   H3Y21810   2.976   5.818  10.096 -0.5386 -2.3807  0.9967
  189POPC   C3421811   2.860   5.866   9.930  0.2595  0.6931  0.3509
  189POPC   H4X21812   2.855   5.975   9.946  0.9819  0.7749  0.0440
  189POPC   H4Y21813   2.766   5.836   9.879  0.0262 -0.1053  1.2261
  189POPC   C3521814   2.980   5.829   9.832  0.1003 -0.2788 -0.1377
  189POPC   H5X21815   2.980   5.722   9.801  2.9804 -0.2629 -0.3014
  189POPC   H5Y21816   3.076   5.856   9.880  0.5502  0.4042 -1.4014
  189POPC   C3621817   2.974   5.906   9.703  0.1670  0.0301  0.0599
  189POPC   H6X21818   2.956   6.015   9.715 -0.7554 -0.1706  0.5249
  189POPC   H6Y21819   2.884   5.873   9.647 -0.5276  1.5275  0.2793
  189POPC   C3721820   3.090   5.874   9.607  0.4848 -0.7941  0.5207
  189POPC   H7X21821   3.101   5.766   9.582  2.5408 -0.7454  1.1711
  189POPC   H7Y21822   3.182   5.901   9.662 -0.6946 -2.3393  3.3524
  189POPC   C3821823   3.091   5.963   9.484 -0.4238  0.7193  0.9040
  189POPC   H8X21824   3.136   6.059   9.516 -0.6425  1.1020  0.0575
  189POPC   H8Y21825   2.986   5.976   9.452 -0.3177  1.2007  0.7550
  189POPC   C3921826   3.174   5.891   9.374  0.1281 -0.1999  0.3791
  189POPC   H9X21827   3.126   5.792   9.360  0.2291 -0.3111  0.8126
  189POPC   H9Y21828   3.277   5.878   9.411  0.1513 -1.2429 -0.0287
  189POPC  C31021829   3.164   5.961   9.239 -0.0634 -0.0450 -0.5312
  189POPC  H10X21830   3.214   6.059   9.253 -2.0792  0.8949  0.2490
  189POPC  H10Y21831   3.066   6.003   9.209  0.6619  1.2917 -1.0822
  189POPC  C31121832   3.236   5.884   9.123 -0.0780 -0.1222  0.8574
  189POPC  H11X21833   3.215   5.775   9.127  0.8474 -0.4164 -1.5128
  189POPC  H11Y21834   3.345   5.903   9.120 -0.3151  1.1674 -0.4571
  189POPC  C31221835   3.201   5.925   8.978  0.1507  0.2611  0.1380
  189POPC  H12X21836   3.091   5.941   8.977  0.2443  0.9798 -2.5351
  189POPC  H12Y21837   3.248   5.846   8.915 -3.1845 -1.8200  0.1650
  189POPC  C31321838   3.259   6.069   8.938  0.5409 -0.3731  0.7359
  189POPC  H13X21839   3.364   6.087   8.969  0.6412 -1.6383  1.1210
  189POPC  H13Y21840   3.204   6.143   9.000 -1.4430 -2.1481  1.1499
  189POPC  C31421841   3.240   6.105   8.792  0.0439  0.2251 -0.5327
  189POPC  H14X21842   3.269   6.210   8.770  2.0326  0.0433  1.0941
  189POPC  H14Y21843   3.134   6.085   8.765  0.1379  1.0966 -1.6013
  189POPC  C31521844   3.315   6.023   8.683 -0.3199 -0.3955 -0.5909
  189POPC  H15X21845   3.294   6.052   8.578  0.6101 -0.4763 -0.7999
  189POPC  H15Y21846   3.265   5.924   8.676 -1.8498  0.1917  1.3468
  189POPC  C31621847   3.462   5.980   8.704  0.2545 -0.2251  0.3920
  189POPC  H16X21848   3.481   5.958   8.811 -0.4788  0.8243  0.7444
  189POPC  H16Y21849   3.525   6.069   8.683  0.9336 -0.3046  1.9762
  189POPC  H16Z21850   3.496   5.892   8.645  0.0550  0.5213 -0.8500
  190POPC     N21851   4.680   1.789  11.209  0.0828  0.5170 -0.3289
  190POPC   C1221852   4.723   1.936  11.238  0.0201  0.4007  0.2619
  190POPC  H12A21853   4.829   1.958  11.246  0.0929  0.3626 -0.5926
  190POPC  H12B21854   4.683   1.949  11.337  1.7114 -2.6876  1.4010
  190POPC   C1321855   4.533   1.753  11.213  0.0487 -0.5903 -0.5495
  190POPC  H13A21856   4.508   1.658  11.170  1.7045 -0.5074 -1.7265
  190POPC  H13B21857   4.499   1.754  11.316  2.3787  0.0947  0.2529
  190POPC  H13C21858   4.476   1.827  11.158 -2.2944 -0.0837  2.4074
  190POPC   C1421859   4.725   1.749  11.069 -0.5481 -0.5094  0.8865
  190POPC  H14A21860   4.832   1.756  11.056 -0.6728  2.1218  1.1230
  190POPC  H14B21861   4.705   1.643  11.059 -0.4083 -0.3633 -1.1602
  190POPC  H14C21862   4.677   1.810  10.994  2.4364  1.2893  0.3633
  190POPC   C1521863   4.758   1.700  11.298  0.6074 -0.2321 -0.3226
  190POPC  H15A21864   4.731   1.712  11.402 -1.8072 -1.4413 -0.7719
  190POPC  H15B21865   4.863   1.723  11.286  0.5009 -0.0211 -0.8613
  190POPC  H15C21866   4.754   1.598  11.264  1.8146 -0.9639  1.6415
  190POPC   C1121867   4.660   2.045  11.149  1.0420  0.4816  0.0374
  190POPC  H11A21868   4.682   2.027  11.042  0.6024 -1.9273  0.3184
  190POPC  H11B21869   4.706   2.143  11.176  0.1841  0.5974  1.1415
  190POPC     P21870   4.422   2.112  11.064  0.4178  0.2065 -0.7774
  190POPC   O1321871   4.409   2.254  11.082  0.3542 -0.3648  0.4197
  190POPC   O1421872   4.296   2.029  11.073  0.1167  0.1240  0.3438
  190POPC   O1221873   4.523   2.052  11.178  0.4454  0.2870  0.3567
  190POPC   O1121874   4.496   2.083  10.926 -0.4275 -0.7681  0.3948
  190POPC    C121875   4.562   2.196  10.852  0.1962 -0.2437 -0.6292
  190POPC    HA21876   4.612   2.267  10.921  0.0131 -0.6011 -0.1224
  190POPC    HB21877   4.481   2.262  10.814 -1.1547 -1.3731  0.2148
  190POPC    C221878   4.658   2.155  10.737  0.8319  0.0250  0.1499
  190POPC    HS21879   4.673   2.243  10.672 -3.4607  1.2817  0.7152
  190POPC   O2121880   4.605   2.036  10.669 -0.1894  0.6740  0.0638
  190POPC   C2121881   4.490   2.061  10.604  0.3764 -0.2872 -0.0966
  190POPC   O2221882   4.436   2.170  10.588  0.0379 -0.0166 -0.1653
  190POPC   C2221883   4.437   1.926  10.555  0.8239 -1.0913 -0.3300
  190POPC   H2R21884   4.352   1.886  10.616  1.3736 -1.1346  0.4214
  190POPC   H2S21885   4.524   1.856  10.563  1.7238  0.1078  0.5107
  190POPC    C321886   4.798   2.123  10.801  0.5604  0.3414  0.2417
  190POPC    HX21887   4.791   2.030  10.861  0.9536 -0.3138 -0.7032
  190POPC    HY21888   4.830   2.200  10.874  2.2622  1.9376 -2.0866
  190POPC   O3121889   4.897   2.112  10.691 -0.1306 -0.3316  0.7848
  190POPC   C3121890   4.964   1.990  10.688 -0.3738  0.0900  0.1030
  190POPC   O3221891   4.936   1.903  10.763 -0.4047  0.4439 -0.3821
  190POPC   C3221892   5.078   1.983  10.583 -0.6409 -0.0527 -0.2366
  190POPC   H2X21893   5.127   1.886  10.602  0.4744  0.1524 -1.9714
  190POPC   H2Y21894   5.143   2.071  10.604  0.0206 -0.2658 -1.3678
  190POPC   C2321895   4.396   1.919  10.408 -0.2753 -0.8115  0.3582
  190POPC   H3R21896   4.333   2.008  10.383  0.2765 -0.0420  1.6804
  190POPC   H3S21897   4.326   1.835  10.389 -1.1116 -0.4595  1.8226
  190POPC   C2421898   4.514   1.913  10.310 -0.5745  0.9596  0.6629
  190POPC   H4R21899   4.566   1.815  10.311  0.6096  1.5779  0.0329
  190POPC   H4S21900   4.595   1.986  10.332  0.9117 -0.7493  1.0030
  190POPC   C2521901   4.466   1.935  10.168  0.4897  0.0116  0.2127
  190POPC   H5R21902   4.390   2.013  10.189  0.8975  0.2451  0.8578
  190POPC   H5S21903   4.419   1.843  10.127  0.6043  0.5927 -1.2566
  190POPC   C2621904   4.560   2.000  10.068 -0.3898  0.0767  0.8216
  190POPC   H6R21905   4.651   1.940  10.044 -0.2145  0.1855  1.2214
  190POPC   H6S21906   4.587   2.095  10.120  2.3609 -0.2875  0.1669
  190POPC   C2721907   4.503   2.020   9.927 -0.2604  0.2539 -0.3341
  190POPC   H7R21908   4.586   2.060   9.866 -0.6978 -0.6762 -1.5557
  190POPC   H7S21909   4.421   2.090   9.954 -0.5870 -0.1313 -0.3116
  190POPC   C2821910   4.450   1.897   9.857 -0.4384 -0.2731  0.7598
  190POPC   H8R21911   4.393   1.933   9.768  2.1772 -1.2750 -1.3976
  190POPC   H8S21912   4.379   1.841   9.922  1.2794 -0.6577  2.3604
  190POPC   C2921913   4.566   1.808   9.819  0.3648  0.0176 -0.7962
  190POPC   H9121914   4.582   1.732   9.896 -0.2337 -1.3193 -1.9633
  190POPC  C21021915   4.644   1.806   9.710  0.4582 -0.3135 -0.2317
  190POPC  H10121916   4.725   1.733   9.706 -0.8699 -1.8537  0.4149
  190POPC  C21121917   4.637   1.903   9.593  0.0075 -0.7574 -0.0880
  190POPC  H11R21918   4.738   1.943   9.569 -0.6168  0.7275 -0.2525
  190POPC  H11S21919   4.575   1.992   9.617  1.1002 -0.2040  0.7256
  190POPC  C21221920   4.588   1.836   9.462 -0.4855 -0.7658  0.9891
  190POPC  H12R21921   4.589   1.910   9.378  3.6884 -0.1449  1.4864
  190POPC  H12S21922   4.486   1.796   9.479 -1.2419  0.4402 -0.5449
  190POPC  C21321923   4.666   1.707   9.425 -0.7412  0.7025 -0.0778
  190POPC  H13R21924   4.642   1.632   9.503  1.6220 -1.3701 -1.2621
  190POPC  H13S21925   4.772   1.734   9.445 -0.4715  1.7504 -2.6538
  190POPC  C21421926   4.658   1.669   9.281 -0.9103  0.0742 -0.3643
  190POPC  H14R21927   4.550   1.658   9.258 -1.1765 -0.3045  1.0214
  190POPC  H14S21928   4.704   1.577   9.240 -2.4117 -0.4158 -1.0032
  190POPC  C21521929   4.727   1.769   9.185 -0.2911  0.1667  0.5570
  190POPC  H15R21930   4.828   1.795   9.222 -0.4540  2.8902 -0.7936
  190POPC  H15S21931   4.662   1.859   9.198  0.2694  0.4857  1.1644
  190POPC  C21621932   4.733   1.726   9.036  0.1559 -0.4230 -0.7545
  190POPC  H16R21933   4.793   1.633   9.040 -0.7585 -1.1069 -2.3942
  190POPC  H16S21934   4.781   1.801   8.969  1.3929 -0.5342  0.0084
  190POPC  C21721935   4.601   1.679   8.976  0.3750  0.5132  0.2435
  190POPC  H17R21936   4.536   1.769   8.977  1.1275  1.0964 -1.4836
  190POPC  H17S21937   4.561   1.599   9.042  1.1993 -1.2662 -1.3551
  190POPC  C21821938   4.617   1.626   8.837 -0.1807 -0.1939 -0.3366
  190POPC  H18R21939   4.712   1.570   8.821  0.5177  0.3503  1.7377
  190POPC  H18S21940   4.620   1.717   8.774 -0.7367 -0.6788 -1.0561
  190POPC  H18T21941   4.525   1.573   8.804  0.2989 -0.2062 -1.6872
  190POPC   C3321942   5.026   1.992  10.437 -0.3724  0.2258  0.6584
  190POPC   H3X21943   5.121   1.999  10.381 -0.4425 -1.0543  0.3554
  190POPC   H3Y21944   4.969   2.078  10.395 -0.1700 -0.0678 -0.2353
  190POPC   C3421945   4.943   1.871  10.385 -0.4392 -0.3292 -0.1791
  190POPC   H4X21946   4.864   1.850  10.461 -1.2617  0.9067 -0.6781
  190POPC   H4Y21947   5.010   1.782  10.388  1.3102  0.9873  0.2430
  190POPC   C3521948   4.885   1.895  10.244 -0.1288 -0.9765 -0.3453
  190POPC   H5X21949   4.813   1.979  10.253 -1.0105 -1.7690  0.0754
  190POPC   H5Y21950   4.830   1.803  10.219 -1.5219 -0.2193 -0.0918
  190POPC   C3621951   4.987   1.941  10.140  0.3779 -0.0426 -0.3356
  190POPC   H6X21952   5.061   1.857  10.143  0.8034  0.2793 -1.5963
  190POPC   H6Y21953   5.044   2.033  10.167 -0.6856  0.0916  1.5364
  190POPC   C3721954   4.937   1.925   9.995  0.2032 -0.5925  0.5261
  190POPC   H7X21955   4.864   2.005   9.970  1.9380  0.7304 -0.4309
  190POPC   H7Y21956   4.870   1.838   9.976 -2.4771  0.9123  2.7816
  190POPC   C3821957   5.039   1.923   9.881 -0.7050  0.2254 -0.2782
  190POPC   H8X21958   5.109   1.837   9.893  1.2760  2.2099  3.3859
  190POPC   H8Y21959   5.117   2.002   9.887  0.9811 -1.4615  0.6498
  190POPC   C3921960   4.976   1.922   9.750  0.1093 -0.3504  0.6629
  190POPC   H9X21961   4.918   2.015   9.733  1.7176  0.1510 -2.5018
  190POPC   H9Y21962   4.906   1.836   9.754 -0.9901  0.5490  1.1868
  190POPC  C31021963   5.077   1.922   9.630  0.4607 -0.2316  0.9930
  190POPC  H10X21964   5.017   1.883   9.545  2.0156 -0.4374 -0.0221
  190POPC  H10Y21965   5.150   1.840   9.648 -0.1474 -1.0028  0.0292
  190POPC  C31121966   5.146   2.055   9.597  0.1319  0.0810  0.3356
  190POPC  H11X21967   5.223   2.070   9.676 -0.3452 -0.2722  0.8755
  190POPC  H11Y21968   5.074   2.139   9.613 -0.3845 -0.4395  0.7897
  190POPC  C31221969   5.212   2.060   9.462  0.5236 -0.5369 -0.5258
  190POPC  H12X21970   5.140   2.061   9.377  0.5844  1.8208 -0.5896
  190POPC  H12Y21971   5.274   1.968   9.456  1.5851  0.0406  1.2746
  190POPC  C31321972   5.296   2.190   9.438  0.2269  0.5618  0.2431
  190POPC  H13X21973   5.364   2.202   9.526  0.2031  1.1317  0.1864
  190POPC  H13Y21974   5.236   2.283   9.444  0.6440  1.0011 -2.0709
  190POPC  C31421975   5.366   2.204   9.311 -0.8778 -0.3029 -0.8745
  190POPC  H14X21976   5.407   2.105   9.283 -1.2255 -1.0929  1.3605
  190POPC  H14Y21977   5.450   2.276   9.302  0.3480 -1.7971 -1.5718
  190POPC  C31521978   5.270   2.222   9.194  0.0360 -0.1976 -0.6255
  190POPC  H15X21979   5.184   2.290   9.211  0.9041  0.7048  0.2612
  190POPC  H15Y21980   5.218   2.125   9.176  1.4083 -1.3036  1.2138
  190POPC  C31621981   5.345   2.242   9.065  0.8058  1.0272  0.2642
  190POPC  H16X21982   5.418   2.325   9.070 -3.6009  5.1235  0.1544
  190POPC  H16Y21983   5.287   2.274   8.976 -1.6516  0.3125  1.5443
  190POPC  H16Z21984   5.396   2.147   9.039 -0.0920  0.6286 -0.0891
  191POPC     N21985   5.163   2.886   6.060  0.3783 -0.1360 -0.1768
  191POPC   C1221986   5.152   2.899   6.207 -0.5448  0.0856 -1.0616
  191POPC  H12A21987   5.096   2.813   6.241 -0.1090 -0.7900 -2.5273
  191POPC  H12B21988   5.088   2.985   6.226 -0.1089  0.7683 -2.5572
  191POPC   C1321989   5.023   2.891   5.990  0.0192 -0.1814  0.1060
  191POPC  H13A21990   4.975   2.983   6.019  0.4077  0.1298 -0.2350
  191POPC  H13B21991   5.036   2.895   5.883 -1.3101 -0.3528 -0.0649
  191POPC  H13C21992   4.964   2.807   6.022 -2.3115  0.9470 -1.1314
  191POPC   C1421993   5.227   3.007   6.009 -0.3190 -0.9528 -0.3993
  191POPC  H14A21994   5.158   3.090   6.014 -1.2269 -1.7773  0.9447
  191POPC  H14B21995   5.318   3.034   6.060  0.7729  1.8205 -3.6284
  191POPC  H14C21996   5.255   2.996   5.905  0.3146  1.9243 -0.5911
  191POPC   C1521997   5.231   2.761   6.023 -0.1790 -0.0389  0.4000
  191POPC  H15A21998   5.258   2.766   5.919  0.7616 -0.3713  0.6156
  191POPC  H15B21999   5.173   2.670   6.034  0.0664  0.0741  2.9398
  191POPC  H15C22000   5.321   2.763   6.084  0.4248  1.7733 -0.5355
  191POPC   C1122001   5.280   2.909   6.298 -0.0918  0.2890  0.0819
  191POPC  H11A22002   5.327   2.808   6.298 -1.9737 -0.6258 -0.8392
  191POPC  H11B22003   5.252   2.910   6.405 -0.9484  2.8027 -0.1477
  191POPC     P22004   5.523   2.982   6.242  0.0513 -0.2589 -0.2180
  191POPC   O1322005   5.596   3.099   6.181 -0.3106 -0.6414  0.7672
  191POPC   O1422006   5.538   2.848   6.174  0.6339 -0.0330 -0.6303
  191POPC   O1222007   5.372   3.007   6.263  0.7341  0.2767  0.2168
  191POPC   O1122008   5.584   2.975   6.391  0.0912 -0.4351 -0.4248
  191POPC    C122009   5.522   2.909   6.509 -0.1503 -0.1742  0.3434
  191POPC    HA22010   5.594   2.854   6.573  1.9662  0.0986 -1.7094
  191POPC    HB22011   5.443   2.839   6.474 -0.2535 -0.4324  1.0870
  191POPC    C222012   5.466   3.009   6.608  0.6798 -0.0692  0.3356
  191POPC    HS22013   5.398   3.072   6.546  2.7205  1.0423 -0.8672
  191POPC   O2122014   5.570   3.082   6.668 -0.1739  1.0543 -0.1200
  191POPC   C2122015   5.553   3.211   6.666  0.4884  0.3574 -0.2397
  191POPC   O2222016   5.477   3.280   6.603  0.6894  0.2910  0.5858
  191POPC   C2222017   5.637   3.261   6.786  0.0082  0.5816  0.1997
  191POPC   H2R22018   5.682   3.357   6.754 -2.8096  1.3446 -1.6771
  191POPC   H2S22019   5.725   3.196   6.803 -0.2914 -0.1165 -0.8733
  191POPC    C322020   5.368   2.942   6.713 -0.4097  0.7876 -0.6252
  191POPC    HX22021   5.429   2.868   6.770  2.1154  2.3633 -1.1874
  191POPC    HY22022   5.281   2.888   6.669  1.1451 -0.8473 -1.7998
  191POPC   O3122023   5.304   3.040   6.795  0.2307  0.4663 -0.0495
  191POPC   C3122024   5.202   3.005   6.875  0.1288  0.2551  0.7974
  191POPC   O3222025   5.133   2.904   6.863 -0.1144 -0.2824 -1.0341
  191POPC   C3222026   5.188   3.107   6.981  0.1752  0.4648  0.5174
  191POPC   H2X22027   5.110   3.180   6.950 -0.2022 -0.4759 -0.7951
  191POPC   H2Y22028   5.284   3.160   7.000  0.0724  0.0814  2.1477
  191POPC   C2322029   5.561   3.264   6.923  0.3422  0.2973  0.0854
  191POPC   H3R22030   5.506   3.168   6.935  2.4086 -1.1171 -1.3568
  191POPC   H3S22031   5.489   3.348   6.927 -1.1383 -0.8032 -2.1114
  191POPC   C2422032   5.653   3.279   7.048  0.1356  0.3939  0.8888
  191POPC   H4R22033   5.704   3.377   7.057  0.8320  0.0192  1.0686
  191POPC   H4S22034   5.730   3.199   7.040 -2.5121 -1.9377 -2.9574
  191POPC   C2522035   5.584   3.256   7.180 -0.2125 -0.1097  0.0315
  191POPC   H5R22036   5.548   3.151   7.179 -0.2601 -0.1235  1.3927
  191POPC   H5S22037   5.488   3.310   7.167 -0.1924 -0.4381 -1.5953
  191POPC   C2622038   5.652   3.303   7.306  0.1843 -0.0201 -1.0652
  191POPC   H6R22039   5.683   3.408   7.288  3.5495 -1.4100 -4.2240
  191POPC   H6S22040   5.744   3.244   7.326 -0.1721  0.0865  1.0639
  191POPC   C2722041   5.569   3.284   7.431 -0.5941 -0.1373 -0.2742
  191POPC   H7R22042   5.522   3.184   7.420  3.2331 -2.0370 -0.1337
  191POPC   H7S22043   5.490   3.360   7.453  0.8686  1.6789 -1.2021
  191POPC   C2822044   5.657   3.290   7.554 -0.5295 -0.1794  0.7370
  191POPC   H8R22045   5.719   3.381   7.548  0.6380 -0.9528  0.9757
  191POPC   H8S22046   5.732   3.209   7.544  0.1221  0.2426  2.1020
  191POPC   C2922047   5.575   3.273   7.680  0.0226 -0.9350  0.5147
  191POPC   H9122048   5.479   3.220   7.669 -0.3554 -0.2739  0.6111
  191POPC  C21022049   5.608   3.298   7.806  0.0204  0.2992  0.2965
  191POPC  H10122050   5.525   3.295   7.878  0.1046  1.6954  0.4734
  191POPC  C21122051   5.737   3.351   7.860  0.5251  0.4371  0.2823
  191POPC  H11R22052   5.722   3.456   7.892  0.5052  0.1313  1.2941
  191POPC  H11S22053   5.812   3.358   7.779 -0.4271  1.4842 -0.5260
  191POPC  C21222054   5.791   3.262   7.969  0.4198  0.1581  0.1231
  191POPC  H12R22055   5.809   3.160   7.929 -0.7488 -0.2005  0.4928
  191POPC  H12S22056   5.719   3.261   8.054 -0.7051 -2.4667 -0.8076
  191POPC  C21322057   5.923   3.307   8.022  0.1669 -0.0903 -0.0142
  191POPC  H13R22058   5.916   3.417   8.030 -0.4722 -0.1769  0.6962
  191POPC  H13S22059   6.003   3.294   7.946  0.7395  0.5329  0.4765
  191POPC  C21422060   5.957   3.259   8.166 -0.3452  0.0640 -0.4113
  191POPC  H14R22061   5.975   3.149   8.173  1.3307  0.3968  1.0629
  191POPC  H14S22062   5.865   3.253   8.227 -0.2819 -0.1995 -0.3384
  191POPC  C21522063   6.087   3.321   8.221 -0.8442  0.0534 -0.0919
  191POPC  H15R22064   6.070   3.431   8.225 -0.8154  0.1567 -2.3943
  191POPC  H15S22065   6.163   3.314   8.140 -0.8364 -0.9591  0.0009
  191POPC  C21622066   6.141   3.264   8.346  0.7812  0.3087  0.5359
  191POPC  H16R22067   6.143   3.155   8.323 -0.9941  0.3424  0.1080
  191POPC  H16S22068   6.071   3.281   8.430  1.0994  0.0290  0.8555
  191POPC  C21722069   6.277   3.317   8.388  0.4368  0.0624  0.1930
  191POPC  H17R22070   6.262   3.422   8.421  1.4873  0.4480 -0.5530
  191POPC  H17S22071   6.346   3.316   8.301  0.9195  0.1512  0.5816
  191POPC  C21822072   6.345   3.236   8.499  0.2279  0.4232  0.1524
  191POPC  H18R22073   6.388   3.144   8.455  0.3624  0.6670 -0.2309
  191POPC  H18S22074   6.281   3.220   8.588  2.1252 -1.7196  1.1754
  191POPC  H18T22075   6.427   3.295   8.544 -0.3751  0.0416  1.7718
  191POPC   C3322076   5.137   3.059   7.122 -1.1997  0.2365  0.6880
  191POPC   H3X22077   5.064   2.975   7.126  0.7838 -1.6292 -0.9344
  191POPC   H3Y22078   5.091   3.146   7.174  0.8616  0.8460  1.5509
  191POPC   C3422079   5.260   3.017   7.198 -0.5468 -0.5326  0.0164
  191POPC   H4X22080   5.335   3.096   7.215  1.2545 -2.0640 -0.6758
  191POPC   H4Y22081   5.320   2.950   7.134 -1.6765 -1.3387 -0.2246
  191POPC   C3522082   5.220   2.939   7.319 -0.0370  0.2154 -0.2649
  191POPC   H5X22083   5.183   2.841   7.282 -0.5445  0.5447 -0.6336
  191POPC   H5Y22084   5.138   2.994   7.370 -1.7574 -1.9268 -0.6715
  191POPC   C3622085   5.334   2.917   7.421 -0.0880 -0.0248  0.6447
  191POPC   H6X22086   5.357   3.020   7.455 -0.2041  1.3529 -3.2023
  191POPC   H6Y22087   5.429   2.883   7.373 -1.6995 -2.7027 -0.7893
  191POPC   C3722088   5.290   2.838   7.539 -0.3403  0.7808 -0.2298
  191POPC   H7X22089   5.296   2.728   7.522 -1.2190  1.0391 -2.4404
  191POPC   H7Y22090   5.184   2.869   7.547 -0.4306  0.6163 -0.7188
  191POPC   C3822091   5.354   2.888   7.666 -0.3545  0.5127 -0.3577
  191POPC   H8X22092   5.311   2.987   7.690 -1.1899  0.2854 -0.9261
  191POPC   H8Y22093   5.465   2.887   7.660 -0.2981  0.4268  0.6410
  191POPC   C3922094   5.307   2.805   7.785 -1.1820 -0.1902  0.2252
  191POPC   H9X22095   5.352   2.703   7.785 -0.9476 -0.0887  0.7361
  191POPC   H9Y22096   5.198   2.794   7.768 -1.0962 -0.7970  0.0576
  191POPC  C31022097   5.330   2.859   7.923  0.7330 -0.3385 -0.4984
  191POPC  H10X22098   5.287   2.786   7.995 -0.4882 -1.2179 -2.0887
  191POPC  H10Y22099   5.266   2.948   7.941  2.2468  0.8459 -0.8816
  191POPC  C31122100   5.477   2.909   7.958 -0.4222 -0.2158  0.7967
  191POPC  H11X22101   5.502   2.991   7.887 -1.4154 -0.7624 -0.1995
  191POPC  H11Y22102   5.560   2.836   7.944  0.9502  1.2817  1.0235
  191POPC  C31222103   5.498   2.966   8.103 -0.6275 -0.8636  0.4300
  191POPC  H12X22104   5.604   2.997   8.106 -1.3204  1.4609  1.7342
  191POPC  H12Y22105   5.487   2.881   8.173  2.2016 -1.4669  0.1771
  191POPC  C31322106   5.424   3.098   8.131  0.4828  0.6814 -0.0115
  191POPC  H13X22107   5.316   3.086   8.111  0.7423 -0.5005 -0.8026
  191POPC  H13Y22108   5.472   3.177   8.069 -1.1393  0.5376 -1.4826
  191POPC  C31422109   5.447   3.133   8.281 -0.1619  0.4886  0.0526
  191POPC  H14X22110   5.520   3.217   8.281 -1.6830  1.8471  0.6327
  191POPC  H14Y22111   5.494   3.052   8.342 -2.7442  0.2119  1.7884
  191POPC  C31522112   5.323   3.192   8.341  0.0307  0.5771 -0.0774
  191POPC  H15X22113   5.338   3.214   8.448  0.0675  0.8180 -0.1317
  191POPC  H15Y22114   5.259   3.102   8.337 -0.4172  0.8809  0.1673
  191POPC  C31622115   5.249   3.314   8.277 -0.4005  0.2177  0.4489
  191POPC  H16X22116   5.140   3.299   8.295 -0.4159 -1.1302 -0.7634
  191POPC  H16Y22117   5.259   3.333   8.168 -3.7851 -1.7908 -0.2973
  191POPC  H16Z22118   5.285   3.405   8.329 -0.4205  0.2861  0.3420
  192POPC     N22119   3.738   5.467   6.049  0.2832  0.1374 -0.5758
  192POPC   C1222120   3.864   5.417   6.116 -0.3498  0.1945 -0.3749
  192POPC  H12A22121   3.942   5.391   6.045  0.1979  0.2134  0.2118
  192POPC  H12B22122   3.827   5.325   6.158 -0.0732  1.8415  3.7524
  192POPC   C1322123   3.631   5.489   6.150  0.1807  0.5098  0.4704
  192POPC  H13A22124   3.542   5.527   6.101  0.1911  0.7893  0.6697
  192POPC  H13B22125   3.608   5.405   6.214 -0.0481  1.7979  2.1029
  192POPC  H13C22126   3.656   5.578   6.206  1.7565 -0.2427  0.9897
  192POPC   C1422127   3.768   5.590   5.969 -0.1145  0.3221 -0.0962
  192POPC  H14A22128   3.852   5.570   5.904 -0.0295  0.1236  0.0740
  192POPC  H14B22129   3.685   5.617   5.907  1.5169  4.2276 -0.7306
  192POPC  H14C22130   3.797   5.678   6.025 -1.3273  2.2548 -2.4120
  192POPC   C1522131   3.688   5.363   5.955 -0.0863 -0.3205  0.4533
  192POPC  H15A22132   3.767   5.317   5.897 -0.5255 -1.2892  0.6112
  192POPC  H15B22133   3.627   5.397   5.872  0.6590 -0.0363  0.0131
  192POPC  H15C22134   3.641   5.272   5.991  2.0187 -2.3415 -1.7021
  192POPC   C1122135   3.922   5.501   6.226 -0.3720 -0.2998  0.1528
  192POPC  H11A22136   4.003   5.447   6.280 -1.4889 -1.5034  0.6514
  192POPC  H11B22137   3.839   5.508   6.300  0.5087  0.1724  1.1109
  192POPC     P22138   4.132   5.652   6.166  0.1064 -0.0218  0.1196
  192POPC   O1322139   4.148   5.755   6.061  0.0142 -0.0979  0.1508
  192POPC   O1422140   4.203   5.527   6.132 -0.0621  0.0775 -0.3610
  192POPC   O1222141   3.970   5.630   6.178 -0.2878 -0.1941  0.5378
  192POPC   O1122142   4.176   5.715   6.299 -0.0790  0.3100 -0.1284
  192POPC    C122143   4.159   5.654   6.426 -0.4313 -0.2335  0.2193
  192POPC    HA22144   4.164   5.543   6.422  0.5939 -0.2035  0.4344
  192POPC    HB22145   4.062   5.687   6.469  1.0113  1.9567  1.9142
  192POPC    C222146   4.274   5.684   6.531  0.2085  0.1993  0.2891
  192POPC    HS22147   4.279   5.794   6.540 -1.9702  0.2343  1.4335
  192POPC   O2122148   4.391   5.613   6.486 -0.2029 -0.3070  0.3512
  192POPC   C2122149   4.472   5.692   6.414  0.1449  0.6426 -0.5543
  192POPC   O2222150   4.464   5.813   6.406 -0.1328  0.2880  0.3948
  192POPC   C2222151   4.581   5.612   6.343  0.8557 -0.2064 -0.3561
  192POPC   H2R22152   4.596   5.654   6.241  1.1160 -2.4177 -1.2464
  192POPC   H2S22153   4.549   5.507   6.327 -0.2054 -0.1725  1.5003
  192POPC    C322154   4.241   5.635   6.679  0.3141 -0.2412  0.5113
  192POPC    HX22155   4.254   5.525   6.675 -1.2332 -0.3628 -1.9237
  192POPC    HY22156   4.138   5.651   6.717  0.5484  0.4186  0.8796
  192POPC   O3122157   4.348   5.684   6.760 -0.0930  0.3355 -0.2008
  192POPC   C3122158   4.323   5.793   6.828  0.1141 -0.0606 -0.4094
  192POPC   O3222159   4.221   5.863   6.820  0.2395 -0.3684 -0.0507
  192POPC   C3222160   4.443   5.828   6.915 -0.3640  0.0900  0.3656
  192POPC   H2X22161   4.529   5.852   6.849 -1.2622  0.4430 -0.6763
  192POPC   H2Y22162   4.461   5.736   6.974 -0.6379  0.8571  1.6592
  192POPC   C2322163   4.708   5.616   6.420  0.3218  0.5420 -1.2622
  192POPC   H3R22164   4.699   5.710   6.478 -2.3271 -0.2899 -0.2425
  192POPC   H3S22165   4.792   5.630   6.348  1.6209  1.0503  0.3383
  192POPC   C2422166   4.743   5.500   6.512 -0.4290 -0.4903 -0.3917
  192POPC   H4R22167   4.839   5.535   6.555 -0.5795 -1.9394  1.1766
  192POPC   H4S22168   4.753   5.414   6.443  3.9140  0.2531 -0.8198
  192POPC   C2522169   4.641   5.470   6.632  0.4780  0.2675 -0.6036
  192POPC   H5R22170   4.674   5.369   6.664 -1.6878  0.5333  2.6810
  192POPC   H5S22171   4.538   5.452   6.595  0.1978 -0.8546  0.6957
  192POPC   C2622172   4.636   5.559   6.758  0.8289  0.2348 -0.3076
  192POPC   H6R22173   4.561   5.524   6.832  3.4463  0.8374  2.7381
  192POPC   H6S22174   4.614   5.661   6.719 -0.0006 -0.6962 -2.3440
  192POPC   C2722175   4.769   5.558   6.833  0.7696  0.1979 -0.4583
  192POPC   H7R22176   4.838   5.608   6.762  0.1193  0.6384 -0.7862
  192POPC   H7S22177   4.796   5.453   6.857  0.6058 -0.0651 -1.4152
  192POPC   C2822178   4.775   5.648   6.963  0.8636  0.6546 -0.0151
  192POPC   H8R22179   4.717   5.742   6.952 -0.7182 -0.2777  0.2313
  192POPC   H8S22180   4.881   5.665   6.991  1.3187  0.3555 -1.5113
  192POPC   C2922181   4.719   5.573   7.075  0.2505  0.1909 -0.0371
  192POPC   H9122182   4.635   5.514   7.036  1.2818 -1.2298 -0.1396
  192POPC  C21022183   4.760   5.569   7.204 -0.2140 -0.7430 -0.5566
  192POPC  H10122184   4.705   5.504   7.274 -0.7948 -0.5564 -0.8391
  192POPC  C21122185   4.865   5.662   7.265  0.0131  0.3381  0.0023
  192POPC  H11R22186   4.886   5.744   7.194 -1.7978  0.3670 -0.5261
  192POPC  H11S22187   4.964   5.611   7.268  1.0573  2.1808 -1.6391
  192POPC  C21222188   4.827   5.702   7.409  0.3031 -0.2074  0.2396
  192POPC  H12R22189   4.818   5.609   7.469 -1.8397  0.4580  0.9865
  192POPC  H12S22190   4.722   5.736   7.401 -0.0405 -1.4682 -0.7272
  192POPC  C21322191   4.917   5.809   7.466  0.2720  0.8646 -0.0612
  192POPC  H13R22192   4.876   5.911   7.451 -2.7406 -0.2550  0.2167
  192POPC  H13S22193   5.014   5.822   7.413  1.1142  1.6747  1.6240
  192POPC  C21422194   4.963   5.776   7.614  0.3705 -0.3049 -0.0755
  192POPC  H14R22195   5.017   5.678   7.610 -0.2621 -0.6319 -0.6833
  192POPC  H14S22196   4.872   5.753   7.673  0.6514  3.3755  1.9357
  192POPC  C21522197   5.042   5.890   7.680 -0.4894  0.9553 -0.1124
  192POPC  H15R22198   4.983   5.985   7.676 -2.9472 -0.4823  1.1460
  192POPC  H15S22199   5.138   5.896   7.625 -0.3310  0.0481  0.0678
  192POPC  C21622200   5.071   5.841   7.824  0.2954 -0.0985 -0.0552
  192POPC  H16R22201   5.106   5.736   7.830  0.5787  0.0153  0.2960
  192POPC  H16S22202   4.979   5.850   7.886 -1.2937 -1.9179 -2.0854
  192POPC  C21722203   5.179   5.929   7.883 -0.0586 -0.7308  0.5029
  192POPC  H17R22204   5.260   5.952   7.810 -2.3999 -0.5838 -2.1040
  192POPC  H17S22205   5.234   5.868   7.958  0.3557 -0.1211  0.7032
  192POPC  C21822206   5.135   6.064   7.937 -0.3507 -0.1694 -0.4075
  192POPC  H18R22207   5.222   6.104   7.993  0.3474  0.4294 -1.8756
  192POPC  H18S22208   5.051   6.065   8.009  0.2770 -2.8624  0.3889
  192POPC  H18T22209   5.119   6.143   7.860 -0.6498 -0.8703 -1.0713
  192POPC   C3322210   4.425   5.950   7.019  0.2127 -0.7066 -0.5057
  192POPC   H3X22211   4.337   5.926   7.083  0.3218  1.2084  0.4227
  192POPC   H3Y22212   4.391   6.042   6.966  0.9441  0.0355  0.2854
  192POPC   C3422213   4.541   5.972   7.106  0.2746 -0.2576 -0.8546
  192POPC   H4X22214   4.585   6.068   7.072 -2.2474  0.4030 -2.4067
  192POPC   H4Y22215   4.619   5.894   7.112  2.5373  1.8883 -1.4705
  192POPC   C3522216   4.489   5.980   7.252 -0.0607 -0.0460  0.2699
  192POPC   H5X22217   4.400   6.045   7.263 -0.6888 -0.2841 -2.9071
  192POPC   H5Y22218   4.570   6.021   7.316  0.6200 -0.7362 -0.1412
  192POPC   C3622219   4.460   5.846   7.331 -0.4676  1.5938 -0.7451
  192POPC   H6X22220   4.536   5.766   7.320 -1.4309  0.2809  1.8863
  192POPC   H6Y22221   4.369   5.806   7.282  0.9281 -1.5231 -0.8638
  192POPC   C3722222   4.450   5.867   7.480  0.0489  0.4441 -0.3259
  192POPC   H7X22223   4.372   5.940   7.510 -0.2736 -0.7319  1.8235
  192POPC   H7Y22224   4.544   5.900   7.531  0.7538 -2.4493  0.3426
  192POPC   C3822225   4.409   5.730   7.540 -0.7078 -0.4527  0.6344
  192POPC   H8X22226   4.470   5.647   7.498  0.0935 -0.0524  0.9861
  192POPC   H8Y22227   4.301   5.705   7.535 -0.9157  0.4512  0.4787
  192POPC   C3922228   4.431   5.731   7.692  0.0249 -0.7397 -0.0155
  192POPC   H9X22229   4.386   5.642   7.741 -0.4197 -1.0831 -1.0222
  192POPC   H9Y22230   4.397   5.822   7.744 -0.9405 -0.9850 -0.2150
  192POPC  C31022231   4.583   5.721   7.727 -0.0487 -0.1225 -0.7080
  192POPC  H10X22232   4.636   5.815   7.701 -0.0838 -0.3595 -1.6739
  192POPC  H10Y22233   4.620   5.641   7.659 -2.4490 -2.3713  0.5180
  192POPC  C31122234   4.624   5.673   7.866 -0.2705  0.3813  0.5030
  192POPC  H11X22235   4.734   5.678   7.877 -0.0374  0.0466 -1.6065
  192POPC  H11Y22236   4.588   5.570   7.887 -0.3854  0.6612  1.7427
  192POPC  C31222237   4.555   5.754   7.981  0.5312  0.2038 -0.1903
  192POPC  H12X22238   4.451   5.718   7.974  1.0279 -1.3364  0.3457
  192POPC  H12Y22239   4.575   5.861   7.957  0.0594  0.6007  1.1276
  192POPC  C31322240   4.608   5.724   8.119 -1.0198  0.3415  0.0457
  192POPC  H13X22241   4.550   5.776   8.198  0.4373 -0.1450  1.4461
  192POPC  H13Y22242   4.713   5.761   8.124 -0.3635 -1.6023  1.2151
  192POPC  C31422243   4.625   5.578   8.165 -0.2364 -0.1674  0.7804
  192POPC  H14X22244   4.700   5.532   8.097 -2.1657 -1.5168 -0.4863
  192POPC  H14Y22245   4.528   5.525   8.163  1.2152 -2.8780  0.8207
  192POPC  C31522246   4.670   5.561   8.313  0.0492  1.0013 -0.4373
  192POPC  H15X22247   4.756   5.627   8.336  0.1870  0.0072  2.0471
  192POPC  H15Y22248   4.714   5.460   8.330  1.0522  1.5493  0.2700
  192POPC  C31622249   4.563   5.577   8.414  0.5163  0.8596 -0.4269
  192POPC  H16X22250   4.485   5.506   8.379  1.0290 -1.7333  3.3863
  192POPC  H16Y22251   4.526   5.682   8.405  0.0454  0.6625 -0.7890
  192POPC  H16Z22252   4.576   5.555   8.523  0.3396  0.3106 -0.5175
  193SOD    SOD22253   2.900   3.471  15.817  0.0527  0.0055 -0.1891
  194SOD    SOD22254   4.483   2.359   3.863 -0.1690 -0.0376  0.4862
  195SOD    SOD22255   5.009   5.655  10.467  0.2673 -0.3213  0.5865
  196SOD    SOD22256   2.336   2.629  11.410 -0.4523  0.1162 -0.0835
  197SOD    SOD22257   0.163   0.422   6.439 -0.6651 -0.2520  0.0544
  198SOD    SOD22258   0.586   0.482   2.557 -0.4070  0.1543 -0.2457
  199SOD    SOD22259   3.901   3.951  16.427 -0.1537 -0.5235  0.1037
  200SOD    SOD22260   3.291   6.637   6.100  0.4411 -0.5618  0.1701
  201SOD    SOD22261   1.743   4.587  15.864 -0.5259 -0.3262  0.1623
  202SOD    SOD22262   2.204   0.682  14.860 -0.4048  0.1590 -0.0752
  203SOD    SOD22263   4.504   0.781   6.272  0.3238  0.0243 -0.6745
  204SOD    SOD22264   5.647   2.662   6.196 -0.7869  0.3077 -0.0474
  205SOD    SOD22265   1.333   6.057  10.720  0.2578  0.0220  0.0788
  206SOD    SOD22266   4.506   3.940  15.855  0.1664  0.2195 -0.5951
  207SOD    SOD22267   1.324   1.606   6.118 -0.2968 -0.3316 -0.0037
  208SOD    SOD22268   6.670   3.520   1.000  0.1950  0.0620 -0.2241
  209SOD    SOD22269   4.975   5.366  11.959  0.0409 -0.4024  0.2327
  210SOD    SOD22270   4.560   0.330  12.134 -0.1770 -0.1335  0.0833
  211SOD    SOD22271   5.115   2.071   5.492 -0.1976 -0.0712 -0.0992
  212SOD    SOD22272   2.256   6.731  16.676  0.3437 -0.0792  0.6018
  213SOD    SOD22273   4.020   2.276  10.814 -0.0852 -0.3384 -0.6640
  214SOD    SOD22274   4.353   5.330  15.750 -0.2790  0.2628  0.3529
  215SOD    SOD22275   2.941   3.310   2.628 -0.1886  0.8131 -0.3496
  216SOD    SOD22276   6.219   3.421  12.430  0.7075 -0.3388 -0.4594
  217SOD    SOD22277   2.525   3.341   1.156 -0.3275 -0.3640 -0.2784
  218SOD    SOD22278   1.214   5.005   3.903 -0.4706 -0.3228 -0.3776
  219SOD    SOD22279   2.564   1.476  14.515  0.5238  0.4783 -0.2000
  220SOD    SOD22280   4.378   2.881  12.441  0.3870  0.4647 -0.1558
  221SOD    SOD22281   2.179   1.167   5.058  0.1017  0.1975  0.2197
  222SOD    SOD22282   2.555   5.646  13.345  0.4149  0.4453 -0.0290
  223SOD    SOD22283   0.392   5.964  12.537  0.4377 -0.0558  0.4416
  224SOD    SOD22284   1.591   5.218   5.934 -0.0427  0.4067  0.2853
  225SOD    SOD22285   2.435   5.051  14.033  0.1692 -0.0660  0.1880
  226SOD    SOD22286   6.735   4.654  14.405 -0.1348 -0.1883  0.0091
  227SOD    SOD22287   4.517   0.582   3.473  0.0480 -0.2404 -0.1042
  228SOD    SOD22288   1.640   1.673  13.689 -0.1136 -0.4588 -0.1652
  229SOD    SOD22289   3.405   6.658  11.022  0.2399  0.0216 -0.1972
  230SOD    SOD22290   5.495   6.397   2.430 -0.1843 -0.3563  0.0076
  231SOD    SOD22291   6.332   4.057   0.606 -0.4704  0.2022 -0.0505
  232SOD    SOD22292   2.239   4.410  12.425  0.1901 -0.2892 -0.3529
  233SOD    SOD22293   1.797   0.360  15.609 -0.0761  0.0362  0.1387
  234SOD    SOD22294   0.267   5.581  16.096  0.3141 -0.0832 -0.0627
  235SOD    SOD22295   2.289   5.870  11.529  0.8654 -0.4837  0.4615
  236SOD    SOD22296   4.347   3.507   1.363  0.7038  0.1693  0.1291
  237SOD    SOD22297   1.137   4.845   2.950  0.0113 -0.2214  0.5213
  238SOD    SOD22298   0.314   6.084   0.365  0.2385 -0.5327  0.1434
  239SOD    SOD22299   5.340   0.343   1.894 -0.2705  0.2102 -0.0562
  240SOD    SOD22300   5.281   5.953   4.608  0.5908 -0.2178 -0.2389
  241SOD    SOD22301   1.359   1.935  10.847  0.2830  0.0738  0.0514
  242SOD    SOD22302   0.221   2.007  15.922  0.3924  0.5260 -0.2451
  243SOD    SOD22303   0.913   2.000  16.418 -0.2043 -0.0323  0.4353
  244SOD    SOD22304   5.956   2.934   6.260  0.3158 -0.3419  0.0941
  245SOD    SOD22305   1.071   5.549  10.875 -0.5583 -0.1818 -0.2771
  246SOD    SOD22306   3.309   3.701   5.365  0.5039  0.2466  0.1548
  247SOD    SOD22307   2.753   2.497   6.278  0.1915  0.1954  0.5360
  248SOD    SOD22308   6.775   1.343  11.318  0.2950 -0.2614  0.4040
  249SOD    SOD22309   5.882   6.198   4.552 -0.1607 -0.1361 -0.4117
  250SOD    SOD22310   5.645   4.265   2.509 -0.2213  0.2102 -0.1962
  251SOD    SOD22311   0.607   2.294   6.406  0.3328 -0.1178 -0.3406
  252SOD    SOD22312   0.333   1.246  14.376 -0.2094 -0.7023 -0.1369
  253SOD    SOD22313   4.826   5.201  12.395 -0.1369 -0.2397  0.1535
  254SOD    SOD22314   3.084   6.527  11.710  0.0058  0.0358 -0.2239
  255SOD    SOD22315   3.389   5.994  14.547 -0.3403 -0.5795  0.2898
  256SOD    SOD22316   6.028   2.688   4.870  0.1074 -0.3812 -0.3157
  257SOD    SOD22317   0.338   1.961   6.092  0.3448  0.0386 -0.1567
  258SOD    SOD22318   5.738   4.511   3.798 -0.2844 -0.2598 -0.3582
  259SOD    SOD22319   3.026   0.377   1.390 -0.2854  0.1870 -0.2027
  260SOD    SOD22320   3.561   1.301   1.234 -0.3483 -0.2052  0.3664
  261SOD    SOD22321   6.454   3.404  15.255 -0.1342 -0.0379 -0.0596
  262SOD    SOD22322   6.629   5.415  16.784 -0.3278  0.2479  0.2607
  263SOD    SOD22323   5.914   2.162  13.638 -0.4046  0.2973 -0.3043
  264SOD    SOD22324   4.966   4.085   2.598  0.0781  0.8141 -0.4460
  265SOD    SOD22325   1.250   5.628   3.077  0.3871  0.0007  0.2777
  266SOD    SOD22326   3.843   2.855  10.749  0.0135  0.3701 -0.0890
  267SOD    SOD22327   0.706   5.937  11.361 -0.0578 -0.1684  0.0132
  268SOD    SOD22328   0.169   4.683  15.998 -0.2037 -0.5860  0.7343
  269SOD    SOD22329   3.751   6.055  10.988 -0.6244  0.1223 -0.0504
  270CLA    CLA22330   2.770   0.666   1.629 -0.3516  0.3131 -0.3589
  271CLA    CLA22331   4.008   6.154  13.500 -0.0146 -0.2054  0.0083
  272CLA    CLA22332   3.411   3.045   0.484  0.1602 -0.2443  0.1912
  273CLA    CLA22333   6.300   2.270  16.169 -0.2578 -0.2971 -0.2997
  274CLA    CLA22334   0.108   3.153  15.576  0.0035 -0.2116 -0.1701
  275CLA    CLA22335   4.898   1.528   5.035  0.3731 -0.1624  0.0725
  276CLA    CLA22336   4.642   3.369  17.028 -0.0910 -0.0565 -0.1590
  277CLA    CLA22337   6.386   5.317  16.860  0.3033  0.3068 -0.0126
  278CLA    CLA22338   2.521   1.964   1.547  0.0599 -0.5591 -0.2364
  279CLA    CLA22339   0.307   4.685  17.154 -0.2197 -0.3656 -0.2839
  280CLA    CLA22340   2.082   0.350  12.695  0.0578  0.2932 -0.3591
  281CLA    CLA22341   0.347   2.639  16.904 -0.1690 -0.4038 -0.2126
  282CLA    CLA22342   2.614   1.939  13.954 -0.3438  0.6074 -0.3808
  283CLA    CLA22343   6.719   3.020   4.972 -0.1694  0.2908  0.0042
  284CLA    CLA22344   3.132   0.800   1.286 -0.2219 -0.3794  0.2490
  285CLA    CLA22345   5.181   6.296   3.737  0.0376  0.0949  0.2522
  286CLA    CLA22346   3.682   6.353  16.409  0.4888 -0.0082 -0.0219
  287CLA    CLA22347   4.004   0.527  13.411  0.0544 -0.0025 -0.5740
  288CLA    CLA22348   4.589   3.482   1.873 -0.3502  0.3984  0.0971
  289CLA    CLA22349   4.008   0.080   3.064  0.0710 -0.3127  0.0539
  290CLA    CLA22350   4.774   5.095  12.891  0.1733 -0.2715 -0.2156
  291CLA    CLA22351   4.098   0.241  11.485  0.2033  0.3111  0.1573
  292CLA    CLA22352   2.633   3.622  14.889  0.4267 -0.3522 -0.4085
  293CLA    CLA22353   5.882   4.527   4.181  0.3764  0.0790  0.0851
  294CLA    CLA22354   2.439   3.078  13.171  0.3415  0.2456 -0.4081
  295CLA    CLA22355   5.157   0.192   0.147  0.1984  0.0856 -0.1134
  296CLA    CLA22356   6.759   4.958  12.982  0.0012 -0.2260 -0.1885
  297CLA    CLA22357   6.023   2.536   5.933 -0.5085  0.1124  0.2544
  298CLA    CLA22358   2.624   0.182  17.019  0.1105 -0.1109  0.2960
  299CLA    CLA22359   0.337   5.421  13.455  0.4529  0.2541 -0.3036
  300CLA    CLA22360   3.177   4.716   2.250 -0.1511  0.2995 -0.0883
  301CLA    CLA22361   0.782   6.221  15.466  0.2114 -0.2233  0.1383
  302CLA    CLA22362   1.170   0.516  15.343  0.0019 -0.1949 -0.3793
  303CLA    CLA22363   1.515   0.314  14.149 -0.4770 -0.4710  0.0901
  304CLA    CLA22364   1.987   4.881   0.262 -0.0784  0.1750 -0.3050
  305CLA    CLA22365   0.457   3.877   1.582 -0.2681  0.0902 -0.2171
  306CLA    CLA22366   1.824   4.691   1.886 -0.1934 -0.3990  0.2932
  307CLA    CLA22367   2.599   4.945   4.605  0.0446 -0.1064 -0.2044
  308CLA    CLA22368   1.754   2.463  14.618 -0.1251 -0.2517  0.1279
  309CLA    CLA22369   5.864   5.400   0.736  0.4743  0.0170  0.1503
  310CLA    CLA22370   6.524   4.065  11.229 -0.0450 -0.1943  0.0538
  311CLA    CLA22371   3.108   3.383  13.742  0.0256 -0.1302 -0.2607
  312CLA    CLA22372   4.919   0.247  16.351  0.0355 -0.2745 -0.4024
  313CLA    CLA22373   5.658   2.345  15.230  0.0993 -0.0094  0.0161
  314CLA    CLA22374   2.617   3.957   5.373 -0.4913 -0.0009 -0.0206
  315CLA    CLA22375   5.796   5.417  14.010  0.6537 -0.1911 -0.2333
  316CLA    CLA22376   4.238   2.737   2.661 -0.6593  0.0019  0.0762
  317CLA    CLA22377   6.705   3.462  13.404 -0.3290  0.2027  0.3186
  318CLA    CLA22378   1.390   1.877  15.325  0.1881 -0.1496  0.0833
  319CLA    CLA22379   0.624   1.051   2.548 -0.5451 -0.1029 -0.1121
  320CLA    CLA22380   0.847   5.837  12.301 -0.3249  0.2115  0.1933
  321CLA    CLA22381   1.039   4.280  15.797 -0.4387  0.1561  0.3842
  322CLA    CLA22382   2.816   2.718   5.034 -0.2763 -0.2705 -0.0320
  323TIP3   OH222383   4.631   0.274  15.197 -0.2902  0.5947  0.3067
  323TIP3    H122384   4.552   0.227  15.225 -0.0892 -1.0166 -1.6801
  323TIP3    H222385   4.697   0.205  15.187  0.1409  1.3195 -2.2146
  324TIP3   OH222386   2.017   3.795  13.596  0.0536 -0.8052 -0.2489
  324TIP3    H122387   2.007   3.722  13.535  1.5608 -2.1842  1.0881
  324TIP3    H222388   2.083   3.765  13.658 -0.3377  1.1563  1.1666
  325TIP3   OH222389   0.962   4.934   0.482 -0.0108 -0.1070  0.9132
  325TIP3    H122390   1.013   5.014   0.468 -0.4640  0.3327  1.7049
  325TIP3    H222391   0.985   4.907   0.571  1.3379 -1.7450  0.1009
  326TIP3   OH222392   0.766   2.575  16.379  0.1827  0.1331 -0.1738
  326TIP3    H122393   0.671   2.564  16.377  0.1712 -0.0046  1.0979
  326TIP3    H222394   0.779   2.670  16.386  0.1404  0.1389 -0.1737
  327TIP3   OH222395   3.395   1.042   4.392 -0.2386 -0.5729  0.3914
  327TIP3    H122396   3.461   1.093   4.439 -0.1262 -1.5094  1.2636
  327TIP3    H222397   3.326   1.105   4.372  0.7461  0.3260 -0.1805
  328TIP3   OH222398   2.663   1.862  11.083  0.0520  0.3450  0.2848
  328TIP3    H122399   2.639   1.801  11.013 -0.7743  2.2430 -1.1446
  328TIP3    H222400   2.684   1.806  11.157 -2.9370 -1.6427 -0.2606
  329TIP3   OH222401   5.080   6.590  16.526 -0.2890  0.0858  0.5299
  329TIP3    H122402   5.049   6.678  16.549 -0.5513  0.6617 -1.8800
  329TIP3    H222403   5.175   6.596  16.534 -0.1508  1.2218 -1.5607
  330TIP3   OH222404   6.511   1.402  11.767  1.0410 -0.5756 -0.7120
  330TIP3    H122405   6.441   1.458  11.801  1.8118  0.1420 -0.2836
  330TIP3    H222406   6.478   1.313  11.776  0.2115 -0.2416 -0.4517
  331TIP3   OH222407   1.378   5.917   0.675  0.0738  0.0332 -0.1901
  331TIP3    H122408   1.389   5.879   0.588  2.2496  0.9625 -0.3683
  331TIP3    H222409   1.460   5.964   0.691  0.0688 -0.8226  2.7217
  332TIP3   OH222410   2.721   6.704  14.367 -0.4227  0.3418  0.0959
  332TIP3    H122411   2.696   6.748  14.286  1.8808  0.5920 -0.5095
  332TIP3    H222412   2.674   6.751  14.436  0.3941  2.4315 -0.7587
  333TIP3   OH222413   4.978   2.426   4.289  0.5274  0.0867 -0.0770
  333TIP3    H122414   5.036   2.363   4.332  0.0301 -0.1187  0.3002
  333TIP3    H222415   4.893   2.383   4.287 -0.0662  1.1507  1.1391
  334TIP3   OH222416   6.751   2.750   4.679 -0.0817  0.1777 -0.0426
  334TIP3    H122417   6.750   2.686   4.608  1.4265  1.0576 -0.8835
  334TIP3    H222418   6.819   2.720   4.739 -0.3441  0.2299  0.2849
  335TIP3   OH222419   5.715   2.282   2.034  0.1296 -0.5363 -0.0640
  335TIP3    H122420   5.757   2.306   1.952  1.8868 -1.8184  0.4360
  335TIP3    H222421   5.745   2.193   2.051  0.0910 -0.1437  2.1674
  336TIP3   OH222422   1.124   4.985   4.586  0.0284  0.0876 -0.0439
  336TIP3    H122423   1.180   5.042   4.639  0.5567  0.4024 -0.9370
  336TIP3    H222424   1.065   5.044   4.541 -0.0676 -0.1408 -0.2197
  337TIP3   OH222425   2.326   6.363  12.498 -0.1542 -0.5612 -0.0633
  337TIP3    H122426   2.379   6.443  12.507  0.0035 -0.7653  0.9629
  337TIP3    H222427   2.333   6.339  12.406  1.0755 -0.2608 -0.0524
  338TIP3   OH222428   0.368   1.709   5.745 -0.2754 -0.0312 -0.1437
  338TIP3    H122429   0.336   1.770   5.679  4.1380 -0.0915 -2.5337
  338TIP3    H222430   0.424   1.762   5.801 -0.1428 -0.9593  0.6247
  339TIP3   OH222431   6.083   5.020   3.412 -0.4199  0.2371  0.4018
  339TIP3    H122432   6.148   4.974   3.360 -1.3125 -1.0587  0.4103
  339TIP3    H222433   6.106   5.112   3.404  0.8996 -0.1490 -0.2863
  340TIP3   OH222434   6.430   0.808   1.795 -0.2088  0.7357  0.3342
  340TIP3    H122435   6.418   0.902   1.809  1.7579  0.8994  1.1041
  340TIP3    H222436   6.423   0.796   1.700  0.8511  1.8769  0.1016
  341TIP3   OH222437   0.972   2.255   4.635  0.3026 -0.3201 -0.4570
  341TIP3    H122438   1.064   2.259   4.607  0.2364 -3.8473 -1.5283
  341TIP3    H222439   0.970   2.180   4.696 -1.6745  0.3796  0.3512
  342TIP3   OH222440   5.971   5.498   2.129  0.8838  0.2111  0.2153
  342TIP3    H122441   5.945   5.450   2.208 -5.5790  0.7179 -1.3167
  342TIP3    H222442   5.975   5.431   2.061  0.2373  0.6579 -0.2635
  343TIP3   OH222443   3.294   1.863   0.137 -0.1369 -0.1841 -0.4886
  343TIP3    H122444   3.218   1.853   0.194 -0.4060  1.6458 -0.5041
  343TIP3    H222445   3.314   1.957   0.139  2.1588 -0.6451 -0.4484
  344TIP3   OH222446   5.190   4.704   6.295 -0.4145 -0.1844  0.1747
  344TIP3    H122447   5.242   4.708   6.375 -1.5748  1.7592  0.8862
  344TIP3    H222448   5.224   4.776   6.242 -2.3777  1.1478  0.6768
  345TIP3   OH222449   6.051   5.463  12.549 -0.4008  0.0308  0.6103
  345TIP3    H122450   6.007   5.390  12.504  2.0343 -2.1525  1.6475
  345TIP3    H222451   6.131   5.477  12.500 -0.0650  0.9064  1.3939
  346TIP3   OH222452   2.875   6.648   5.267  0.2635  0.3413  0.0261
  346TIP3    H122453   2.891   6.589   5.193  2.4033 -0.8060  1.3694
  346TIP3    H222454   2.784   6.630   5.292  0.5540 -1.7021 -0.2298
  347TIP3   OH222455   5.962   4.258  10.798 -0.0883  0.0837 -0.3488
  347TIP3    H122456   6.051   4.293  10.803  0.0894 -0.4218  0.0029
  347TIP3    H222457   5.950   4.209  10.880  0.2842 -2.1752 -1.6149
  348TIP3   OH222458   0.815   6.320   4.232 -0.6730 -0.1359  0.3870
  348TIP3    H122459   0.863   6.268   4.296  0.5169  1.3143  0.6848
  348TIP3    H222460   0.875   6.329   4.158 -1.5957 -0.7934 -0.4561
  349TIP3   OH222461   4.339   5.891  17.155 -0.4172 -0.0250 -0.2140
  349TIP3    H122462   4.306   5.831  17.087  1.0036 -0.6831 -0.3254
  349TIP3    H222463   4.373   5.965  17.106  0.2798 -0.3372 -0.1981
  350TIP3   OH222464   0.949   5.381   2.671 -0.0724  0.4379  0.2503
  350TIP3    H122465   0.922   5.424   2.751  0.1568 -0.0501  0.5936
  350TIP3    H222466   1.007   5.311   2.700  0.5104  0.6512 -0.3816
  351TIP3   OH222467   4.135   4.108   3.094  0.7274 -0.3341 -0.4958
  351TIP3    H122468   4.227   4.119   3.120  0.4913 -0.4136  0.3963
  351TIP3    H222469   4.110   4.194   3.059  0.6610  0.2052  0.8286
  352TIP3   OH222470   4.485   6.576  12.432 -0.2045  0.2515 -0.3389
  352TIP3    H122471   4.496   6.494  12.479 -1.3225 -0.2347 -0.8870
  352TIP3    H222472   4.451   6.550  12.346 -1.6155  1.3281 -0.1378
  353TIP3   OH222473   1.160   6.083  15.544  0.2020  0.2276 -0.4572
  353TIP3    H122474   1.231   6.044  15.596 -0.8591 -0.9091  0.1716
  353TIP3    H222475   1.142   6.167  15.586  1.6308  0.8378 -1.0341
  354TIP3   OH222476   0.590   4.896   2.174  0.1759 -0.1063  0.6131
  354TIP3    H122477   0.529   4.828   2.203  0.3849 -1.1947 -1.3903
  354TIP3    H222478   0.663   4.848   2.135  0.6596  1.2547 -0.2047
  355TIP3   OH222479   3.595   1.950   2.461 -0.2186 -0.0411  0.1320
  355TIP3    H122480   3.596   2.015   2.530 -1.9246  1.0531 -0.8384
  355TIP3    H222481   3.536   1.985   2.395 -2.7577 -3.4357  0.4393
  356TIP3   OH222482   0.397   5.639  13.104  0.2566  0.7760  0.3306
  356TIP3    H122483   0.439   5.553  13.100  0.1563  0.7732 -0.8576
  356TIP3    H222484   0.308   5.621  13.134 -0.4796  0.1839 -2.0995
  357TIP3   OH222485   4.184   1.382   5.316 -0.4422 -0.2973 -0.1154
  357TIP3    H122486   4.227   1.353   5.397 -1.4106 -1.4978 -0.0135
  357TIP3    H222487   4.232   1.460   5.290  0.5142 -0.4684  1.0875
  358TIP3   OH222488   1.846   6.601   5.321 -0.2571  0.4693  0.5480
  358TIP3    H122489   1.887   6.536   5.263 -0.7636 -0.7365  1.5001
  358TIP3    H222490   1.818   6.671   5.263 -0.0583 -0.3618 -0.5755
  359TIP3   OH222491   6.561   2.998  12.287 -0.3123  0.0050  0.1306
  359TIP3    H122492   6.641   2.981  12.237  0.9111  2.1017  1.3172
  359TIP3    H222493   6.492   2.951  12.239  1.1758  0.3006 -2.3634
  360TIP3   OH222494   4.968   4.779   3.598 -0.3713  0.3801 -0.1021
  360TIP3    H122495   5.016   4.792   3.680 -0.0869  0.6288 -0.3072
  360TIP3    H222496   4.896   4.721   3.621  1.1760 -1.6323 -0.2080
  361TIP3   OH222497   3.007   4.088  17.092  0.3847 -0.1881  0.1203
  361TIP3    H122498   2.944   4.019  17.075 -0.8143  0.9119  0.0139
  361TIP3    H222499   3.014   4.092  17.187  0.9996 -0.9336  0.1089
  362TIP3   OH222500   6.338   5.476   1.629 -0.1271  0.5577 -0.0507
  362TIP3    H122501   6.268   5.461   1.564  1.6748  0.1247 -1.9450
  362TIP3    H222502   6.377   5.390   1.641  0.0977  0.8098  0.9858
  363TIP3   OH222503   1.704   6.563  13.619 -0.0634 -1.0768  0.4427
  363TIP3    H122504   1.618   6.540  13.657 -0.5399 -0.4334 -0.2338
  363TIP3    H222505   1.709   6.511  13.539  0.0746 -0.9509  0.3693
  364TIP3   OH222506   3.163   5.796  16.336  0.3074  0.2655  0.2091
  364TIP3    H122507   3.179   5.825  16.246  0.0572 -0.2972 -0.0194
  364TIP3    H222508   3.085   5.845  16.363 -0.9781 -1.2689 -0.6832
  365TIP3   OH222509   5.262   0.626  11.842 -0.1991  0.0741  0.1151
  365TIP3    H122510   5.216   0.587  11.916 -2.4671  0.7346 -0.9172
  365TIP3    H222511   5.193   0.664  11.788  1.3981 -0.4997 -2.4048
  366TIP3   OH222512   3.890   1.764   3.629 -0.4946  0.1299  0.3619
  366TIP3    H122513   3.901   1.700   3.700 -2.1879 -0.3174  0.2494
  366TIP3    H222514   3.823   1.824   3.662  1.5476  2.2669  0.7399
  367TIP3   OH222515   4.284   4.261  12.364  0.3420 -1.0867  0.0468
  367TIP3    H122516   4.266   4.247  12.271 -1.6456 -0.8870  0.3879
  367TIP3    H222517   4.380   4.262  12.370  0.4848 -1.3217 -1.9566
  368TIP3   OH222518   6.356   1.643   6.379 -0.4105  0.1005  0.6757
  368TIP3    H122519   6.356   1.548   6.388 -0.7703 -0.3560 -3.2156
  368TIP3    H222520   6.284   1.662   6.319  0.9287  2.6028 -0.2296
  369TIP3   OH222521   2.050   0.302   1.069 -0.3320  0.2628  0.0024
  369TIP3    H122522   1.961   0.309   1.106 -0.5362 -1.7161 -0.0273
  369TIP3    H222523   2.106   0.287   1.145 -0.0981  0.9391 -0.0356
  370TIP3   OH222524   3.601   4.000  13.504 -0.7327  0.2496  0.0144
  370TIP3    H122525   3.615   3.944  13.428 -0.3682  0.3935 -0.0250
  370TIP3    H222526   3.689   4.025  13.532 -0.8833  0.5997  0.1810
  371TIP3   OH222527   4.275   4.098   3.976  0.3004 -0.9950 -0.3460
  371TIP3    H122528   4.213   4.126   3.909  0.9773  1.5437  0.0408
  371TIP3    H222529   4.221   4.079   4.053 -0.0222  1.2846  0.0165
  372TIP3   OH222530   3.299   5.858   4.806  0.3754  0.0264  0.4093
  372TIP3    H122531   3.234   5.802   4.847  0.6688  0.8262  2.0297
  372TIP3    H222532   3.378   5.847   4.860  0.2289  2.4930  1.2204
  373TIP3   OH222533   0.140   3.887  16.395 -0.2366 -0.1929 -0.3942
  373TIP3    H122534   0.107   3.802  16.423  1.3278 -0.1948  1.5638
  373TIP3    H222535   0.213   3.866  16.337  0.4742 -0.2109  0.4910
  374TIP3   OH222536   4.116   1.375  14.807  0.5632  0.0557 -0.2480
  374TIP3    H122537   4.098   1.285  14.782 -1.0113  0.1401  0.5394
  374TIP3    H222538   4.164   1.368  14.889 -1.9869 -0.0379  1.2899
  375TIP3   OH222539   0.608   4.248   0.602  0.3427  0.1308 -0.3488
  375TIP3    H122540   0.598   4.233   0.696 -2.0986 -1.0482 -0.7660
  375TIP3    H222541   0.668   4.322   0.596  1.4947 -0.5403  2.1073
  376TIP3   OH222542   3.563   5.035  12.675 -0.8030 -0.2836 -0.1678
  376TIP3    H122543   3.569   5.034  12.771 -0.6695 -2.0450 -0.1754
  376TIP3    H222544   3.605   5.117  12.649  1.6538 -1.0939  1.1392
  377TIP3   OH222545   0.434   5.744   2.234  0.0269  0.1180  0.6075
  377TIP3    H122546   0.465   5.720   2.321  1.0847 -0.0798  0.1899
  377TIP3    H222547   0.493   5.815   2.207 -1.2484  1.2302  0.6582
  378TIP3   OH222548   1.454   4.338  14.394  0.3230 -0.2118 -0.0634
  378TIP3    H122549   1.447   4.396  14.469  1.1858  0.7675 -0.7181
  378TIP3    H222550   1.388   4.370  14.333  0.7889  0.0879 -0.4176
  379TIP3   OH222551   3.912   3.125   3.952  0.5683 -0.0146  0.5434
  379TIP3    H122552   3.947   3.040   3.981  1.0140  0.0125  0.0888
  379TIP3    H222553   3.978   3.159   3.893  0.2475  0.5191  0.4893
  380TIP3   OH222554   6.448   6.725  11.172  0.4685 -0.2657 -0.0855
  380TIP3    H122555   6.394   6.740  11.249  0.4416  0.0428 -0.1654
  380TIP3    H222556   6.399   6.765  11.100  0.2502 -0.9919 -0.3469
  381TIP3   OH222557   2.841   6.122  14.633  0.0392  0.6246  0.2038
  381TIP3    H122558   2.901   6.174  14.580  0.9342 -1.0398 -0.4822
  381TIP3    H222559   2.788   6.186  14.680  0.7671  2.1272 -0.9799
  382TIP3   OH222560   2.470   4.308   0.854  0.2790  0.1209  0.4759
  382TIP3    H122561   2.374   4.314   0.852  0.2173  0.0761  2.2572
  382TIP3    H222562   2.500   4.399   0.856  0.3096  0.1472 -0.7451
  383TIP3   OH222563   3.605   0.187  15.160 -0.5470  0.6494  0.0900
  383TIP3    H122564   3.663   0.167  15.234  0.4321  0.7843 -0.6415
  383TIP3    H222565   3.598   0.282  15.160 -0.5662  0.6479  0.0262
  384TIP3   OH222566   3.308   3.460   4.952  0.8735  0.3049  0.3225
  384TIP3    H122567   3.251   3.384   4.957 -0.7673  1.3876 -1.1968
  384TIP3    H222568   3.254   3.533   4.981  1.5964  1.3031 -0.7931
  385TIP3   OH222569   0.199   5.513   4.205  0.2458  0.0463 -0.7862
  385TIP3    H122570   0.220   5.424   4.233  2.6861  0.5918 -0.8281
  385TIP3    H222571   0.202   5.565   4.286 -1.6342  0.0563 -0.6821
  386TIP3   OH222572   2.465   0.412  14.157 -0.6999  0.0991  0.2731
  386TIP3    H122573   2.488   0.471  14.229  0.8193 -0.3049  0.1138
  386TIP3    H222574   2.475   0.324  14.193 -0.2845 -0.1008 -0.3369
  387TIP3   OH222575   6.376   3.950   1.694  0.7861 -0.7259 -0.1514
  387TIP3    H122576   6.443   3.882   1.708  0.9163 -0.8573 -1.3935
  387TIP3    H222577   6.394   3.984   1.606  0.6235  0.8196  0.3954
  388TIP3   OH222578   3.155   4.073   5.703 -0.3556  0.0107  0.4062
  388TIP3    H122579   3.157   4.162   5.738  1.3676  0.3743 -0.5539
  388TIP3    H222580   3.065   4.044   5.716 -0.9557  1.9244  0.6538
  389TIP3   OH222581   1.310   4.290   5.605  0.3797 -0.2546 -0.1682
  389TIP3    H122582   1.375   4.360   5.611  1.6024 -1.3157 -0.6887
  389TIP3    H222583   1.254   4.302   5.682  1.6115  0.2716  0.6650
  390TIP3   OH222584   2.870   5.200  14.400 -0.3986  0.4975  0.2268
  390TIP3    H122585   2.841   5.111  14.421  0.3742  0.1398 -0.2240
  390TIP3    H222586   2.839   5.215  14.310  0.8346  0.1058 -0.2644
  391TIP3   OH222587   4.054   6.318  12.329 -0.2434 -0.2840  0.4096
  391TIP3    H122588   4.004   6.382  12.379  0.0223 -0.4433  0.8869
  391TIP3    H222589   4.043   6.343  12.238 -1.2495 -0.3611  0.5106
  392TIP3   OH222590   1.871   3.703  11.834  0.2020  0.3635 -0.1176
  392TIP3    H122591   1.812   3.662  11.898 -0.2816  0.4777 -0.4894
  392TIP3    H222592   1.925   3.762  11.886 -2.1338  2.6508 -0.1869
  393TIP3   OH222593   0.565   1.414  14.835 -0.8021  0.7037 -0.6425
  393TIP3    H122594   0.562   1.490  14.892 -0.4794  1.1359 -1.1956
  393TIP3    H222595   0.566   1.451  14.746 -2.0743  0.0388 -0.9524
  394TIP3   OH222596   2.872   3.610   2.907 -0.2674  0.0275  0.7781
  394TIP3    H122597   2.809   3.641   2.972 -1.2808  2.4451 -1.2590
  394TIP3    H222598   2.886   3.686   2.849  0.3579 -2.1134 -2.0022
  395TIP3   OH222599   0.566   4.198   2.228  0.0659  0.4403 -0.0626
  395TIP3    H122600   0.494   4.248   2.190 -0.1522  0.0456 -0.1704
  395TIP3    H222601   0.630   4.191   2.157 -1.3213 -2.2539 -1.1059
  396TIP3   OH222602   2.904   4.799  11.826  0.5091 -0.2046 -0.8086
  396TIP3    H122603   2.841   4.791  11.896  2.4373  0.5204  1.0716
  396TIP3    H222604   2.925   4.709  11.801  1.3541 -0.5233  0.9997
  397TIP3   OH222605   5.739   4.321   0.163 -0.1346  0.2115  0.1068
  397TIP3    H122606   5.758   4.237   0.121 -0.3017  0.0038  0.4433
  397TIP3    H222607   5.644   4.324   0.168 -0.0739 -1.2707  3.4570
  398TIP3   OH222608   4.678   4.553   1.190 -0.4507 -0.3876  0.4773
  398TIP3    H122609   4.600   4.607   1.175  0.2553  0.8340  1.0980
  398TIP3    H222610   4.743   4.587   1.128 -0.3248 -1.2261  0.1449
  399TIP3   OH222611   2.043   6.215   5.247  0.3703 -0.5627 -0.1447
  399TIP3    H122612   2.077   6.284   5.189  1.2436 -1.2021 -0.4118
  399TIP3    H222613   1.948   6.227   5.246  0.5273  0.6774 -0.1317
  400TIP3   OH222614   2.563   0.868  14.868  0.1575  0.5385  0.1190
  400TIP3    H122615   2.581   0.831  14.954  1.0267  1.5231  0.3620
  400TIP3    H222616   2.633   0.932  14.853  0.2768  0.0713 -1.4969
  401TIP3   OH222617   6.628   1.753  13.507 -0.2214  0.5093  0.0466
  401TIP3    H122618   6.697   1.719  13.449 -0.8861 -2.1249  0.7606
  401TIP3    H222619   6.664   1.745  13.595  0.3198  3.4357  0.1528
  402TIP3   OH222620   0.785   0.996   0.856 -0.5258 -0.0543  0.1322
  402TIP3    H122621   0.698   0.971   0.885 -0.2583 -1.6144 -0.3666
  402TIP3    H222622   0.837   0.916   0.864 -0.1711 -0.2961 -3.4801
  403TIP3   OH222623   3.766   4.023   3.275 -0.2398  0.7529  0.1321
  403TIP3    H122624   3.672   4.040   3.268 -0.5061 -1.0707 -0.8572
  403TIP3    H222625   3.790   3.983   3.191  1.0535 -0.5049  1.0896
  404TIP3   OH222626   3.978   0.610  15.868 -0.2492  0.0199 -0.5782
  404TIP3    H122627   4.049   0.673  15.851 -1.8972  2.3510  0.8265
  404TIP3    H222628   3.917   0.658  15.924 -1.3083 -3.0671  1.0125
  405TIP3   OH222629   5.865   2.301   1.802  0.3642  0.2102  0.2983
  405TIP3    H122630   5.834   2.251   1.727 -0.9681  2.1489 -0.4483
  405TIP3    H222631   5.959   2.281   1.807  0.5838  0.5373 -2.2306
  406TIP3   OH222632   4.401   1.935   2.284 -0.0770  0.1846  0.1731
  406TIP3    H122633   4.430   2.010   2.232  0.6581  1.3585  2.2176
  406TIP3    H222634   4.324   1.903   2.238  0.5131  1.2121 -1.6024
  407TIP3   OH222635   4.735   1.414   2.450  0.4079  0.3418  0.3842
  407TIP3    H122636   4.682   1.459   2.384 -0.6150 -0.5983  0.5580
  407TIP3    H222637   4.808   1.376   2.402 -0.2220 -0.1615 -0.1746
  408TIP3   OH222638   1.042   0.633   4.129 -0.2094  0.4503 -0.4572
  408TIP3    H122639   0.979   0.671   4.067 -0.9629  1.6001  0.9777
  408TIP3    H222640   1.014   0.666   4.214  2.2744  0.8516  0.2202
  409TIP3   OH222641   2.916   6.412  14.858 -0.5536 -0.0604  0.0782
  409TIP3    H122642   2.859   6.437  14.785  0.7357 -1.4431 -1.4592
  409TIP3    H222643   2.859   6.360  14.915 -1.5060  0.7868 -0.0833
  410TIP3   OH222644   4.051   3.787   4.363 -0.2769  0.5535  0.0790
  410TIP3    H122645   4.008   3.747   4.287  0.1655  0.7408 -0.2683
  410TIP3    H222646   4.102   3.716   4.402  0.8689  0.8793 -0.7988
  411TIP3   OH222647   5.401   5.147  14.555  0.0699 -0.5166 -0.5356
  411TIP3    H122648   5.446   5.103  14.627 -2.0998 -0.6712  0.7646
  411TIP3    H222649   5.466   5.149  14.485  1.4567 -2.4534  0.6174
  412TIP3   OH222650   0.471   3.231   2.072 -0.4136  0.5488  0.1839
  412TIP3    H122651   0.429   3.177   2.139 -0.2859  1.4450  0.9962
  412TIP3    H222652   0.436   3.319   2.087 -1.3725  0.5226 -1.7529
  413TIP3   OH222653   6.358   1.786   0.557  0.2968 -0.2061 -0.4003
  413TIP3    H122654   6.278   1.781   0.504  0.3763 -1.2197 -0.4315
  413TIP3    H222655   6.353   1.872   0.599 -0.2022  0.2394 -1.3598
  414TIP3   OH222656   2.254   0.206  15.628  0.4724  0.2691 -0.6474
  414TIP3    H122657   2.334   0.257  15.620  0.3661  0.6157  0.5188
  414TIP3    H222658   2.242   0.168  15.541  0.9829  1.5843 -1.3130
  415TIP3   OH222659   2.958   3.110  11.457 -0.0378 -0.2388 -0.0395
  415TIP3    H122660   2.934   3.169  11.386  1.8902 -0.5588 -1.0104
  415TIP3    H222661   2.917   3.026  11.434  0.5591 -0.3343 -0.7719
  416TIP3   OH222662   6.438   2.426   3.606 -0.0991 -0.0549 -0.0523
  416TIP3    H122663   6.386   2.477   3.544 -0.7458  0.6497  1.0580
  416TIP3    H222664   6.499   2.490   3.644 -0.2697 -0.3121  0.6528
  417TIP3   OH222665   0.934   4.844  11.541 -0.3723  0.1308  0.2310
  417TIP3    H122666   1.009   4.814  11.489  0.0009  0.9411  0.2940
  417TIP3    H222667   0.966   4.921  11.587 -1.5119  1.0400 -0.4566
  418TIP3   OH222668   4.946   4.980  10.689  0.0535  0.2734 -0.3512
  418TIP3    H122669   4.970   4.972  10.781 -0.6789 -0.0241 -0.1876
  418TIP3    H222670   4.860   5.023  10.690  1.1251  2.5076 -0.9846
  419TIP3   OH222671   6.396   1.026  10.886  0.3788 -0.3983 -0.8758
  419TIP3    H122672   6.402   0.964  10.958  1.3240  1.2361  0.4841
  419TIP3    H222673   6.475   1.009  10.834  0.9854  0.1166 -0.1301
  420TIP3   OH222674   6.107   4.098  12.941 -0.3223  0.3441  0.3195
  420TIP3    H122675   6.087   4.157  12.868 -1.2280  1.6657  1.6080
  420TIP3    H222676   6.101   4.154  13.019  0.6661 -1.0363  1.4018
  421TIP3   OH222677   4.039   0.029   0.419 -0.1635 -0.1137 -0.4569
  421TIP3    H122678   4.131   0.055   0.419 -0.6848  1.8713  1.5561
  421TIP3    H222679   4.036  -0.047   0.361  2.8783 -0.7084  0.0666
  422TIP3   OH222680   1.112   5.516   0.917 -0.2916  0.1832 -0.2434
  422TIP3    H122681   1.052   5.474   0.855 -1.1728  1.9312 -0.6206
  422TIP3    H222682   1.121   5.605   0.884  1.1813  0.4318  0.7849
  423TIP3   OH222683   3.118   6.556   5.984 -0.5140 -0.5735  0.3365
  423TIP3    H122684   3.038   6.515   6.018 -0.4453  0.2135  1.4790
  423TIP3    H222685   3.086   6.622   5.923 -0.8975  1.5427  2.7266
  424TIP3   OH222686   4.988   2.861   0.956 -0.4555  0.2912  0.3742
  424TIP3    H122687   4.932   2.784   0.941 -0.2558 -0.0952  1.5147
  424TIP3    H222688   4.958   2.925   0.892 -1.5899 -0.2403  0.3481
  425TIP3   OH222689   2.950   5.126   1.714  0.2901 -0.0301 -0.7135
  425TIP3    H122690   2.981   5.035   1.710  1.3921  0.3702 -1.5723
  425TIP3    H222691   2.884   5.132   1.645 -0.5391 -0.4474  0.0332
  426TIP3   OH222692   0.721   4.622   3.096  0.4998 -0.0979 -0.4268
  426TIP3    H122693   0.686   4.536   3.071  0.5999 -0.2146 -0.1728
  426TIP3    H222694   0.655   4.684   3.067 -0.8414 -0.4385  1.7314
  427TIP3   OH222695   4.423   0.875   6.464  0.3161 -1.0683 -0.3703
  427TIP3    H122696   4.328   0.876   6.472  0.1732 -1.1823 -1.8239
  427TIP3    H222697   4.453   0.950   6.515 -0.7148  0.1802 -1.5363
  428TIP3   OH222698   1.019   2.691   3.578 -0.0595  0.0476 -0.5850
  428TIP3    H122699   1.066   2.713   3.658  0.4917 -1.3495 -0.5128
  428TIP3    H222700   1.048   2.756   3.514 -0.0690  0.8127  0.1868
  429TIP3   OH222701   5.689   5.023  13.752  0.3606  0.1348 -0.1481
  429TIP3    H122702   5.770   5.070  13.734 -0.8387  1.5020 -2.1539
  429TIP3    H222703   5.671   4.973  13.672 -1.0387  0.2466  0.0773
  430TIP3   OH222704   6.171   5.424  14.219  0.2915  0.3302 -0.4457
  430TIP3    H122705   6.137   5.513  14.220 -0.5148  0.0272  1.3271
  430TIP3    H222706   6.260   5.433  14.186  0.3267  1.8347  0.0162
  431TIP3   OH222707   4.654   2.275  16.512 -0.0520 -0.5676  0.2091
  431TIP3    H122708   4.602   2.355  16.518 -0.2407 -0.5971 -0.8802
  431TIP3    H222709   4.599   2.215  16.461  0.8909 -0.7179 -0.6492
  432TIP3   OH222710   2.499   6.574   4.937  0.7568 -0.2760 -0.1735
  432TIP3    H122711   2.454   6.538   5.014 -0.3239  1.4380  0.0280
  432TIP3    H222712   2.503   6.668   4.954  3.2174 -0.2210 -0.8422
  433TIP3   OH222713   0.061   5.014   0.378 -0.7681  0.2360  0.4572
  433TIP3    H122714   0.002   5.083   0.348 -0.0532  0.4209 -0.5408
  433TIP3    H222715   0.081   4.963   0.299  0.3976  0.1732  0.7847
  434TIP3   OH222716   0.961   0.019   0.757  0.0392  0.8448 -0.2859
  434TIP3    H122717   0.877  -0.025   0.770  0.9591 -1.1965 -0.9594
  434TIP3    H222718   0.941   0.090   0.696 -1.6216  1.8315  1.3702
  435TIP3   OH222719   4.141   4.630   0.515  0.2150  0.8272 -0.1092
  435TIP3    H122720   4.117   4.662   0.428 -0.2909  1.6869  0.3454
  435TIP3    H222721   4.123   4.704   0.574 -0.0021  0.0508  0.8062
  436TIP3   OH222722   4.368   3.576  12.331 -0.2556  0.1730 -0.5137
  436TIP3    H122723   4.382   3.639  12.402 -0.4538 -2.1456  1.6762
  436TIP3    H222724   4.452   3.530  12.324 -0.8560 -0.9814 -0.3479
  437TIP3   OH222725   2.249   3.826  15.586  0.5894 -0.1673  0.3594
  437TIP3    H122726   2.319   3.768  15.615  0.4494  0.2419  1.5549
  437TIP3    H222727   2.172   3.770  15.580  0.9348 -0.5422 -0.5934
  438TIP3   OH222728   4.745   6.538  15.324  0.2497 -0.3996 -0.5941
  438TIP3    H122729   4.819   6.598  15.308 -1.0584  1.6854  0.9286
  438TIP3    H222730   4.777   6.479  15.392  0.3762  0.7752  0.3782
  439TIP3   OH222731   0.777   6.090   6.424  0.0286 -0.1016  0.0725
  439TIP3    H122732   0.823   6.109   6.341  1.2766  0.9308  0.9803
  439TIP3    H222733   0.847   6.083   6.489 -1.0564  0.9124  1.3834
  440TIP3   OH222734   5.603   2.930   1.329 -0.1851  0.1188 -0.5109
  440TIP3    H122735   5.601   2.962   1.419  0.4672  1.9903 -1.1447
  440TIP3    H222736   5.678   2.871   1.326 -0.6971 -0.6061  0.3584
  441TIP3   OH222737   2.398   6.740  14.238 -0.6708 -0.5584 -0.3093
  441TIP3    H122738   2.355   6.684  14.303 -1.8500 -2.3332 -2.5428
  441TIP3    H222739   2.328   6.797  14.206 -0.3601 -0.4807 -0.8487
  442TIP3   OH222740   0.656   4.386  11.627 -0.6336 -0.5701  0.4375
  442TIP3    H122741   0.630   4.333  11.702 -1.0588 -0.3073  0.4773
  442TIP3    H222742   0.656   4.476  11.660 -1.5243 -0.3823 -0.0663
  443TIP3   OH222743   5.823   3.990   5.677  0.3627  0.6399  0.3790
  443TIP3    H122744   5.730   4.008   5.664  0.0440 -0.4962  0.9580
  443TIP3    H222745   5.829   3.894   5.671  1.4941  0.7084  0.3638
  444TIP3   OH222746   2.008   3.611   1.399  0.3675 -0.5189 -0.3316
  444TIP3    H122747   2.060   3.686   1.370  0.3399 -1.8557 -4.2357
  444TIP3    H222748   2.070   3.537   1.398 -0.7391 -1.4546 -1.5402
  445TIP3   OH222749   6.184   0.154   3.327 -0.0382  0.7159  0.0547
  445TIP3    H122750   6.158   0.238   3.365  0.7769  1.2323 -0.5075
  445TIP3    H222751   6.111   0.130   3.270 -0.3659  0.9446  0.3750
  446TIP3   OH222752   4.102   6.208  14.164 -0.1776 -0.6160 -0.0843
  446TIP3    H122753   4.165   6.146  14.201  0.2573 -1.3014 -1.9365
  446TIP3    H222754   4.113   6.288  14.216  1.1531 -1.2170  0.5678
  447TIP3   OH222755   2.801   0.305   4.826 -0.3370 -0.0253 -0.3629
  447TIP3    H122756   2.886   0.345   4.809  0.9489 -2.8366 -0.9129
  447TIP3    H222757   2.744   0.338   4.757  0.7698  0.5288 -1.0225
  448TIP3   OH222758   4.991   3.298   2.933  0.1769  0.0807  0.7387
  448TIP3    H122759   4.911   3.346   2.954  0.4249  0.4789  0.7792
  448TIP3    H222760   4.980   3.213   2.975  0.2727  0.5419  1.7194
  449TIP3   OH222761   4.200   2.433   4.470  0.0922 -0.8382 -0.0453
  449TIP3    H122762   4.255   2.371   4.519  1.9382  1.0466  0.3459
  449TIP3    H222763   4.181   2.503   4.533 -2.9461 -1.4996 -0.1326
  450TIP3   OH222764   4.663   6.269   5.015 -0.6431  0.1367  0.6589
  450TIP3    H122765   4.645   6.291   4.923 -2.6829  0.5945  1.1492
  450TIP3    H222766   4.721   6.193   5.010 -1.4148 -0.3709 -1.0300
  451TIP3   OH222767   5.095   0.344  11.711  0.4449  0.4559 -0.0877
  451TIP3    H122768   5.103   0.371  11.620 -0.0840  3.3649  0.6817
  451TIP3    H222769   5.171   0.288  11.727  0.9457  0.5529 -2.0898
  452TIP3   OH222770   0.727   2.479   0.304  0.2896 -0.4423 -0.1336
  452TIP3    H122771   0.769   2.477   0.390 -0.0650  2.0301  0.1257
  452TIP3    H222772   0.633   2.486   0.324  0.2185  0.2583 -0.7141
  453TIP3   OH222773   4.559   2.245  15.985 -0.1493 -0.0133  0.3989
  453TIP3    H122774   4.570   2.289  15.901  0.0218  0.5028  0.6906
  453TIP3    H222775   4.612   2.166  15.978  0.3408  0.3276  0.2373
  454TIP3   OH222776   3.790   0.160   4.751  0.1878 -0.1581 -0.7850
  454TIP3    H122777   3.715   0.216   4.767  1.0916  1.0127 -0.5477
  454TIP3    H222778   3.796   0.153   4.656  0.4068  0.6263 -0.8345
  455TIP3   OH222779   5.104   5.109   5.719  0.3835  0.1303  0.4541
  455TIP3    H122780   5.117   5.194   5.761  2.1771  0.8918 -1.5745
  455TIP3    H222781   5.073   5.052   5.790 -0.0718  2.2497  2.0100
  456TIP3   OH222782   1.892   3.807   3.199 -0.3409  0.0796 -0.2658
  456TIP3    H122783   1.819   3.775   3.147  0.4916 -0.9638 -0.8246
  456TIP3    H222784   1.953   3.844   3.135  0.7835 -1.3917 -0.0709
  457TIP3   OH222785   5.843   0.983  16.857 -0.2536  0.4104  0.3851
  457TIP3    H122786   5.755   0.954  16.883 -0.5154 -0.0187 -0.9033
  457TIP3    H222787   5.889   0.999  16.939 -0.4573 -2.6771  1.1785
  458TIP3   OH222788   1.849   2.284  14.842  0.3681 -0.1824  0.2509
  458TIP3    H122789   1.788   2.321  14.777  1.3758  1.3616  0.1607
  458TIP3    H222790   1.851   2.191  14.821  0.4151  0.2315 -1.7361
  459TIP3   OH222791   2.075   2.065  12.988  0.2421  0.2802 -0.1532
  459TIP3    H122792   2.054   2.158  12.986  0.9516  0.4450 -0.0331
  459TIP3    H222793   2.007   2.024  12.934  1.1675  1.1242 -2.0283
  460TIP3   OH222794   2.578   0.578   1.081  0.2888  0.0775 -0.3246
  460TIP3    H122795   2.669   0.598   1.061  0.3127  0.0885 -0.2070
  460TIP3    H222796   2.571   0.589   1.176  0.2563 -0.2875 -0.2840
  461TIP3   OH222797   6.718   3.134  11.811 -0.0504  0.0865 -0.4705
  461TIP3    H122798   6.680   3.057  11.770 -0.8305  0.1471  0.1189
  461TIP3    H222799   6.798   3.103  11.852 -0.9421 -0.6547  0.7415
  462TIP3   OH222800   4.543   4.675   5.211  0.1407 -0.2030 -0.2124
  462TIP3    H122801   4.624   4.640   5.174 -0.6530 -1.6574 -0.5750
  462TIP3    H222802   4.532   4.760   5.168  1.4988  0.0225 -0.1215
  463TIP3   OH222803   3.379   4.630  14.389  0.4125  0.1467 -0.4200
  463TIP3    H122804   3.473   4.617  14.380  0.7500  2.9107 -1.0639
  463TIP3    H222805   3.368   4.667  14.477  0.3357  3.3291 -1.7269
  464TIP3   OH222806   2.972   2.892  11.891 -0.0700 -0.2111  0.5806
  464TIP3    H122807   2.995   2.826  11.826 -1.0966 -0.8426  0.8467
  464TIP3    H222808   2.945   2.968  11.839  2.5231  0.5468  0.2641
  465TIP3   OH222809   0.369   1.741   3.126  0.3858 -0.0444 -0.4465
  465TIP3    H122810   0.301   1.713   3.065  0.0293 -0.5390  0.1696
  465TIP3    H222811   0.451   1.715   3.085  0.2404  1.1181 -1.4881
  466TIP3   OH222812   0.743   0.175   6.192 -0.2399  0.0687  0.6767
  466TIP3    H122813   0.756   0.166   6.098 -1.1378 -1.0080  0.6477
  466TIP3    H222814   0.689   0.100   6.216  1.3600 -0.5782  2.3276
  467TIP3   OH222815   0.979   0.051  16.040  0.2233 -0.3362 -0.2829
  467TIP3    H122816   1.006  -0.001  16.117 -1.9343  0.0646  0.7633
  467TIP3    H222817   0.903   0.004  16.005  1.5579 -0.8616 -2.5918
  468TIP3   OH222818   1.183   2.228  13.113 -0.2835  0.4012 -0.1187
  468TIP3    H122819   1.099   2.274  13.120 -0.1923  0.5969 -0.2972
  468TIP3    H222820   1.191   2.208  13.020 -0.3134  0.0400 -0.0438
  469TIP3   OH222821   4.051   5.196  11.188  0.3556  0.0131  0.4270
  469TIP3    H122822   4.081   5.237  11.107 -0.3301  0.4794  0.4013
  469TIP3    H222823   4.126   5.201  11.246 -0.0557  2.4013  0.8213
  470TIP3   OH222824   3.666   1.046   1.550 -0.0362 -0.8099 -0.2200
  470TIP3    H122825   3.693   1.106   1.619  2.1789 -1.1242 -0.7585
  470TIP3    H222826   3.600   1.095   1.500  1.0419  0.8367 -0.0794
  471TIP3   OH222827   1.643   4.598  14.492  0.1561  0.1920  0.3076
  471TIP3    H122828   1.627   4.643  14.409 -0.4961 -0.1162  0.2648
  471TIP3    H222829   1.557   4.564  14.518  0.4223 -0.0063  0.9361
  472TIP3   OH222830   0.163   5.221  13.042 -0.2700  0.1664  0.5149
  472TIP3    H122831   0.119   5.140  13.018  3.0503 -1.6998  0.4457
  472TIP3    H222832   0.161   5.223  13.138 -0.1601 -0.1313  0.5224
  473TIP3   OH222833   6.183   4.967  11.180  0.1877  0.1325 -0.0175
  473TIP3    H122834   6.276   4.962  11.156  0.4019  1.7026  0.4357
  473TIP3    H222835   6.137   4.931  11.104  1.0198  1.8714 -1.3797
  474TIP3   OH222836   6.434   2.224  14.931 -0.0845  0.9124 -0.2343
  474TIP3    H122837   6.485   2.235  14.850  1.9169  0.2607  0.8883
  474TIP3    H222838   6.419   2.314  14.962  0.1686  1.1224 -0.7191
  475TIP3   OH222839   0.606   3.079   0.225  0.1923 -0.8028 -0.1255
  475TIP3    H122840   0.532   3.051   0.279  0.8999  0.8274  1.7762
  475TIP3    H222841   0.661   3.001   0.216 -1.2841 -1.7794 -0.7742
  476TIP3   OH222842   5.907   0.451  12.642  0.6550 -0.3390 -0.4185
  476TIP3    H122843   5.963   0.383  12.604  1.5078 -0.7348  1.4817
  476TIP3    H222844   5.825   0.406  12.664  0.1986 -0.1312 -1.6734
  477TIP3   OH222845   3.991   2.586   5.464  0.1307  0.0736  0.1792
  477TIP3    H122846   4.017   2.544   5.547  2.0498  0.9401  0.0525
  477TIP3    H222847   4.074   2.600   5.418 -0.8869 -0.0085 -1.7250
  478TIP3   OH222848   1.051   5.843  15.181  0.2598 -0.4503  0.3629
  478TIP3    H122849   1.012   5.881  15.102  0.1871  0.9739  1.0717
  478TIP3    H222850   1.000   5.879  15.253 -0.4163 -2.6371  1.0294
  479TIP3   OH222851   1.728   1.902  13.770 -0.5986  0.8674  0.0191
  479TIP3    H122852   1.765   1.958  13.701  1.4214  0.6190  0.8701
  479TIP3    H222853   1.678   1.962  13.825 -1.1204  1.2873 -0.9008
  480TIP3   OH222854   0.053   3.247   5.630  0.5092 -0.5314 -0.0109
  480TIP3    H122855   0.088   3.323   5.677  2.1849 -0.4412 -1.3452
  480TIP3    H222856   0.102   3.245   5.548 -1.0795 -1.7606 -0.9584
  481TIP3   OH222857   0.564   0.619  15.378  1.1565 -0.1680 -0.8339
  481TIP3    H122858   0.648   0.659  15.399  0.1427  0.6832  1.8335
  481TIP3    H222859   0.507   0.645  15.450 -1.0949 -1.6502 -2.0375
  482TIP3   OH222860   5.852   2.306  14.609 -0.2689 -0.3338  0.0755
  482TIP3    H122861   5.764   2.306  14.572  0.0477 -1.7624 -0.7368
  482TIP3    H222862   5.851   2.375  14.675 -1.2973  1.2946 -1.5843
  483TIP3   OH222863   1.055   0.287   2.252  0.1008 -0.0863 -0.7833
  483TIP3    H122864   1.056   0.216   2.188 -1.0202 -0.1195 -0.7585
  483TIP3    H222865   1.041   0.244   2.336  0.6989  0.0457 -0.6082
  484TIP3   OH222866   3.433   6.757   5.218  0.6200  0.1375 -0.2761
  484TIP3    H122867   3.501   6.825   5.217  1.2689 -0.4664  1.6416
  484TIP3    H222868   3.396   6.761   5.306 -2.0967  0.6841 -1.4077
  485TIP3   OH222869   6.480   5.894  15.684  0.0208 -0.3038 -0.4795
  485TIP3    H122870   6.411   5.832  15.710  0.6830 -1.0372 -0.4512
  485TIP3    H222871   6.443   5.940  15.608 -0.1801 -1.2784 -0.9825
  486TIP3   OH222872   3.908   2.120  14.841 -0.1598 -0.4974 -0.7633
  486TIP3    H122873   3.918   2.187  14.773  1.6788 -2.6688 -2.7229
  486TIP3    H222874   3.830   2.071  14.816 -1.2709  0.6007  0.4492
  487TIP3   OH222875   4.625   4.344   2.387 -0.4136 -0.4779 -0.3289
  487TIP3    H122876   4.607   4.386   2.302 -0.8615 -1.1342 -0.5653
  487TIP3    H222877   4.570   4.391   2.449  1.1843  1.1403 -0.0854
  488TIP3   OH222878   0.431   1.377  13.306  0.4591  0.4106  0.2351
  488TIP3    H122879   0.470   1.447  13.358  1.0331 -0.4732  1.0068
  488TIP3    H222880   0.493   1.304  13.312 -1.4976 -1.1837  1.8540
  489TIP3   OH222881   3.345   0.277   0.897 -0.5786 -0.0445  0.5038
  489TIP3    H122882   3.373   0.188   0.877  0.4203  0.0998  1.2052
  489TIP3    H222883   3.292   0.267   0.977  0.4479  0.1107  1.2190
  490TIP3   OH222884   0.096   5.020  14.476 -0.1496  0.5533 -0.1604
  490TIP3    H122885   0.026   5.060  14.424 -1.5030 -1.2625  0.2187
  490TIP3    H222886   0.149   5.094  14.506 -0.9337  1.8369 -1.8334
  491TIP3   OH222887   0.125   5.213   4.737 -0.1099  0.0084  0.4353
  491TIP3    H122888   0.170   5.268   4.801  0.8019  1.0862 -1.1145
  491TIP3    H222889   0.178   5.133   4.734 -2.1256 -1.5572  3.6105
  492TIP3   OH222890   4.944   5.177  15.987  0.2577 -0.1160 -0.2222
  492TIP3    H122891   4.921   5.100  15.935 -0.5005 -0.6976  0.9335
  492TIP3    H222892   4.903   5.160  16.073 -1.1086  2.2145 -0.3846
  493TIP3   OH222893   0.184   6.046   0.672 -0.6268 -0.1633  0.1121
  493TIP3    H122894   0.183   5.985   0.746 -0.3828  1.3660  1.3914
  493TIP3    H222895   0.275   6.047   0.643 -0.1210  1.4558  1.6796
  494TIP3   OH222896   3.209   0.072   6.063  0.4396  0.4474 -0.0116
  494TIP3    H122897   3.282   0.069   6.125  0.9590  1.9332 -0.5197
  494TIP3    H222898   3.136   0.108   6.114  1.0880  2.4471 -0.4262
  495TIP3   OH222899   4.662   5.816  10.443  0.3502 -0.0034 -0.2264
  495TIP3    H122900   4.688   5.751  10.508 -0.8659  0.2324  0.5101
  495TIP3    H222901   4.712   5.793  10.365  0.2178 -1.5860  0.1441
  496TIP3   OH222902   1.390   6.011   3.218 -0.3449  0.1616 -0.9501
  496TIP3    H122903   1.374   5.920   3.192  1.0723  0.3703 -2.5856
  496TIP3    H222904   1.485   6.021   3.214 -0.1646  0.6909  2.7781
  497TIP3   OH222905   0.881   5.258  13.767  0.3089 -0.2437  0.0892
  497TIP3    H122906   0.803   5.297  13.727 -0.0182 -0.5997  0.3758
  497TIP3    H222907   0.877   5.286  13.859 -0.1819 -1.3400  0.4069
  498TIP3   OH222908   1.967   5.562  13.365  0.0352  0.4058 -0.2643
  498TIP3    H122909   1.938   5.653  13.374  0.7483  1.0225 -3.5137
  498TIP3    H222910   1.892   5.510  13.394 -1.1989  2.0453 -0.4251
  499TIP3   OH222911   6.407   4.464   5.275 -0.4199 -0.6482  0.3654
  499TIP3    H122912   6.400   4.458   5.180  1.7005 -1.0773  0.2260
  499TIP3    H222913   6.404   4.373   5.305 -0.0292 -0.5774  0.6263
  500TIP3   OH222914   1.776   5.733  13.513  0.1826  0.2826  0.0746
  500TIP3    H122915   1.688   5.766  13.495  0.0017  0.2706  0.9203
  500TIP3    H222916   1.825   5.810  13.539  0.4137  0.2851 -0.3737
  501TIP3   OH222917   2.121   5.298  13.982  0.2216  0.3837 -0.6908
  501TIP3    H122918   2.173   5.280  14.061 -2.4476 -0.6696  0.8979
  501TIP3    H222919   2.153   5.382  13.950  2.7282 -0.1257  0.3296
  502TIP3   OH222920   2.339   1.795  13.280  0.4029 -0.5957  0.0729
  502TIP3    H122921   2.371   1.877  13.244  1.9399 -0.6094  1.3918
  502TIP3    H222922   2.404   1.730  13.254  0.3683 -0.9944  0.9671
  503TIP3   OH222923   1.559   1.077   2.541  0.5109 -0.3145 -0.1295
  503TIP3    H122924   1.539   0.992   2.502 -1.8240  0.1918 -0.0852
  503TIP3    H222925   1.558   1.138   2.467  0.6286 -0.0737  0.0667
  504TIP3   OH222926   0.429   0.395   5.286  0.0866  0.5482 -0.4763
  504TIP3    H122927   0.446   0.303   5.302 -1.0590  0.0924 -1.8130
  504TIP3    H222928   0.341   0.410   5.321  0.2608  1.1261 -0.2744
  505TIP3   OH222929   1.433   2.149   1.125 -0.0854 -0.5109 -0.0916
  505TIP3    H122930   1.425   2.193   1.210 -2.8766 -1.1810  0.0261
  505TIP3    H222931   1.396   2.062   1.139 -2.0827 -0.0852 -2.3792
  506TIP3   OH222932   0.630   3.972   1.304  0.3660 -0.5400 -0.0228
  506TIP3    H122933   0.581   3.936   1.378  1.7134  1.4001  1.8813
  506TIP3    H222934   0.710   3.919   1.301  0.0206 -1.0297 -0.4788
  507TIP3   OH222935   1.281   4.255  12.663  0.3166 -0.3068 -0.2156
  507TIP3    H122936   1.302   4.239  12.755 -0.3112 -3.7690 -0.6142
  507TIP3    H222937   1.199   4.208  12.648  0.7397 -0.3148 -2.7041
  508TIP3   OH222938   2.383   1.321   0.870  0.4600  0.0960  0.1841
  508TIP3    H122939   2.392   1.301   0.777  1.2317  0.2994  0.2168
  508TIP3    H222940   2.310   1.383   0.874 -0.0486 -0.4616 -0.2071
  509TIP3   OH222941   4.343   5.063  11.004  0.3345 -0.0539 -0.3115
  509TIP3    H122942   4.360   5.041  10.913 -0.0918  1.5532 -0.7840
  509TIP3    H222943   4.369   5.154  11.012  1.5189 -0.5125  1.4818
  510TIP3   OH222944   4.867   1.249  16.667 -0.3110  0.1971  0.5336
  510TIP3    H122945   4.878   1.179  16.732 -0.7258  0.7288  1.1805
  510TIP3    H222946   4.813   1.210  16.598 -0.0922 -0.2834  0.6335
  511TIP3   OH222947   2.520   0.273   3.217  0.1924 -0.0414  0.0799
  511TIP3    H122948   2.544   0.286   3.126 -1.5364  1.6329 -0.1755
  511TIP3    H222949   2.425   0.262   3.216 -0.0465  1.4966  1.7921
  512TIP3   OH222950   1.265   6.640  16.506 -0.0390  0.0419  0.0556
  512TIP3    H122951   1.255   6.598  16.592  3.1115 -0.9172  0.0105
  512TIP3    H222952   1.317   6.718  16.523  0.4021 -0.0278 -0.9310
  513TIP3   OH222953   6.541   3.512   1.607 -0.2858 -0.3072 -0.9089
  513TIP3    H122954   6.536   3.417   1.597 -0.2555 -0.4545  0.4276
  513TIP3    H222955   6.626   3.527   1.649 -0.4847  0.2720 -0.7105
  514TIP3   OH222956   5.131   1.970   4.533 -0.4030  0.2754  0.0226
  514TIP3    H122957   5.093   1.900   4.480  0.3177 -0.0417 -0.0795
  514TIP3    H222958   5.158   1.927   4.614  1.4904  0.1114 -0.6713
  515TIP3   OH222959   5.968   0.005  11.238  0.1565 -0.2060 -0.0724
  515TIP3    H122960   5.876  -0.001  11.211  0.1827 -1.1379  0.0196
  515TIP3    H222961   6.016   0.021  11.157 -0.2820  2.4363  0.1509
  516TIP3   OH222962   1.624   2.472   1.181 -0.2241  0.0569 -0.2256
  516TIP3    H122963   1.675   2.392   1.197 -0.6921 -0.1618  0.1918
  516TIP3    H222964   1.677   2.542   1.221 -0.5326 -0.2509  0.7345
  517TIP3   OH222965   1.266   1.313  14.974 -0.0968 -0.4842  0.0799
  517TIP3    H122966   1.234   1.366  15.047 -0.2639  0.5074 -0.6948
  517TIP3    H222967   1.270   1.375  14.900  1.9458 -1.0107 -0.2729
  518TIP3   OH222968   2.614   3.031  12.804  0.0095  0.1708  0.3544
  518TIP3    H122969   2.589   3.109  12.754 -1.4234 -0.1549  0.5436
  518TIP3    H222970   2.557   2.962  12.771 -0.5758 -0.1851  2.0290
  519TIP3   OH222971   0.854   2.056   0.238 -0.0399  0.6558 -0.0666
  519TIP3    H122972   0.920   2.112   0.199  0.0230  1.4069  1.0867
  519TIP3    H222973   0.815   2.009   0.164 -0.0530  2.1665 -1.0449
  520TIP3   OH222974   4.639   6.170  14.773 -0.6344  0.2604 -0.4207
  520TIP3    H122975   4.662   6.249  14.722  0.4853 -0.7416 -1.4975
  520TIP3    H222976   4.579   6.122  14.716  0.5511 -0.8215 -0.7821
  521TIP3   OH222977   4.956   1.146  13.528 -0.0041 -0.4983 -0.0587
  521TIP3    H122978   4.974   1.166  13.436  2.1045 -2.3095 -0.0932
  521TIP3    H222979   5.025   1.192  13.576 -1.0305  0.3447  0.6206
  522TIP3   OH222980   1.230   1.362   5.401  0.1623 -0.1231 -0.4353
  522TIP3    H122981   1.286   1.435   5.425  0.9797  0.1656 -3.0437
  522TIP3    H222982   1.147   1.402   5.374 -0.2197 -0.3362  0.3989
  523TIP3   OH222983   0.278   3.001  10.376 -0.5991  0.2488 -0.1795
  523TIP3    H122984   0.372   3.022  10.380  0.1063 -2.4138 -1.4519
  523TIP3    H222985   0.275   2.905  10.382 -3.1814  0.2370 -1.0893
  524TIP3   OH222986   5.057   3.856  13.703 -0.1266 -0.3250 -0.4068
  524TIP3    H122987   5.009   3.774  13.715  0.8405 -1.0035 -1.0173
  524TIP3    H222988   5.114   3.839  13.627 -0.0728  0.9844 -0.6642
  525TIP3   OH222989   4.372   0.092  13.519  0.6506 -0.0271 -0.1227
  525TIP3    H122990   4.326   0.058  13.597  1.2304  0.6079  0.5063
  525TIP3    H222991   4.465   0.092  13.544  0.8189  0.4058 -0.7306
  526TIP3   OH222992   6.258   5.521   2.023  0.1433 -0.0688  0.2181
  526TIP3    H122993   6.192   5.462   1.987  0.4769  0.4947 -1.3805
  526TIP3    H222994   6.212   5.605   2.035  0.1887 -0.0892  0.5486
  527TIP3   OH222995   6.708   4.201   4.460 -0.1491  0.3130 -0.0282
  527TIP3    H122996   6.661   4.257   4.520  1.6158 -0.5706  2.2376
  527TIP3    H222997   6.689   4.112   4.490  1.1791 -0.1200 -0.4177
  528TIP3   OH222998   5.095   6.694   2.454 -0.7113  0.0532 -0.0140
  528TIP3    H122999   5.105   6.645   2.372 -0.2557  0.0650  0.0333
  528TIP3    H223000   5.180   6.734   2.469 -1.0353  0.7227  0.0423
  529TIP3   OH223001   1.737   4.592  14.195  0.0046  0.0914 -0.2091
  529TIP3    H123002   1.777   4.534  14.260  1.8243  0.9966 -0.5001
  529TIP3    H223003   1.651   4.553  14.178 -0.2016 -0.5619  2.1825
  530TIP3   OH223004   1.134   4.311   0.821  0.0170 -0.6553  0.1894
  530TIP3    H123005   1.095   4.234   0.779 -0.0975 -1.2104  1.2792
  530TIP3    H223006   1.185   4.274   0.894  1.3512  0.1691 -0.3153
  531TIP3   OH223007   0.765   6.251  13.788  0.1786 -0.3218 -0.9506
  531TIP3    H123008   0.699   6.191  13.824 -0.3301  0.4917 -0.5033
  531TIP3    H223009   0.771   6.228  13.696  0.9825 -1.9667 -0.5169
  532TIP3   OH223010   0.135   1.630  12.088  0.3057  0.0236 -0.3019
  532TIP3    H123011   0.175   1.706  12.130 -1.0050  0.5002  0.1024
  532TIP3    H223012   0.041   1.647  12.091  0.0410 -1.2451 -0.9214
  533TIP3   OH223013   0.899   1.110  15.938 -0.4633 -0.2841  0.7010
  533TIP3    H123014   0.947   1.169  15.880  1.6933 -2.0512  0.5870
  533TIP3    H223015   0.809   1.114  15.908 -0.0333  1.5768 -0.4218
  534TIP3   OH223016   1.981   3.214   0.594  0.1712 -0.4156  0.3071
  534TIP3    H123017   1.953   3.217   0.685 -1.3622  0.4353 -0.1683
  534TIP3    H223018   2.048   3.282   0.587  0.1038 -0.3042  0.7383
  535TIP3   OH223019   1.996   5.891   4.409  0.3054 -0.4767 -0.0244
  535TIP3    H123020   2.064   5.829   4.435  0.5021  0.5597  2.0115
  535TIP3    H223021   2.038   5.945   4.341  0.8202 -1.2006 -0.2856
  536TIP3   OH223022   0.395   4.206   4.408  0.0326  0.1711 -1.0464
  536TIP3    H123023   0.328   4.243   4.351 -0.3335 -0.2451 -0.8843
  536TIP3    H223024   0.395   4.112   4.389 -2.4460 -0.5377  2.0392
  537TIP3   OH223025   2.461   4.795  13.668 -0.2030  0.0540 -0.1040
  537TIP3    H123026   2.543   4.820  13.626 -1.4226  0.0635 -2.5348
  537TIP3    H223027   2.407   4.760  13.597 -1.7902 -1.2646  1.6999
  538TIP3   OH223028   3.004   6.635  15.799 -0.1175 -0.2535 -0.0638
  538TIP3    H123029   3.085   6.628  15.748  0.3243 -0.1369  0.6269
  538TIP3    H223030   3.027   6.604  15.886 -1.0229 -1.0100 -0.0790
  539TIP3   OH223031   2.790   1.299  16.433 -0.0988 -0.0854 -0.0874
  539TIP3    H123032   2.817   1.214  16.397  0.1138  0.2439 -0.7054
  539TIP3    H223033   2.809   1.292  16.526  3.2939  0.5715 -0.6746
  540TIP3   OH223034   3.856   0.828   4.981  0.2548 -0.6807  0.5751
  540TIP3    H123035   3.812   0.855   4.901 -1.1466  0.7419  1.7955
  540TIP3    H223036   3.826   0.738   4.996 -1.2549 -0.1730  0.6963
  541TIP3   OH223037   4.066   5.042  13.870 -0.4401  0.2608  0.0755
  541TIP3    H123038   4.082   5.010  13.781  1.6553  1.1158  0.1147
  541TIP3    H223039   3.974   5.021  13.887 -0.5707 -0.8796 -1.8835
  542TIP3   OH223040   4.762   0.175   0.949 -0.1418  0.2623  0.0394
  542TIP3    H123041   4.772   0.247   0.887  0.4810  0.1294 -0.0247
  542TIP3    H223042   4.818   0.199   1.023  0.4789 -0.3935 -0.2092
  543TIP3   OH223043   3.975   6.448  11.217  0.4343 -0.5904  0.1777
  543TIP3    H123044   4.036   6.503  11.266 -0.6658 -0.1035  1.0338
  543TIP3    H223045   3.935   6.507  11.153  0.8891 -0.9176 -0.4095
  544TIP3   OH223046   5.891   4.307   1.519 -0.2449 -0.1598  0.4096
  544TIP3    H123047   5.851   4.269   1.598 -0.5359  3.2893  1.9918
  544TIP3    H223048   5.822   4.304   1.453 -1.0082 -0.2602  1.2025
  545TIP3   OH223049   3.777   4.993   6.065  0.3642 -0.2757 -0.3414
  545TIP3    H123050   3.823   5.075   6.083  0.3733 -0.1059 -1.1132
  545TIP3    H223051   3.684   5.016   6.073  0.4088 -0.6087  1.1696
  546TIP3   OH223052   2.227   4.254  10.819  0.2804 -0.0889  0.0904
  546TIP3    H123053   2.168   4.319  10.782  0.9341  0.4492 -0.0084
  546TIP3    H223054   2.259   4.205  10.743  0.4123 -0.0083  0.0966
  547TIP3   OH223055   5.559   2.867  13.154 -0.8452 -0.6402  0.1482
  547TIP3    H123056   5.510   2.940  13.193 -1.4546 -1.1941  0.4375
  547TIP3    H223057   5.566   2.802  13.225  0.1008 -0.6730  0.0379
  548TIP3   OH223058   2.737   4.235   5.219  0.1019  0.9566  0.4365
  548TIP3    H123059   2.690   4.159   5.254  1.1097  0.6834  1.2193
  548TIP3    H223060   2.669   4.291   5.182 -0.5969 -0.6893 -0.8376
  549TIP3   OH223061   3.292   1.089   5.463 -0.5151  0.3475 -0.2219
  549TIP3    H123062   3.215   1.071   5.516 -2.1772  2.6477 -1.7728
  549TIP3    H223063   3.261   1.087   5.373  1.1245  1.7017 -0.8605
  550TIP3   OH223064   3.159   6.140   6.575 -1.0522 -0.3126 -0.6513
  550TIP3    H123065   3.155   6.044   6.577 -0.5397 -0.3139  2.7407
  550TIP3    H223066   3.252   6.160   6.587 -1.2074  0.6276 -0.9921
  551TIP3   OH223067   0.981   6.109  17.138  0.0621 -0.6981 -0.2639
  551TIP3    H123068   1.029   6.126  17.057  1.6287  3.2788  1.3770
  551TIP3    H223069   0.897   6.154  17.127  0.0030 -0.7165  0.0890
  552TIP3   OH223070   2.877   5.732  15.827 -0.9606  0.0747  0.0370
  552TIP3    H123071   2.789   5.697  15.840 -0.1131 -1.2915  2.3299
  552TIP3    H223072   2.891   5.789  15.903  0.5214 -0.4941  0.1887
  553TIP3   OH223073   0.455   1.647   4.476 -0.0106  0.1220 -0.3189
  553TIP3    H123074   0.372   1.663   4.431 -0.5528 -2.2121 -0.2333
  553TIP3    H223075   0.497   1.733   4.482 -1.4641  0.9895 -2.2310
  554TIP3   OH223076   2.926   5.966  16.380  0.2282 -0.0355  0.4478
  554TIP3    H123077   2.977   6.039  16.416  0.2724 -0.0976  0.5113
  554TIP3    H223078   2.835   5.990  16.397  0.1167  1.0142 -1.4212
  555TIP3   OH223079   0.537   4.379  13.829 -0.1118  0.1845 -0.0833
  555TIP3    H123080   0.451   4.371  13.788 -0.0993  0.9639 -0.2686
  555TIP3    H223081   0.578   4.293  13.817 -1.0290 -0.3255  0.3734
  556TIP3   OH223082   4.657   2.050  13.226  0.6214 -0.0742  0.0948
  556TIP3    H123083   4.683   2.139  13.199 -0.1344  0.0413 -0.2491
  556TIP3    H223084   4.570   2.061  13.264  1.8746 -0.1172  3.1671
  557TIP3   OH223085   0.792   3.090  15.281  0.8009  0.0523  0.3030
  557TIP3    H123086   0.760   3.148  15.350 -0.3724  2.1277 -1.9239
  557TIP3    H223087   0.856   3.034  15.325  0.2694  1.4778  3.0116
  558TIP3   OH223088   1.974   5.330  10.429 -0.1287 -0.1058  1.0476
  558TIP3    H123089   1.934   5.261  10.482 -0.8294  0.7064  1.5766
  558TIP3    H223090   1.931   5.411  10.456 -0.0020  0.4237 -0.2596
  559TIP3   OH223091   0.947   1.605   3.312 -0.2574 -0.0102 -0.2830
  559TIP3    H123092   0.898   1.591   3.394 -0.9882 -0.3301 -0.7725
  559TIP3    H223093   0.889   1.659   3.259  0.4230  0.6033 -0.4088
  560TIP3   OH223094   0.796   4.430   5.115  0.3376 -0.9886  0.1896
  560TIP3    H123095   0.891   4.440   5.119  0.4171 -0.6271 -2.1603
  560TIP3    H223096   0.782   4.350   5.064 -0.6191 -0.1987 -0.8114
  561TIP3   OH223097   5.381   2.233  13.753  0.2619  0.3306  0.5195
  561TIP3    H123098   5.374   2.139  13.736 -2.4833  0.7574 -1.0333
  561TIP3    H223099   5.314   2.251  13.819 -0.2350  1.3837 -0.2348
  562TIP3   OH223100   0.980   3.113  11.588 -0.9635  0.0871 -0.5755
  562TIP3    H123101   0.919   3.187  11.586  0.7929  1.5650 -0.1780
  562TIP3    H223102   1.065   3.152  11.608  0.0948 -1.9743 -0.9263
  563TIP3   OH223103   4.217   2.145   5.622  0.3143  0.4223  0.1643
  563TIP3    H123104   4.247   2.162   5.712 -0.6633  0.5850  0.4627
  563TIP3    H223105   4.124   2.168   5.623  0.1717 -0.0934 -0.7527
  564TIP3   OH223106   6.386   2.561   1.530 -0.0784 -0.4260 -0.2561
  564TIP3    H123107   6.412   2.517   1.449 -0.6215 -1.3806  0.0777
  564TIP3    H223108   6.382   2.654   1.506  2.5370 -0.3545 -0.5939
  565TIP3   OH223109   2.973   1.306  14.539 -0.3507 -0.2851 -0.5360
  565TIP3    H123110   3.051   1.358  14.559  0.9994 -2.1466 -0.8338
  565TIP3    H223111   2.994   1.262  14.457 -0.6150 -2.9202  0.7637
  566TIP3   OH223112   5.451   6.455  13.760 -0.4469 -0.0792 -0.0400
  566TIP3    H123113   5.484   6.430  13.674 -0.4467  1.6596 -0.5799
  566TIP3    H223114   5.452   6.551  13.759 -1.4757 -0.0251  1.4987
  567TIP3   OH223115   4.361   4.720  11.548  0.7703 -0.0120 -0.5041
  567TIP3    H123116   4.377   4.748  11.458 -1.9851  2.0223 -0.4020
  567TIP3    H223117   4.426   4.651  11.563  3.3542  1.7621 -2.9766
  568TIP3   OH223118   3.718   5.834   2.986  0.2813 -0.0960  0.1652
  568TIP3    H123119   3.664   5.773   2.935  0.2514 -0.0693  0.1647
  568TIP3    H223120   3.710   5.803   3.076  0.6518 -0.3801  0.1008
  569TIP3   OH223121   4.214   3.073  15.016  0.2883  0.6013  0.4289
  569TIP3    H123122   4.177   3.073  15.105  0.9962 -0.8216  0.7364
  569TIP3    H223123   4.308   3.078  15.030  0.3098  2.4123 -0.3104
  570TIP3   OH223124   3.457   0.529   1.500  0.1274 -0.6075  0.2561
  570TIP3    H123125   3.515   0.457   1.525 -0.6067 -0.8121  1.3832
  570TIP3    H223126   3.514   0.591   1.455  1.4174 -0.3594  2.2038
  571TIP3   OH223127   4.815   0.025  12.941  0.4522 -0.5272 -0.2363
  571TIP3    H123128   4.809  -0.070  12.934 -0.9818 -0.4708  0.1163
  571TIP3    H223129   4.872   0.040  13.017  2.2435 -1.0905 -1.4445
  572TIP3   OH223130   3.757   3.506  11.361  0.2762  0.0316  0.2481
  572TIP3    H123131   3.667   3.499  11.332  0.0460 -3.1119  1.5487
  572TIP3    H223132   3.809   3.492  11.281 -0.3420  0.4330 -0.2341
  573TIP3   OH223133   5.370   3.980  15.560 -0.0930 -0.1092 -0.0592
  573TIP3    H123134   5.405   4.018  15.641  0.1658 -0.8320  0.1690
  573TIP3    H223135   5.297   4.037  15.537 -0.1536  0.1134  0.6679
  574TIP3   OH223136   1.405   6.644   6.156  0.5933 -0.0466  1.1009
  574TIP3    H123137   1.373   6.716   6.210  1.6100  1.5249 -0.3685
  574TIP3    H223138   1.356   6.651   6.074  3.0313  1.0170 -0.3176
  575TIP3   OH223139   2.181   4.897   2.900  0.2618  0.3400 -0.0572
  575TIP3    H123140   2.192   4.992   2.891  2.2863  0.1427  0.1449
  575TIP3    H223141   2.102   4.887   2.953  1.5248  2.0021  2.2243
  576TIP3   OH223142   3.410   6.076  10.359 -0.2935  0.2037 -0.3728
  576TIP3    H123143   3.342   6.035  10.413  0.1387  1.0917  0.8812
  576TIP3    H223144   3.367   6.153  10.321 -0.7929 -0.7896 -1.8603
  577TIP3   OH223145   2.526   4.570   1.188 -0.0743 -0.0992  0.1842
  577TIP3    H123146   2.502   4.635   1.123 -4.1667 -2.2178 -0.6025
  577TIP3    H223147   2.556   4.621   1.263  1.9689  2.4572 -2.2800
  578TIP3   OH223148   5.110   6.290  16.246 -0.0892  0.2153 -0.1753
  578TIP3    H123149   5.123   6.378  16.210 -0.9158 -0.5251 -2.3140
  578TIP3    H223150   5.198   6.255  16.255  0.1141  0.1827 -2.0923
  579TIP3   OH223151   1.820   6.380  11.094  0.0050  0.0021  0.2786
  579TIP3    H123152   1.756   6.449  11.111 -1.4522 -1.3342  0.3410
  579TIP3    H223153   1.770   6.311  11.050  1.8197 -0.2744 -1.4418
  580TIP3   OH223154   3.524   1.589  16.192  0.4727  0.5703 -0.4285
  580TIP3    H123155   3.523   1.677  16.230  0.8561 -0.0464  1.0474
  580TIP3    H223156   3.444   1.585  16.140  0.2905  1.6914 -0.2550
  581TIP3   OH223157   1.070   5.639  16.201 -0.3429 -0.5789 -0.0592
  581TIP3    H123158   1.039   5.697  16.131 -0.5783 -1.1241 -0.4123
  581TIP3    H223159   1.071   5.552  16.161  1.1041 -0.6589  0.1074
  582TIP3   OH223160   0.853   3.788  14.713 -0.5528  0.0793  0.0292
  582TIP3    H123161   0.884   3.850  14.778 -0.3657 -0.5910  0.5882
  582TIP3    H223162   0.912   3.799  14.639 -1.2763  1.4328 -0.3570
  583TIP3   OH223163   0.907   5.363  11.740  0.5276  0.4058  0.5064
  583TIP3    H123164   0.886   5.278  11.701 -1.3733  0.0453  2.1938
  583TIP3    H223165   0.833   5.419  11.716  0.9203  1.0960  0.8851
  584TIP3   OH223166   0.302   4.685  15.116  0.3254  0.2514  0.4805
  584TIP3    H123167   0.281   4.683  15.209  0.2258 -1.1631  0.4427
  584TIP3    H223168   0.220   4.663  15.072  0.6136 -0.1033  0.1122
  585TIP3   OH223169   5.478   0.644   0.785  0.2130  0.9319 -0.1295
  585TIP3    H123170   5.551   0.705   0.792  0.0818  0.7903  2.8416
  585TIP3    H223171   5.516   0.566   0.745  1.9982  0.4421  2.4298
  586TIP3   OH223172   1.839   4.526   2.440 -0.7714  0.6060  0.0241
  586TIP3    H123173   1.930   4.496   2.440 -1.0724 -0.3537  0.7657
  586TIP3    H223174   1.812   4.518   2.531 -1.1793  2.2186  0.0448
  587TIP3   OH223175   0.171   0.314  13.086  0.2805 -0.2012 -0.6527
  587TIP3    H123176   0.262   0.343  13.082 -0.0237  1.2469  1.8787
  587TIP3    H223177   0.165   0.265  13.168 -0.9159 -1.4955 -1.4866
  588TIP3   OH223178   1.731   0.268   0.776 -0.1362  0.5564  0.2521
  588TIP3    H123179   1.798   0.334   0.758 -0.0160  0.1685 -0.8178
  588TIP3    H223180   1.751   0.235   0.863  0.5637  1.0448  0.2737
  589TIP3   OH223181   0.999   4.398   5.682 -0.0041  0.1771 -0.5760
  589TIP3    H123182   0.969   4.381   5.593 -1.1642  0.3877 -0.2295
  589TIP3    H223183   1.036   4.486   5.679  0.5206 -0.0575 -0.9921
  590TIP3   OH223184   6.564   5.407   2.945  0.1768  0.1424  0.2224
  590TIP3    H123185   6.491   5.382   3.001 -0.1629 -0.0923 -0.3135
  590TIP3    H223186   6.546   5.498   2.921  0.4070  0.2927  0.6250
  591TIP3   OH223187   6.237   3.891  15.884  0.1374  0.4768 -0.3700
  591TIP3    H123188   6.168   3.868  15.822  1.1438 -2.8370 -0.3522
  591TIP3    H223189   6.255   3.809  15.931  1.3512  2.2400  2.3523
  592TIP3   OH223190   2.123   6.745   5.332 -0.2334  0.0235 -0.1993
  592TIP3    H123191   2.094   6.789   5.252 -0.7101  2.4257  1.2289
  592TIP3    H223192   2.058   6.676   5.347 -0.7551  0.2746 -1.2837
  593TIP3   OH223193   6.410   4.878  15.117  0.2145 -0.1903 -0.3537
  593TIP3    H123194   6.350   4.929  15.171 -0.6505  0.1774 -1.6335
  593TIP3    H223195   6.429   4.935  15.042  3.9056  0.6078  1.0574
  594TIP3   OH223196   5.748   1.334  17.092  0.2654  0.2908 -0.0825
  594TIP3    H123197   5.705   1.303  17.172 -1.9757  4.6505  0.5519
  594TIP3    H223198   5.705   1.286  17.022 -0.0801 -1.1665  1.1096
  595TIP3   OH223199   0.158   2.371   1.171 -0.1469  0.3515 -0.8318
  595TIP3    H123200   0.108   2.400   1.247 -0.0416  0.0542 -0.6496
  595TIP3    H223201   0.120   2.420   1.097 -2.5883 -1.9601 -1.1665
  596TIP3   OH223202   4.934   5.731   5.036  0.1374 -0.4014  0.5017
  596TIP3    H123203   4.874   5.675   5.085  1.6005 -2.2357  0.2249
  596TIP3    H223204   5.014   5.732   5.089  1.0102 -0.7066 -0.7996
  597TIP3   OH223205   4.071   3.993  15.912  0.4048 -0.2304 -0.0784
  597TIP3    H123206   4.031   3.948  15.837  0.2860 -1.3553  0.6343
  597TIP3    H223207   4.054   3.934  15.986 -2.5599  2.4952  1.4955
  598TIP3   OH223208   2.704   0.603   0.621  0.1383  0.0301  0.1345
  598TIP3    H123209   2.728   0.539   0.689 -0.6436  1.1324  1.4649
  598TIP3    H223210   2.788   0.629   0.582  0.6676  0.0135  1.2479
  599TIP3   OH223211   0.184   0.468  17.237 -0.1620  0.0005 -0.1605
  599TIP3    H123212   0.146   0.464  17.149 -0.9171 -1.8807  0.2228
  599TIP3    H223213   0.155   0.387  17.279  2.7147 -0.6060  0.7908
  600TIP3   OH223214   6.392   3.889  13.401  0.0972 -0.0198  0.2594
  600TIP3    H123215   6.423   3.854  13.485 -0.9819 -0.2824  0.5454
  600TIP3    H223216   6.463   3.870  13.340  1.1395  0.6620  1.2204
  601TIP3   OH223217   4.090   6.185   0.789  0.0674 -0.0884  0.1580
  601TIP3    H123218   4.164   6.244   0.774 -0.4790  0.7062  0.5270
  601TIP3    H223219   4.130   6.103   0.816  1.0020 -0.9926 -3.7077
  602TIP3   OH223220   2.462   5.621   0.692  0.6346 -0.1746 -0.5554
  602TIP3    H123221   2.507   5.652   0.613  0.3872 -1.0353 -1.0381
  602TIP3    H223222   2.490   5.530   0.701  0.6698 -0.0742  0.3588
  603TIP3   OH223223   5.744   6.295   4.378 -0.2506 -0.2805 -0.0335
  603TIP3    H123224   5.748   6.371   4.320  0.5546 -1.5550 -1.6537
  603TIP3    H223225   5.690   6.231   4.332  1.9546 -2.0261 -0.2533
  604TIP3   OH223226   6.116   5.951   3.041  0.0447  0.2402 -0.0981
  604TIP3    H123227   6.079   6.036   3.065 -0.4949  0.1130 -0.4959
  604TIP3    H223228   6.148   5.962   2.952  1.8327  0.6331  0.5682
  605TIP3   OH223229   1.880   6.473   4.485 -0.3500  0.1916 -0.1611
  605TIP3    H123230   1.910   6.404   4.425 -0.1653 -1.6090  1.9454
  605TIP3    H223231   1.955   6.489   4.542 -1.4767 -0.2259  1.4737
  606TIP3   OH223232   5.126   0.336  12.765 -0.6247 -0.9128  0.1789
  606TIP3    H123233   5.039   0.315  12.800 -0.9536 -1.5977 -1.0106
  606TIP3    H223234   5.154   0.256  12.721 -0.6726  0.2337 -2.0010
  607TIP3   OH223235   5.636   0.549   0.450 -0.3406 -0.2632 -0.1679
  607TIP3    H123236   5.663   0.500   0.528  0.2231  0.9553  0.4217
  607TIP3    H223237   5.700   0.620   0.443 -1.8091  1.0787 -0.3384
  608TIP3   OH223238   2.918   4.061  16.191 -0.3403  0.6524 -0.2174
  608TIP3    H123239   2.896   4.053  16.283 -1.5401 -1.8560 -0.6884
  608TIP3    H223240   3.014   4.071  16.190 -0.0873 -1.3769  1.2082
  609TIP3   OH223241   6.095   5.845  12.238 -0.1412  0.1524  0.2187
  609TIP3    H123242   6.019   5.901  12.222 -0.9913 -1.4262 -1.4388
  609TIP3    H223243   6.130   5.876  12.321 -1.4340  2.1997  0.0526
  610TIP3   OH223244   4.560   3.183   3.718  0.3440  0.1248  0.2322
  610TIP3    H123245   4.648   3.207   3.746 -0.1866  1.6571  0.6369
  610TIP3    H223246   4.504   3.250   3.757 -0.7410  0.6121 -2.1153
  611TIP3   OH223247   4.834   4.202   4.746  0.4117 -0.6821 -0.3617
  611TIP3    H123248   4.857   4.206   4.653 -1.0408  1.1399 -0.6577
  611TIP3    H223249   4.744   4.169   4.747 -0.0835  0.6775  0.3177
  612TIP3   OH223250   2.832   2.776  16.583  0.2589  0.4841  0.2184
  612TIP3    H123251   2.748   2.755  16.623 -0.5782 -1.0695 -2.2147
  612TIP3    H223252   2.870   2.691  16.559  1.0869  1.2859 -1.4665
  613TIP3   OH223253   0.984   6.178   4.478  0.0137  0.0693 -0.5922
  613TIP3    H123254   0.961   6.169   4.571  1.6013 -1.4926 -0.3291
  613TIP3    H223255   1.064   6.230   4.478 -0.4093  0.7256 -1.1472
  614TIP3   OH223256   1.573   3.678  11.936  0.2361 -0.1351  0.1977
  614TIP3    H123257   1.547   3.769  11.948  0.7425 -0.0204  0.4484
  614TIP3    H223258   1.630   3.660  12.010 -0.8590 -1.0350  0.8329
  615TIP3   OH223259   4.982   0.678  17.087 -0.0566  0.3413 -0.0613
  615TIP3    H123260   4.961   0.651  16.997  0.5010 -0.0899 -0.0629
  615TIP3    H223261   4.960   0.601  17.140  0.9414  0.0924  0.0062
  616TIP3   OH223262   4.574   2.684   6.478 -0.1506  0.6205 -0.1957
  616TIP3    H123263   4.481   2.684   6.499 -0.3313  1.8744 -0.9697
  616TIP3    H223264   4.617   2.687   6.563 -0.7797 -1.3568  0.2247
  617TIP3   OH223265   0.176   1.106   5.924 -0.3920  0.0788  0.0488
  617TIP3    H123266   0.242   1.057   5.973 -0.4927  0.7233  0.8442
  617TIP3    H223267   0.199   1.198   5.938 -1.0084  0.2911 -0.3009
  618TIP3   OH223268   6.107   5.992   2.235  0.3961  0.0173 -0.1767
  618TIP3    H123269   6.194   5.953   2.223 -0.3698 -2.2255  1.2157
  618TIP3    H223270   6.103   6.062   2.170  3.0588 -0.1498 -0.5915
  619TIP3   OH223271   0.932   2.807  10.922  0.5533  0.0369 -0.1719
  619TIP3    H123272   0.877   2.743  10.875 -1.5140 -0.0287  2.2638
  619TIP3    H223273   0.930   2.885  10.866 -1.5067 -0.1822 -0.4539
  620TIP3   OH223274   4.976   6.033   0.782 -0.4081  0.5354 -0.9268
  620TIP3    H123275   4.897   6.054   0.733 -0.0977 -0.1286 -1.7292
  620TIP3    H223276   5.017   5.963   0.731 -0.8332 -1.1971  1.0418
  621TIP3   OH223277   3.757   4.884  15.092  0.0204 -0.3888  0.0109
  621TIP3    H123278   3.816   4.809  15.085 -1.5334 -1.6640  0.4914
  621TIP3    H223279   3.757   4.905  15.186  0.3202  0.1035 -0.0998
  622TIP3   OH223280   2.477   3.742   1.013  0.1599 -0.7528  0.5912
  622TIP3    H123281   2.477   3.767   1.105 -3.3041  0.7652  0.2313
  622TIP3    H223282   2.512   3.819   0.968  1.0775 -1.1936  0.5280
  623TIP3   OH223283   3.334   5.088   4.224  0.0950 -0.0182  0.4685
  623TIP3    H123284   3.250   5.134   4.220 -0.1579 -0.5626 -0.5620
  623TIP3    H223285   3.379   5.115   4.144  0.2281 -1.0176  0.2067
  624TIP3   OH223286   0.794   3.641   6.313 -0.1413  0.2626 -0.0945
  624TIP3    H123287   0.733   3.691   6.367 -0.2612  1.1443 -1.0161
  624TIP3    H223288   0.878   3.648   6.358 -0.5267 -0.1838  0.6997
  625TIP3   OH223289   6.525   0.340  14.490  0.0463  0.3486  0.3497
  625TIP3    H123290   6.523   0.435  14.506 -0.7923  0.4107 -0.0805
  625TIP3    H223291   6.510   0.301  14.576  0.6484  0.6013  0.5719
  626TIP3   OH223292   0.509   0.872   5.609 -0.3099 -0.2071  0.0349
  626TIP3    H123293   0.536   0.849   5.698 -1.3454 -0.6874  0.2271
  626TIP3    H223294   0.499   0.967   5.611  1.9098  0.0706 -0.1939
  627TIP3   OH223295   0.819   1.742  11.503  0.5374  0.4583  0.1005
  627TIP3    H123296   0.879   1.778  11.438 -1.2435  1.0972 -1.2561
  627TIP3    H223297   0.772   1.819  11.536 -1.5545 -0.3112 -0.9967
  628TIP3   OH223298   3.382   3.381   4.692  0.4123  0.1484 -0.3631
  628TIP3    H123299   3.358   3.427   4.772 -0.1282 -0.1697 -0.3375
  628TIP3    H223300   3.340   3.431   4.622  0.6880  0.2918 -0.4242
  629TIP3   OH223301   0.415   0.265   6.064 -0.0043 -0.2619 -0.1868
  629TIP3    H123302   0.459   0.208   6.127 -0.9376 -0.9688 -0.1709
  629TIP3    H223303   0.354   0.207   6.018 -2.0029  1.0063  0.8207
  630TIP3   OH223304   6.475   2.639  15.288 -0.4819 -0.2902 -0.8118
  630TIP3    H123305   6.538   2.670  15.353 -0.7143  1.2751 -1.3026
  630TIP3    H223306   6.389   2.651  15.329 -0.7518  2.5623 -2.0991
  631TIP3   OH223307   5.274   6.521   5.589 -0.6169  0.0680  0.2166
  631TIP3    H123308   5.349   6.575   5.562 -0.5461  1.1766  2.5350
  631TIP3    H223309   5.309   6.461   5.654 -1.1830 -1.2939 -0.7169
  632TIP3   OH223310   2.674   0.531  14.588  0.2177  0.5438  0.0375
  632TIP3    H123311   2.744   0.466  14.579  1.1719  1.3621  1.3832
  632TIP3    H223312   2.626   0.503  14.666 -0.5357  0.3900 -0.4740
  633TIP3   OH223313   6.409   4.693   1.022  0.7954 -0.8120 -0.1934
  633TIP3    H123314   6.488   4.640   1.035  2.2470  1.0875 -1.0272
  633TIP3    H223315   6.405   4.708   0.928  0.0830  0.0507 -0.0335
  634TIP3   OH223316   1.782   2.727  13.795  0.1307  0.6239 -0.7210
  634TIP3    H123317   1.791   2.777  13.715 -0.1930  1.2299 -0.3816
  634TIP3    H223318   1.806   2.788  13.865  0.0734  0.2089 -0.3339
  635TIP3   OH223319   1.426   3.920  15.234  0.3128 -0.0682  0.6435
  635TIP3    H123320   1.489   3.849  15.227 -0.1599 -0.2265 -2.5445
  635TIP3    H223321   1.340   3.877  15.229  0.0249  0.7089 -1.8485
  636TIP3   OH223322   6.416   4.794  15.548 -0.5855  0.2735 -0.1159
  636TIP3    H123323   6.355   4.734  15.592 -0.0356 -0.7452 -0.7238
  636TIP3    H223324   6.503   4.761  15.570 -0.3002 -0.0958 -1.7464
  637TIP3   OH223325   4.261   6.770   4.075  0.4093 -0.4492  0.0619
  637TIP3    H123326   4.346   6.728   4.085  0.7782  0.3711  0.4609
  637TIP3    H223327   4.267   6.818   3.993  0.9552  0.9971  0.9169
  638TIP3   OH223328   5.524   0.165   4.278 -0.1405 -0.3814 -0.4102
  638TIP3    H123329   5.477   0.248   4.287  1.7323  0.6559 -0.0583
  638TIP3    H223330   5.563   0.169   4.191  2.2778  0.3572  0.6650
  639TIP3   OH223331   1.523   3.721  15.566  0.3947  0.2572 -0.3782
  639TIP3    H123332   1.525   3.816  15.552  1.1839  0.3246  0.1633
  639TIP3    H223333   1.514   3.685  15.478 -2.1640  0.8797 -0.4224
  640TIP3   OH223334   0.603   2.008  17.173  0.3447 -0.1064  0.3360
  640TIP3    H123335   0.520   1.963  17.161  0.9933 -1.0658 -0.6804
  640TIP3    H223336   0.583   2.081  17.231 -1.1956 -0.3306  0.0963
  641TIP3   OH223337   0.057   1.067  16.548 -0.0562 -0.1826  0.1555
  641TIP3    H123338   0.070   1.091  16.640  0.5461  0.7299 -0.1620
  641TIP3    H223339   0.133   1.014  16.525  0.3471  0.5121 -0.1271
  642TIP3   OH223340   3.157   5.015  13.103 -0.7899  0.4121  0.6961
  642TIP3    H123341   3.214   4.959  13.050  1.1396  2.9610 -0.0091
  642TIP3    H223342   3.159   5.100  13.060 -1.1773  1.8943  3.4804
  643TIP3   OH223343   0.466   6.730  14.293  0.5934  0.0131  0.0122
  643TIP3    H123344   0.464   6.759  14.202  2.4730 -2.0826 -0.7563
  643TIP3    H223345   0.516   6.798  14.338  0.4305  0.6099 -0.6857
  644TIP3   OH223346   5.451   3.367  10.791 -0.5137  0.3633 -0.0901
  644TIP3    H123347   5.388   3.386  10.722  0.2206  1.0605 -0.5861
  644TIP3    H223348   5.535   3.359  10.744  0.0286  1.0774  0.7447
  645TIP3   OH223349   3.275   5.928   3.400 -0.1267 -0.1530  0.0266
  645TIP3    H123350   3.264   5.835   3.381 -0.4931  0.0932 -0.9607
  645TIP3    H223351   3.353   5.953   3.350 -0.9707  0.4437 -0.9996
  646TIP3   OH223352   1.261   1.460  11.741  0.1474  0.4967  0.3694
  646TIP3    H123353   1.175   1.437  11.705  0.5596 -1.0909  0.3849
  646TIP3    H223354   1.317   1.473  11.665 -0.0464  1.2993  0.3627
  647TIP3   OH223355   3.009   2.813   4.804  0.0561  0.4422 -0.2957
  647TIP3    H123356   2.971   2.795   4.889 -0.1650  3.0085  0.1853
  647TIP3    H223357   2.936   2.811   4.743  0.3727 -2.5635 -0.6840
  648TIP3   OH223358   2.060   6.561  12.049  0.2722  0.3023  0.1909
  648TIP3    H123359   2.048   6.528  12.138 -1.1264  0.1314 -0.0533
  648TIP3    H223360   1.972   6.570  12.014  0.8498 -0.7733 -1.6104
  649TIP3   OH223361   0.832   6.778   5.236 -0.4592 -0.4303  0.7652
  649TIP3    H123362   0.780   6.730   5.300 -1.8304  0.7583  0.5739
  649TIP3    H223363   0.850   6.714   5.167 -1.1035 -1.0366  1.1543
  650TIP3   OH223364   4.487   5.843   2.064 -0.3534  0.1312 -0.3764
  650TIP3    H123365   4.558   5.901   2.034 -0.1038  0.1519  0.2471
  650TIP3    H223366   4.456   5.884   2.144 -1.0122  0.0663 -0.5983
  651TIP3   OH223367   5.102   1.369   4.402 -0.4507 -0.5439  0.0674
  651TIP3    H123368   5.065   1.292   4.359 -0.1749  0.2482 -1.6227
  651TIP3    H223369   5.028   1.428   4.413 -0.0628  0.2397 -1.5230
  652TIP3   OH223370   1.808   6.192   4.950  0.2671 -0.2747  0.2263
  652TIP3    H123371   1.866   6.219   4.879  0.7827  2.9063  1.7771
  652TIP3    H223372   1.722   6.225   4.926  0.5284  1.1802  1.2733
  653TIP3   OH223373   2.854   5.541   0.844  0.2172 -0.6926 -0.1269
  653TIP3    H123374   2.893   5.476   0.902  1.9947  0.3110 -0.1375
  653TIP3    H223375   2.780   5.577   0.893  1.1738 -0.4683  1.1770
  654TIP3   OH223376   5.813   5.355  17.159  0.0597 -1.1001  0.2785
  654TIP3    H123377   5.754   5.315  17.222 -1.2960 -0.4055 -0.5268
  654TIP3    H223378   5.783   5.446  17.152  0.8255 -0.9027 -0.6289
  655TIP3   OH223379   4.465   2.084  15.304  0.0914  0.3276 -0.1985
  655TIP3    H123380   4.541   2.062  15.358  0.1564  0.3399 -0.2842
  655TIP3    H223381   4.390   2.051  15.354  0.0465  1.4565  0.4896
  656TIP3   OH223382   2.090   0.045  15.401  0.3220 -0.0471 -0.1157
  656TIP3    H123383   2.146  -0.032  15.406 -1.6628 -1.4093  3.1790
  656TIP3    H223384   2.021   0.020  15.339  0.4780 -0.3833 -0.1545
  657TIP3   OH223385   3.125   1.819   2.278  0.1528  0.3188  0.6242
  657TIP3    H123386   3.172   1.833   2.361 -0.0022  0.8817  0.6147
  657TIP3    H223387   3.055   1.759   2.301  0.8953 -0.5604  0.6344
  658TIP3   OH223388   5.362   6.758   2.534 -0.0321 -0.1962  0.3944
  658TIP3    H123389   5.429   6.826   2.528 -0.4809  0.3315  1.3005
  658TIP3    H223390   5.397   6.694   2.596 -0.7023  0.4769  1.4792
  659TIP3   OH223391   5.588   1.193   0.099  0.7330 -0.1232  0.1074
  659TIP3    H123392   5.511   1.232   0.139  0.0850 -0.5593 -0.7091
  659TIP3    H223393   5.555   1.145   0.023  1.9090  0.4334 -0.7751
  660TIP3   OH223394   2.578   2.260  11.790  0.3622 -0.2697 -0.4011
  660TIP3    H123395   2.646   2.197  11.813  2.1359  1.4415 -0.8119
  660TIP3    H223396   2.516   2.210  11.736  0.7376 -2.0898  0.7932
  661TIP3   OH223397   5.564   1.945  11.883  0.0920 -0.7977 -0.4489
  661TIP3    H123398   5.613   1.866  11.864  0.2966 -0.5759 -0.8517
  661TIP3    H223399   5.490   1.942  11.822  0.4412 -0.3683 -0.8979
  662TIP3   OH223400   1.950   6.704  14.616  0.5513 -0.2637 -0.5175
  662TIP3    H123401   1.889   6.635  14.590  0.5177 -0.1192 -0.8237
  662TIP3    H223402   1.913   6.784  14.580 -0.7466  0.3092  2.0150
  663TIP3   OH223403   1.309   5.826   1.323  0.7298 -0.1358 -0.3373
  663TIP3    H123404   1.360   5.860   1.396 -1.8963 -1.0659  2.0109
  663TIP3    H223405   1.295   5.733   1.344 -2.0490  0.1354 -0.8074
  664TIP3   OH223406   6.766   0.045  17.089 -0.3537 -0.5675  0.4690
  664TIP3    H123407   6.674   0.027  17.110 -0.6963  0.3393 -0.2250
  664TIP3    H223408   6.791  -0.025  17.029  0.1701 -2.2776  2.6267
  665TIP3   OH223409   6.471   1.006   2.287 -0.8224 -0.2262  0.4365
  665TIP3    H123410   6.459   0.912   2.300 -0.5502 -0.0030  2.3199
  665TIP3    H223411   6.414   1.047   2.352 -1.1876  0.9363 -0.5832
  666TIP3   OH223412   0.885   6.594   3.770 -0.2194 -0.1778 -0.1143
  666TIP3    H123413   0.912   6.560   3.685 -1.0417 -1.3337  0.0774
  666TIP3    H223414   0.800   6.635   3.754 -0.2319 -0.1244  0.0842
  667TIP3   OH223415   3.965   5.334   2.559 -0.1678  0.2095  0.6441
  667TIP3    H123416   3.900   5.324   2.490  1.4965 -3.4131 -0.5497
  667TIP3    H223417   3.917   5.321   2.640 -1.1743 -1.0544 -0.1427
  668TIP3   OH223418   0.758   1.421   4.407  0.2787  0.1657 -0.4442
  668TIP3    H123419   0.693   1.486   4.434  0.4354 -0.0101  0.3493
  668TIP3    H223420   0.709   1.340   4.398  0.6127 -0.2485  1.3765
  669TIP3   OH223421   4.105   5.083   1.798 -0.5565 -0.5230 -0.5887
  669TIP3    H123422   4.165   5.041   1.860 -0.6470  0.9956  0.5519
  669TIP3    H223423   4.160   5.145   1.750 -0.3550 -2.1125 -2.4871
  670TIP3   OH223424   5.071   2.084  14.620  0.1645  0.0055  0.1418
  670TIP3    H123425   5.089   2.153  14.556  0.5822  0.3600  0.6349
  670TIP3    H223426   5.114   2.006  14.585 -1.5844 -0.4118 -1.1928
  671TIP3   OH223427   5.646   1.620   0.729  0.3557 -0.6854 -0.2939
  671TIP3    H123428   5.616   1.531   0.712 -1.7909 -0.5105  2.2643
  671TIP3    H223429   5.570   1.664   0.768  2.8691  0.7329  3.3145
  672TIP3   OH223430   0.503   6.284  11.514  0.2542  0.5970  0.4286
  672TIP3    H123431   0.529   6.367  11.553  0.8120  0.7479 -0.2420
  672TIP3    H223432   0.421   6.260  11.558  1.0566  0.5825  1.9139
  673TIP3   OH223433   0.595   0.115  13.064  0.0069 -0.1506 -0.1393
  673TIP3    H123434   0.538   0.159  13.127 -0.7739 -0.4745 -0.5960
  673TIP3    H223435   0.534   0.070  13.005  0.7258  0.1650 -1.1283
  674TIP3   OH223436   6.635   0.338   0.817 -0.2032 -0.2998 -0.2111
  674TIP3    H123437   6.566   0.391   0.857 -0.0292 -0.3441  0.1591
  674TIP3    H223438   6.665   0.282   0.889  0.6176  0.1283 -0.2214
  675TIP3   OH223439   4.603   5.415  11.118  0.0481  0.1705 -0.1971
  675TIP3    H123440   4.631   5.406  11.209 -0.3510  1.4937  0.0637
  675TIP3    H223441   4.672   5.466  11.076 -0.8323  1.4449 -0.1076
  676TIP3   OH223442   1.392   1.238   1.431 -0.1261 -0.2114 -0.1365
  676TIP3    H123443   1.401   1.324   1.471 -2.8184 -0.2569  0.6594
  676TIP3    H223444   1.468   1.230   1.374  0.9683  2.0455  0.9366
  677TIP3   OH223445   5.234   2.578   2.619 -0.1507  0.2205 -0.0322
  677TIP3    H123446   5.210   2.598   2.710 -2.5296  1.3040 -0.8674
  677TIP3    H223447   5.154   2.541   2.581  1.0859 -1.0641 -1.4683
  678TIP3   OH223448   5.859   5.186  14.461  0.6303  0.0921 -0.3983
  678TIP3    H123449   5.887   5.096  14.477 -0.4456 -0.1650  0.1024
  678TIP3    H223450   5.934   5.240  14.485  0.4466 -0.5252  1.6216
  679TIP3   OH223451   3.744   4.701   2.232  0.1736  0.0296 -0.4870
  679TIP3    H123452   3.724   4.611   2.205 -1.9933  0.4200 -0.2823
  679TIP3    H223453   3.684   4.717   2.305  1.2510  1.3159  0.1316
  680TIP3   OH223454   3.333   2.524  13.960  0.4403  0.0628  0.1499
  680TIP3    H123455   3.243   2.548  13.984  0.5713  0.0103  0.7033
  680TIP3    H223456   3.376   2.607  13.940  0.3946  0.1273  0.3207
  681TIP3   OH223457   5.854   2.005  16.841  0.0076 -0.3887  0.2614
  681TIP3    H123458   5.931   2.002  16.784 -0.3010  1.2671 -0.2589
  681TIP3    H223459   5.780   2.015  16.781 -0.5291 -0.8316  0.8367
  682TIP3   OH223460   6.238   4.620  12.534  0.3085  0.7557 -0.2128
  682TIP3    H123461   6.329   4.626  12.564  1.3303 -1.3122 -2.6556
  682TIP3    H223462   6.235   4.677  12.457 -1.1308  2.6315  1.1850
  683TIP3   OH223463   2.806   3.364   0.157 -0.3285  0.3761  0.8336
  683TIP3    H123464   2.883   3.419   0.172  0.1388  0.1332 -0.5385
  683TIP3    H223465   2.837   3.274   0.169 -0.3179  0.2636  0.0475
  684TIP3   OH223466   4.852   3.676  14.177  0.4400  0.0113 -0.4648
  684TIP3    H123467   4.895   3.714  14.101  0.5693  2.1882  0.6520
  684TIP3    H223468   4.923   3.632  14.225  1.0242  1.5485  0.1291
  685TIP3   OH223469   5.731   4.338  16.788 -0.1105  0.1634  0.3081
  685TIP3    H123470   5.743   4.419  16.737  0.5324  1.8635  3.0428
  685TIP3    H223471   5.766   4.269  16.732 -1.5974  1.6219 -2.5166
  686TIP3   OH223472   0.280   3.000  13.131 -0.1781  1.0021  0.0053
  686TIP3    H123473   0.198   2.998  13.182  0.0021  0.0960  0.2564
  686TIP3    H223474   0.255   3.041  13.048 -0.8991  0.6814  0.0595
  687TIP3   OH223475   4.881   0.988   5.712  0.1929 -0.3020 -0.3551
  687TIP3    H123476   4.870   1.080   5.690 -1.4491 -0.7096 -1.3416
  687TIP3    H223477   4.958   0.986   5.768 -0.6619  1.8941  0.9944
  688TIP3   OH223478   0.376   5.966   4.536 -0.1427  0.0022 -0.2258
  688TIP3    H123479   0.297   6.020   4.533 -1.5638 -1.6944  3.3418
  688TIP3    H223480   0.375   5.917   4.454 -0.4557  3.0857 -2.1348
  689TIP3   OH223481   0.641   1.277  16.181  0.0975  0.3326 -0.0243
  689TIP3    H123482   0.597   1.201  16.219  2.3716 -1.2211 -0.3875
  689TIP3    H223483   0.723   1.284  16.229  0.8653  1.2489 -1.4414
  690TIP3   OH223484   0.045   0.934   5.050 -0.3674 -0.1298  0.0909
  690TIP3    H123485   0.071   0.844   5.068  0.2948 -0.0590 -0.5055
  690TIP3    H223486  -0.037   0.927   5.001  0.6163 -0.4694 -1.5542
  691TIP3   OH223487   2.824   3.951   3.257 -0.0780 -0.1097  0.4625
  691TIP3    H123488   2.774   4.030   3.236 -1.0646 -1.2423 -1.5689
  691TIP3    H223489   2.759   3.890   3.293  0.0469 -1.1290 -0.9928
  692TIP3   OH223490   4.631   2.414  15.715  0.4600 -0.0626  0.5758
  692TIP3    H123491   4.578   2.493  15.703  0.0491 -0.2849  0.8953
  692TIP3    H223492   4.712   2.445  15.755  1.3393  0.5202 -1.6029
  693TIP3   OH223493   6.189   2.812  13.207 -0.0058  0.1270  0.1163
  693TIP3    H123494   6.188   2.752  13.282 -0.3355  0.1639  0.1444
  693TIP3    H223495   6.281   2.829  13.190  0.1029 -0.7846 -0.2111
  694TIP3   OH223496   3.451   2.548  15.066  0.0860 -0.4378 -0.2871
  694TIP3    H123497   3.513   2.537  14.993 -0.1393 -3.8185 -0.0324
  694TIP3    H223498   3.503   2.533  15.145 -0.1844  0.8433  0.1421
  695TIP3   OH223499   0.506   5.763   5.015  0.3704 -0.0097 -0.4940
  695TIP3    H123500   0.416   5.744   5.040  0.0933 -0.5721 -1.8615
  695TIP3    H223501   0.544   5.805   5.092 -1.0310  0.1611  0.1235
  696TIP3   OH223502   5.355   5.932  14.540 -0.1153 -0.0060 -0.3505
  696TIP3    H123503   5.286   5.971  14.594  1.0339  2.5995 -0.7368
  696TIP3    H223504   5.405   5.877  14.601  0.0568  1.4554  0.8371
  697TIP3   OH223505   2.654   6.585   5.397 -0.3878  0.4323  0.3111
  697TIP3    H123506   2.571   6.543   5.419  0.4740 -0.7531  1.4074
  697TIP3    H223507   2.685   6.621   5.481  0.2924  0.7230 -0.0619
  698TIP3   OH223508   2.967   3.705  13.190  0.2252 -0.5439  0.0669
  698TIP3    H123509   2.989   3.612  13.181  0.3467 -0.5009 -0.0891
  698TIP3    H223510   3.048   3.746  13.221 -0.0989 -0.6375  1.0615
  699TIP3   OH223511   6.665   2.682   4.023 -0.2642  0.4005  0.4841
  699TIP3    H123512   6.711   2.748   3.970 -0.5819 -2.1093 -3.0900
  699TIP3    H223513   6.574   2.689   3.995 -0.0193 -2.6987 -1.3229
  700TIP3   OH223514   4.001   0.146  14.475 -0.0793  0.4278 -0.3890
  700TIP3    H123515   3.928   0.137  14.413 -0.9870  0.7080  0.6228
  700TIP3    H223516   3.966   0.201  14.545 -0.0885 -2.3189  1.8634
  701TIP3   OH223517   3.094   6.644   2.405  0.2300 -0.0712  0.4443
  701TIP3    H123518   3.079   6.555   2.438  0.4988 -0.3704 -0.2257
  701TIP3    H223519   3.183   6.665   2.433  0.2417 -0.0997  0.4295
  702TIP3   OH223520   1.306   0.752   5.277 -0.1008  0.0547 -0.1383
  702TIP3    H123521   1.221   0.710   5.290 -0.3419  0.5101 -0.2543
  702TIP3    H223522   1.323   0.744   5.183  1.3802 -2.7273  0.2797
  703TIP3   OH223523   0.222   4.934  13.453 -0.0165 -0.0839  0.2243
  703TIP3    H123524   0.201   4.974  13.368 -0.1561  0.1396  0.3640
  703TIP3    H223525   0.155   4.968  13.513  1.4865  1.6552  0.9771
  704TIP3   OH223526   3.580   5.608  15.405 -0.1336  0.0756 -0.0360
  704TIP3    H123527   3.649   5.659  15.447 -0.0589 -0.3308  0.3342
  704TIP3    H223528   3.592   5.519  15.437  1.5144 -0.7854 -2.8969
  705TIP3   OH223529   5.000   1.446  11.206 -0.5654 -0.3224  0.0580
  705TIP3    H123530   4.937   1.374  11.213 -0.5889 -0.3666 -0.6430
  705TIP3    H223531   5.072   1.410  11.154 -1.2224  0.6030 -1.5273
  706TIP3   OH223532   2.265   4.475   1.911 -0.4476 -0.0435 -0.1105
  706TIP3    H123533   2.271   4.517   1.825 -1.5135  1.1708  0.4052
  706TIP3    H223534   2.217   4.537   1.965 -0.6735 -1.2519  1.0908
  707TIP3   OH223535   3.871   1.676  13.175  0.0085 -0.2265  0.3411
  707TIP3    H123536   3.812   1.616  13.129 -3.0173  1.7549  1.3998
  707TIP3    H223537   3.813   1.723  13.235  2.7767  1.6776  1.5976
  708TIP3   OH223538   3.801   1.612  11.565  0.0278 -0.0611 -0.3175
  708TIP3    H123539   3.717   1.655  11.550  0.6929  2.0673  1.8295
  708TIP3    H223540   3.795   1.577  11.654  1.4678  0.2169 -0.0989
  709TIP3   OH223541   6.397   6.671   0.116  0.4390  0.3160 -0.5478
  709TIP3    H123542   6.368   6.634   0.033  0.6564 -1.0746 -0.0183
  709TIP3    H223543   6.458   6.606   0.151  0.8609  1.1972  0.3893
  710TIP3   OH223544   6.098   0.680   2.036 -0.1292  0.0542  0.2963
  710TIP3    H123545   6.170   0.620   2.015  0.7317  0.3274  2.2658
  710TIP3    H223546   6.083   0.729   1.956  0.5947 -1.3401 -0.7130
  711TIP3   OH223547   3.507   0.240   1.341 -0.1896  0.1673 -0.3975
  711TIP3    H123548   3.510   0.305   1.271 -1.2800  1.9130  1.1541
  711TIP3    H223549   3.586   0.258   1.393 -0.2367 -0.0814 -0.2429
  712TIP3   OH223550   4.550   3.595  13.543 -0.4256  0.1760 -0.2822
  712TIP3    H123551   4.523   3.635  13.626  1.5137  0.3625  0.2830
  712TIP3    H223552   4.495   3.517  13.536  0.8154 -0.9896  2.2630
  713TIP3   OH223553   4.554   6.586  16.697  0.9621 -0.3281 -0.2993
  713TIP3    H123554   4.620   6.518  16.707 -0.2480 -1.4695  0.0046
  713TIP3    H223555   4.600   6.658  16.654  2.3934 -1.1159 -0.1007
  714TIP3   OH223556   0.229   2.800  17.159  0.3448  0.2886 -0.0985
  714TIP3    H123557   0.293   2.868  17.178  0.7182 -0.2368  0.5343
  714TIP3    H223558   0.244   2.778  17.067  1.7908 -0.5676  0.3190
  715TIP3   OH223559   6.741   2.646   0.307  0.1506 -0.0326  0.0602
  715TIP3    H123560   6.716   2.567   0.258 -1.7064  0.7620 -0.3274
  715TIP3    H223561   6.776   2.705   0.240 -0.0718  0.1203  0.0791
  716TIP3   OH223562   3.611   5.939  11.884 -0.2971 -0.0845  0.3425
  716TIP3    H123563   3.663   5.930  11.805 -0.6723  2.5273 -0.2285
  716TIP3    H223564   3.667   5.903  11.953  1.2163  0.3183 -0.6421
  717TIP3   OH223565   3.647   2.390   4.712  0.0011 -0.2769  0.4623
  717TIP3    H123566   3.553   2.402   4.726  0.1057 -0.1819  1.0738
  717TIP3    H223567   3.676   2.474   4.677 -0.1356 -0.2948  0.3046
  718TIP3   OH223568   2.276   0.845  13.517  0.3665 -0.5609  0.1242
  718TIP3    H123569   2.259   0.846  13.423 -1.5551 -1.9207  0.4080
  718TIP3    H223570   2.345   0.779  13.528  0.5630 -0.4308 -0.3348
  719TIP3   OH223571   6.271   5.257   3.323 -0.2710  1.0843 -0.1957
  719TIP3    H123572   6.289   5.350   3.336 -0.6644  1.1698 -0.2424
  719TIP3    H223573   6.227   5.253   3.237 -2.6129  1.1673  0.9568
  720TIP3   OH223574   5.622   2.657   0.240  0.3903 -0.2907 -0.5979
  720TIP3    H123575   5.551   2.601   0.209 -0.5210 -0.2706  1.3564
  720TIP3    H223576   5.604   2.742   0.200  0.8172 -0.9358 -2.2009
  721TIP3   OH223577   5.408   3.956  14.427 -0.1432  0.0901  0.2936
  721TIP3    H123578   5.424   3.928  14.518 -2.8719 -0.6767  0.5767
  721TIP3    H223579   5.370   4.043  14.436 -0.9552 -0.2244 -0.0711
  722TIP3   OH223580   4.077   3.170   0.680  0.6314  0.2495 -0.5011
  722TIP3    H123581   4.060   3.243   0.621  0.8500  0.6089 -0.1277
  722TIP3    H223582   4.084   3.093   0.623  0.7880  0.5838 -0.9356
  723TIP3   OH223583   2.520   4.658   3.783 -0.0422 -0.3093 -0.0063
  723TIP3    H123584   2.552   4.607   3.708  0.2879  1.5812 -1.1925
  723TIP3    H223585   2.598   4.700   3.818 -0.6309  1.2464 -0.5136
  724TIP3   OH223586   6.151   1.466   3.184 -0.0824 -0.0282  0.6841
  724TIP3    H123587   6.240   1.439   3.206  0.5043  1.3383  0.0687
  724TIP3    H223588   6.149   1.559   3.205 -0.7771  0.3832 -1.0949
  725TIP3   OH223589   2.928   1.928  14.832 -0.9355  0.0886 -0.3417
  725TIP3    H123590   2.894   1.881  14.756 -0.9662 -1.4419  0.6069
  725TIP3    H223591   3.019   1.948  14.809 -1.0206 -0.1451 -0.8857
  726TIP3   OH223592   4.849   2.008   4.307 -0.0022 -0.1365  1.0613
  726TIP3    H123593   4.926   1.951   4.312 -0.2021 -0.2755  2.9201
  726TIP3    H223594   4.786   1.959   4.255  0.6510 -0.6526  0.7516
  727TIP3   OH223595   3.282   5.839   1.275  0.8698  0.3637  0.2965
  727TIP3    H123596   3.294   5.910   1.211 -0.0209 -0.2946 -0.6175
  727TIP3    H223597   3.371   5.809   1.293  1.0400 -0.6605 -2.0500
  728TIP3   OH223598   3.813   6.244   2.334  0.1806 -0.3003  0.0565
  728TIP3    H123599   3.902   6.214   2.349  0.5107  0.4111 -0.4637
  728TIP3    H223600   3.809   6.263   2.240 -0.8565 -1.4273 -0.1456
  729TIP3   OH223601   6.547   6.321  12.988  0.4968  0.4830 -0.0768
  729TIP3    H123602   6.480   6.256  13.013  0.6215  0.5820  0.5375
  729TIP3    H223603   6.612   6.271  12.939 -0.1415  0.4306 -0.8850
  730TIP3   OH223604   3.982   4.546   5.411  0.0317  0.1028 -0.0255
  730TIP3    H123605   3.973   4.451   5.416  0.8199 -0.1058 -1.9130
  730TIP3    H223606   3.968   4.577   5.500 -2.6838 -1.5603  0.1817
  731TIP3   OH223607   5.689   1.257   5.274 -0.1300  0.5140 -0.7197
  731TIP3    H123608   5.750   1.212   5.216 -1.4988 -2.5305  0.0948
  731TIP3    H223609   5.606   1.210   5.264 -1.5636  2.6389  0.4865
  732TIP3   OH223610   5.791   5.749   2.248 -0.1189 -0.1081 -0.4222
  732TIP3    H123611   5.885   5.752   2.265 -0.1446 -2.2847  0.2230
  732TIP3    H223612   5.758   5.682   2.308 -1.7306 -0.9332 -2.1726
  733TIP3   OH223613   2.069   3.140  12.398 -0.3128 -0.0613  0.2217
  733TIP3    H123614   2.068   3.061  12.344 -0.9384 -0.4858  0.8397
  733TIP3    H223615   2.104   3.112  12.482  1.8317  0.8606 -0.3211
  734TIP3   OH223616   3.394   6.271  16.451  0.2145  0.1114  0.1109
  734TIP3    H123617   3.374   6.363  16.467  0.5334  0.5848 -2.0149
  734TIP3    H223618   3.483   6.273  16.416  0.1476 -0.9939 -0.1175
  735TIP3   OH223619   0.984   1.884  16.016  0.2433  0.4723  0.1870
  735TIP3    H123620   0.999   1.977  15.998  0.9554  0.0059 -1.7575
  735TIP3    H223621   0.934   1.853  15.940 -0.8522 -0.5134  1.3037
  736TIP3   OH223622   3.975   0.468   3.533 -0.9549 -0.2083  0.7547
  736TIP3    H123623   4.030   0.390   3.539 -0.1119  0.3627  0.5574
  736TIP3    H223624   3.978   0.492   3.440  0.3693  1.1765  1.1415
  737TIP3   OH223625   6.552   3.249  13.234 -0.0907  0.4238 -0.4389
  737TIP3    H123626   6.595   3.318  13.283  0.2043 -1.1142  1.5099
  737TIP3    H223627   6.613   3.175  13.236 -1.5945 -0.8423 -0.0539
  738TIP3   OH223628   3.665   2.171   3.991  0.4942  0.3130 -0.8687
  738TIP3    H123629   3.631   2.257   3.966  0.5069  0.3175 -0.8706
  738TIP3    H223630   3.639   2.161   4.083 -1.5386 -0.6714 -1.5043
  739TIP3   OH223631   4.183   1.395   2.047 -0.0063  0.0909 -0.2619
  739TIP3    H123632   4.275   1.396   2.019  0.3506 -1.0833  0.8292
  739TIP3    H223633   4.156   1.486   2.044  2.0766  0.8401  2.2414
  740TIP3   OH223634   2.235   1.233  14.342 -0.2147 -0.8596  0.0965
  740TIP3    H123635   2.146   1.266  14.354 -0.8258 -1.5423 -2.3620
  740TIP3    H223636   2.261   1.264  14.256  2.3857  0.3056  1.2593
  741TIP3   OH223637   6.529   6.694  15.026  0.4463  0.2137 -0.5628
  741TIP3    H123638   6.441   6.698  15.062  0.5671  2.8668 -0.4969
  741TIP3    H223639   6.563   6.784  15.033  2.9080 -0.6133 -1.1792
  742TIP3   OH223640   4.230   4.680   5.500 -0.3734  0.2013  0.2096
  742TIP3    H123641   4.203   4.626   5.426 -0.5796  0.2422  0.2550
  742TIP3    H223642   4.157   4.741   5.512  0.0868  0.8186 -0.1658
  743TIP3   OH223643   1.015   3.340   1.084 -0.6811  0.6335 -0.0986
  743TIP3    H123644   1.038   3.308   0.997  0.9277  1.0317  0.1681
  743TIP3    H223645   1.099   3.361   1.126 -1.4572  0.9780  1.3444
  744TIP3   OH223646   5.631   5.173   4.233  0.5339  0.5568  0.1910
  744TIP3    H123647   5.566   5.134   4.291 -0.1553  1.6700  0.1778
  744TIP3    H223648   5.649   5.105   4.168 -0.2566  0.0658  0.4799
  745TIP3   OH223649   1.000   6.323  12.149  0.0249 -0.2864  0.0297
  745TIP3    H123650   0.989   6.336  12.055  1.1399  2.9222  0.2566
  745TIP3    H223651   1.026   6.232  12.158 -0.0430 -0.6346 -2.7784
  746TIP3   OH223652   0.546   3.370   4.487 -0.8979  0.7238 -0.4107
  746TIP3    H123653   0.575   3.300   4.428  0.0096  1.3340 -0.7023
  746TIP3    H223654   0.451   3.369   4.480 -0.7655  1.6344 -2.9091
  747TIP3   OH223655   0.679   0.938   6.122 -0.0919 -0.0750  0.2306
  747TIP3    H123656   0.624   0.951   6.199 -2.7206 -3.5963 -0.9279
  747TIP3    H223657   0.733   0.862   6.145 -0.6495 -0.9305 -1.2398
  748TIP3   OH223658   3.772   1.717  13.643  0.0491  0.8992  0.1620
  748TIP3    H123659   3.863   1.695  13.624 -0.0007  0.7597  0.0825
  748TIP3    H223660   3.771   1.739  13.736  0.1434  0.7977  0.1873
  749TIP3   OH223661   4.399   1.204   1.778  0.1921  0.3047  0.1030
  749TIP3    H123662   4.480   1.160   1.803  0.4331  0.3495 -0.5749
  749TIP3    H223663   4.393   1.279   1.837  1.4253  1.1583 -0.8271
  750TIP3   OH223664   3.287   1.970  15.637 -0.5881  0.5762 -0.0648
  750TIP3    H123665   3.225   1.962  15.710 -0.8359  0.0145 -0.3370
  750TIP3    H223666   3.269   2.056  15.600 -0.7030  0.7195  0.3180
  751TIP3   OH223667   4.720   4.797  14.844 -0.2154 -0.1518 -0.8125
  751TIP3    H123668   4.631   4.796  14.878 -0.5709 -0.1400 -1.7252
  751TIP3    H223669   4.737   4.889  14.823 -0.0769 -0.1865 -0.8594
  752TIP3   OH223670   6.043   5.727  16.915  0.5864  0.4905  0.6928
  752TIP3    H123671   6.121   5.677  16.891 -0.1722 -0.8225  0.9111
  752TIP3    H223672   5.971   5.665  16.905 -0.3516  1.4921  1.1532
  753TIP3   OH223673   2.007   1.222   4.606 -0.2262 -0.2369 -0.1464
  753TIP3    H123674   1.971   1.271   4.532  3.8288 -0.0880 -2.1055
  753TIP3    H223675   2.079   1.276   4.638 -0.3561 -1.4760  2.4179
  754TIP3   OH223676   1.349   0.183   1.250  0.0735  0.0504  0.2738
  754TIP3    H123677   1.383   0.241   1.182 -0.4774 -0.1458 -0.1713
  754TIP3    H223678   1.395   0.100   1.238  1.9756  0.8364  1.8613
  755TIP3   OH223679   2.737   6.122   0.215 -0.0933 -0.0096 -0.2686
  755TIP3    H123680   2.732   6.094   0.123 -1.7148 -1.6123  0.2934
  755TIP3    H223681   2.717   6.216   0.212  3.1757  0.7283 -1.9044
  756TIP3   OH223682   0.597   5.524  13.868  0.4813 -0.0032  0.0839
  756TIP3    H123683   0.566   5.615  13.866  1.6097  0.3822 -0.2123
  756TIP3    H223684   0.539   5.480  13.930  0.7149  1.2077  1.1819
  757TIP3   OH223685   1.563   0.830  14.450 -0.4356  0.2942  0.3046
  757TIP3    H123686   1.530   0.824  14.360  0.6691 -3.0405  0.0297
  757TIP3    H223687   1.516   0.761  14.497 -0.4985  1.5563  2.1468
  758TIP3   OH223688   5.118   4.349  11.917 -0.0053  0.0241  0.3863
  758TIP3    H123689   5.200   4.323  11.958  0.1338  0.2150  0.2236
  758TIP3    H223690   5.135   4.345  11.823 -0.5396 -1.1264  0.3221
  759TIP3   OH223691   1.796   4.538   1.170  0.0898 -0.0298  0.5061
  759TIP3    H123692   1.761   4.520   1.083  0.5810 -0.5363  0.4081
  759TIP3    H223693   1.759   4.623   1.195 -0.2717 -0.0209 -0.0790
  760TIP3   OH223694   4.291   1.641  12.896 -0.4296 -0.0536  0.1572
  760TIP3    H123695   4.282   1.699  12.820 -0.2811 -0.7730 -0.4141
  760TIP3    H223696   4.312   1.556  12.859  2.0147  0.1073  1.1275
  761TIP3   OH223697   1.637   5.009  14.033 -0.2829 -0.1331 -0.4446
  761TIP3    H123698   1.628   5.090  13.982 -0.2768 -0.1237 -0.4316
  761TIP3    H223699   1.679   5.036  14.114 -0.5481 -0.1020 -0.3164
  762TIP3   OH223700   4.473   6.490  11.067  0.2145  0.0339  0.0685
  762TIP3    H123701   4.380   6.474  11.085  0.3885 -2.8702 -1.3289
  762TIP3    H223702   4.520   6.431  11.128  1.0639 -0.3059 -0.8985
  763TIP3   OH223703   3.781   3.712   3.959 -0.3935 -0.1829  0.3924
  763TIP3    H123704   3.701   3.760   3.979  0.0722  0.5777  0.4554
  763TIP3    H223705   3.759   3.661   3.881  0.0379  2.5283 -1.5620
  764TIP3   OH223706   2.537   0.593  14.364  0.4473 -0.4306  0.3068
  764TIP3    H123707   2.452   0.601  14.408  0.5658 -0.6838  0.5854
  764TIP3    H223708   2.595   0.557  14.431  0.3290 -2.0159 -0.4119
  765TIP3   OH223709   4.821   6.313  10.599  0.2454 -0.2134 -0.1661
  765TIP3    H123710   4.912   6.310  10.568  1.2029 -2.3866  2.6509
  765TIP3    H223711   4.780   6.235  10.562  0.5983 -1.2622  1.6154
  766TIP3   OH223712   1.705   6.199   1.724  0.6092 -0.5027 -0.3863
  766TIP3    H123713   1.728   6.196   1.631  0.8929  0.9476 -0.3775
  766TIP3    H223714   1.787   6.223   1.768 -0.1385  1.5469 -0.0364
  767TIP3   OH223715   4.242   0.843   2.095 -0.2552 -0.8925 -0.1871
  767TIP3    H123716   4.203   0.757   2.111  0.5974 -0.9934  1.4790
  767TIP3    H223717   4.185   0.905   2.141 -0.2275 -0.6955 -0.4151
  768TIP3   OH223718   2.864   4.205   4.041  0.3558 -0.3374 -0.3675
  768TIP3    H123719   2.786   4.260   4.053  0.0394 -0.8125 -0.2080
  768TIP3    H223720   2.830   4.115   4.043  0.6477 -0.5005 -2.3267
  769TIP3   OH223721   5.998   5.904  17.139 -0.0041 -0.1956  0.1185
  769TIP3    H123722   6.000   5.854  17.057  1.4428  1.1449 -0.6781
  769TIP3    H223723   6.078   5.957  17.137 -0.6310  0.8378  1.7798
  770TIP3   OH223724   1.376   4.199   4.922  0.4133 -0.0998  0.2704
  770TIP3    H123725   1.447   4.135   4.919  1.2625  0.8872 -1.4836
  770TIP3    H223726   1.391   4.248   5.002 -0.2211 -2.0320  1.6206
  771TIP3   OH223727   2.077   1.875  12.178  0.7291  0.2220  0.3318
  771TIP3    H123728   1.988   1.862  12.145  0.0170 -0.2895  2.3632
  771TIP3    H223729   2.094   1.969  12.165  0.8325 -0.1048 -2.2184
  772TIP3   OH223730   0.253   6.718   3.828 -0.1112 -0.2185 -0.3360
  772TIP3    H123731   0.292   6.638   3.864  0.9694  0.1867 -0.5745
  772TIP3    H223732   0.164   6.719   3.863  0.4955 -0.5076  1.2485
  773TIP3   OH223733   2.173   6.384   5.056  0.2971  0.1256 -0.5018
  773TIP3    H123734   2.119   6.461   5.040  0.2638 -0.2026 -2.0160
  773TIP3    H223735   2.263   6.416   5.055  0.2047  0.4839  0.9441
  774TIP3   OH223736   3.528   1.913  11.333 -0.3508  0.0645 -0.0644
  774TIP3    H123737   3.618   1.893  11.306 -0.1719 -1.5165  1.5732
  774TIP3    H223738   3.480   1.927  11.251  1.1375 -0.1827 -0.9935
  775TIP3   OH223739   6.160   3.899  17.100  0.5745 -0.5021 -0.1378
  775TIP3    H123740   6.216   3.976  17.104 -0.4215  0.1719  1.0052
  775TIP3    H223741   6.117   3.895  17.185 -0.4908 -1.4893 -0.6947
  776TIP3   OH223742   2.256   6.381  15.900 -0.3183 -0.5147 -0.7362
  776TIP3    H123743   2.197   6.454  15.916  0.1500 -0.3445  0.2991
  776TIP3    H223744   2.279   6.349  15.988 -0.3488 -1.7610 -1.1675
  777TIP3   OH223745   4.998   6.020   2.126 -0.5185  0.3329  0.5006
  777TIP3    H123746   5.042   6.006   2.043 -0.8706  3.8979 -0.3724
  777TIP3    H223747   5.066   6.006   2.192 -0.1529 -2.1541 -0.3495
  778TIP3   OH223748   2.097   2.090   3.472  0.1043 -0.3778 -0.1434
  778TIP3    H123749   2.174   2.097   3.416  0.6368 -1.3167  0.4550
  778TIP3    H223750   2.032   2.044   3.419  0.1346 -0.0276 -0.4786
  779TIP3   OH223751   1.431   0.418  12.895  0.5737 -0.2002 -0.1457
  779TIP3    H123752   1.366   0.358  12.931  0.9256 -0.2345  0.4464
  779TIP3    H223753   1.419   0.412  12.800 -2.5977  2.3994  0.0192
  780TIP3   OH223754   1.994   1.023  13.388  0.0489 -0.4363  0.3394
  780TIP3    H123755   2.022   0.995  13.476  0.2116 -2.2540 -0.2563
  780TIP3    H223756   2.047   1.100  13.370 -0.4269  0.3304  2.0872
  781TIP3   OH223757   0.718   0.246   5.222  0.5925  0.5576 -0.1525
  781TIP3    H123758   0.783   0.177   5.238 -0.6601 -0.8419 -0.9974
  781TIP3    H223759   0.668   0.214   5.147 -1.7419  1.1262  1.1138
  782TIP3   OH223760   6.634   5.827  13.312 -0.1486 -0.7917 -0.1210
  782TIP3    H123761   6.727   5.830  13.337 -0.3426  0.8860  0.4778
  782TIP3    H223762   6.633   5.783  13.228  1.4110  0.7686 -0.9896
  783TIP3   OH223763   6.312   3.215   4.106  0.2436 -0.2583 -0.0332
  783TIP3    H123764   6.260   3.220   4.025  0.0956  0.7844  0.1118
  783TIP3    H223765   6.373   3.144   4.091  0.6142  0.3070 -1.3063
  784TIP3   OH223766   5.335   2.410  11.789  0.1798  0.4235  0.1706
  784TIP3    H123767   5.364   2.490  11.744 -1.5655  1.9024  1.6352
  784TIP3    H223768   5.417   2.368  11.815  1.1384  2.8542  1.3005
  785TIP3   OH223769   4.114   4.055   0.595 -0.2475  0.3056 -0.3646
  785TIP3    H123770   4.202   4.024   0.574  0.0188  0.4483  0.5393
  785TIP3    H223771   4.058   3.978   0.585 -0.0542  0.2545 -1.1069
  786TIP3   OH223772   2.512   0.612  11.963  0.1740  0.0911  0.3258
  786TIP3    H123773   2.544   0.637  11.876 -0.6836 -0.1697 -0.0674
  786TIP3    H223774   2.490   0.519  11.956 -0.8048  0.2983  0.5457
  787TIP3   OH223775   1.673   5.698   2.484  0.4958  0.4739 -0.1179
  787TIP3    H123776   1.664   5.661   2.571 -0.4506 -1.3952 -0.9938
  787TIP3    H223777   1.643   5.789   2.494 -2.1167 -0.4507  0.9604
  788TIP3   OH223778   1.231   0.726  11.484 -0.1630  0.0667 -0.1471
  788TIP3    H123779   1.317   0.766  11.467 -0.7297  0.4167 -2.2919
  788TIP3    H223780   1.211   0.751  11.574  1.3641  1.1554 -0.0821
  789TIP3   OH223781   3.166   5.613   1.390 -0.4518 -0.1478  0.2843
  789TIP3    H123782   3.207   5.608   1.476 -2.3533  1.0916  1.2915
  789TIP3    H223783   3.196   5.696   1.354  0.9669 -1.0213 -0.6132
  790TIP3   OH223784   1.002   5.490  15.707  0.5560 -0.5964 -0.4411
  790TIP3    H123785   0.911   5.515  15.722  0.7043 -0.2538 -0.0887
  790TIP3    H223786   1.003   5.396  15.721  0.2562 -0.5992 -0.4255
  791TIP3   OH223787   1.909   6.440   1.459 -0.1615  0.5657 -0.4702
  791TIP3    H123788   1.849   6.366   1.454 -2.1495  2.1796 -1.5806
  791TIP3    H223789   1.961   6.434   1.379 -2.1767  1.8365 -1.9355
  792TIP3   OH223790   1.725   3.646  13.536  0.4487  0.3858 -0.1595
  792TIP3    H123791   1.810   3.619  13.501  0.3801  0.7621 -0.6090
  792TIP3    H223792   1.728   3.619  13.628  0.8103 -0.1701 -0.3274
  793TIP3   OH223793   0.996   2.087   4.850  0.1497 -0.1201 -0.0660
  793TIP3    H123794   1.090   2.071   4.844  0.2656  0.7808 -0.6858
  793TIP3    H223795   0.985   2.137   4.931  0.0840 -1.0783  0.5241
  794TIP3   OH223796   1.850   3.879   1.674  0.2712  0.0514 -0.4467
  794TIP3    H123797   1.853   3.900   1.767 -0.0591 -0.5242 -0.2992
  794TIP3    H223798   1.884   3.956   1.630  0.3467  0.3574  0.1507
  795TIP3   OH223799   2.246   2.825  13.992 -0.0052 -0.3720  0.0424
  795TIP3    H123800   2.327   2.877  13.987  0.1827 -0.6479  0.1765
  795TIP3    H223801   2.250   2.766  13.917 -0.6088  0.3534 -0.5701
  796TIP3   OH223802   3.257   1.932   5.692 -0.4207  0.1728 -0.4300
  796TIP3    H123803   3.243   2.025   5.677 -1.5577  0.1782  0.5427
  796TIP3    H223804   3.304   1.929   5.775 -1.2048 -0.1381  0.0152
  797TIP3   OH223805   4.658   0.421  16.325  0.4620 -0.0006 -0.4970
  797TIP3    H123806   4.685   0.499  16.372  0.8598  0.0504 -0.8090
  797TIP3    H223807   4.732   0.361  16.334 -0.6146 -1.1031  1.4422
  798TIP3   OH223808   4.686   0.727   0.060  0.0225  0.4965  0.3644
  798TIP3    H123809   4.773   0.766   0.060  0.5500 -0.6520 -1.3662
  798TIP3    H223810   4.684   0.674   0.140  0.3871  1.5983  1.1306
  799TIP3   OH223811   6.295   1.244  12.999  0.4414  0.0778  0.3578
  799TIP3    H123812   6.243   1.304  12.945  2.0447 -0.7405 -2.1633
  799TIP3    H223813   6.349   1.301  13.053  0.1333  0.9093 -0.2062
  800TIP3   OH223814   0.617   0.368  14.839  0.0235  0.5129 -0.0471
  800TIP3    H123815   0.625   0.454  14.798 -1.7076  0.7419  0.0612
  800TIP3    H223816   0.537   0.331  14.802  0.1039 -0.5548  0.8165
  801TIP3   OH223817   5.596   3.193   5.919  0.0190 -0.6349 -0.2456
  801TIP3    H123818   5.608   3.151   6.004 -1.4975 -2.0992 -0.7278
  801TIP3    H223819   5.502   3.214   5.916  0.0608 -0.6057 -1.5476
  802TIP3   OH223820   4.724   1.988   2.641  0.3290 -0.8849 -0.1168
  802TIP3    H123821   4.700   1.918   2.701  3.7804  0.1334  2.6358
  802TIP3    H223822   4.691   1.958   2.556 -0.2490 -4.7813  1.3417
  803TIP3   OH223823   3.294   5.664  12.479 -0.4133  0.4327  0.2857
  803TIP3    H123824   3.378   5.620  12.463 -1.0777 -0.4277 -0.9985
  803TIP3    H223825   3.270   5.638  12.568 -0.1619 -0.7764  0.0167
  804TIP3   OH223826   3.668   6.704  17.201  0.2446 -0.0380  0.1357
  804TIP3    H123827   3.647   6.619  17.162 -0.4406  1.4817 -2.9018
  804TIP3    H223828   3.761   6.698  17.224  0.3182 -1.4258 -0.4905
  805TIP3   OH223829   5.490   5.408  13.578 -0.4211  0.2807  0.0052
  805TIP3    H123830   5.436   5.416  13.657 -2.8792 -0.5104 -1.5614
  805TIP3    H223831   5.523   5.496  13.562  0.3374  0.4026  2.0450
  806TIP3   OH223832   3.200   1.663  11.497  0.2681 -0.4110  0.2823
  806TIP3    H123833   3.228   1.629  11.412 -0.2441  0.1376 -0.1045
  806TIP3    H223834   3.237   1.751  11.502 -1.7480  0.5183 -0.4412
  807TIP3   OH223835   5.098   1.741  11.858 -0.0090  0.5091  0.7731
  807TIP3    H123836   5.029   1.706  11.915 -0.1470 -1.7393 -0.7088
  807TIP3    H223837   5.064   1.825  11.827 -1.4394  0.1040  1.2062
  808TIP3   OH223838   1.043   5.982   0.134  0.6034 -0.0367 -0.8364
  808TIP3    H123839   1.019   6.008   0.045  3.6568  3.5400 -0.7586
  808TIP3    H223840   1.028   6.060   0.187  1.7847 -1.1244  1.1836
  809TIP3   OH223841   4.840   1.120   5.335  0.2199 -0.0028  0.6301
  809TIP3    H123842   4.874   1.208   5.346 -1.6547  0.6248  1.6138
  809TIP3    H223843   4.913   1.070   5.297  1.2869  1.9472  0.0744
  810TIP3   OH223844   5.203   0.773   5.313  0.0818  0.6791 -0.2098
  810TIP3    H123845   5.251   0.703   5.271  0.0893  2.7471 -3.8068
  810TIP3    H223846   5.123   0.732   5.346  0.4167 -1.1311 -1.6436
  811TIP3   OH223847   1.776   4.476   6.188  0.2241 -1.1768 -0.1696
  811TIP3    H123848   1.751   4.508   6.274 -1.9086  0.6091 -1.4121
  811TIP3    H223849   1.797   4.555   6.138  3.6754 -2.3091 -0.6702
  812TIP3   OH223850   4.367   6.147   5.599 -1.2453  0.3092 -0.1662
  812TIP3    H123851   4.460   6.157   5.618 -1.0110 -0.5591 -0.8481
  812TIP3    H223852   4.323   6.189   5.673 -0.3152 -0.4708  0.8475
  813TIP3   OH223853   2.683   2.854   4.773 -0.1810  0.1862  0.3400
  813TIP3    H123854   2.734   2.810   4.841  0.0936  0.1876  0.1356
  813TIP3    H223855   2.608   2.796   4.758 -1.0999  0.9820  1.7873
  814TIP3   OH223856   4.171   3.692  11.944  0.7815  0.1149 -0.0456
  814TIP3    H123857   4.134   3.768  11.898 -1.5254 -0.4861  0.7304
  814TIP3    H223858   4.133   3.696  12.031  0.1699 -2.2245 -0.1694
  815TIP3   OH223859   5.015   5.893  13.675  0.5812 -0.1334  0.0503
  815TIP3    H123860   5.003   5.980  13.636  1.4074  0.3850  0.9301
  815TIP3    H223861   4.927   5.854  13.676 -0.1288  1.4625  1.4623
  816TIP3   OH223862   3.141   1.124   3.558 -0.2721 -0.9597  0.4175
  816TIP3    H123863   3.230   1.091   3.553 -0.5067 -1.6290  0.5878
  816TIP3    H223864   3.128   1.144   3.651  0.5591  1.5653  0.0158
  817TIP3   OH223865   3.084   6.708   2.891  0.1900  0.2479  0.4345
  817TIP3    H123866   3.075   6.612   2.892  0.4550  0.2016 -0.6896
  817TIP3    H223867   3.159   6.725   2.949  1.3715 -0.3808 -0.8752
  818TIP3   OH223868   6.282   0.388  12.472 -0.6537 -0.0372 -0.5276
  818TIP3    H123869   6.228   0.420  12.400 -1.2763  0.5783  0.1999
  818TIP3    H223870   6.322   0.466  12.509  1.3698 -0.5657 -1.5429
  819TIP3   OH223871   3.843   6.397   0.737  0.3237 -0.1110 -0.1005
  819TIP3    H123872   3.847   6.318   0.790 -1.1482  0.4119  0.8272
  819TIP3    H223873   3.917   6.450   0.766  0.9075 -0.8480 -0.2440
  820TIP3   OH223874   3.017   4.755  15.284 -0.3128 -0.5114 -0.1596
  820TIP3    H123875   3.024   4.666  15.251 -1.5240  0.0250 -1.9284
  820TIP3    H223876   2.923   4.772  15.289 -0.0938  0.7796 -0.1829
  821TIP3   OH223877   0.443   2.960  17.201  0.0647 -0.0277 -0.3641
  821TIP3    H123878   0.456   3.047  17.239 -0.3069  0.2805 -0.9318
  821TIP3    H223879   0.510   2.954  17.133 -0.0607 -0.0870 -0.4831
  822TIP3   OH223880   4.848   4.188  11.081 -0.3439  0.2227 -0.6994
  822TIP3    H123881   4.864   4.094  11.087  2.1579  0.5344 -1.8219
  822TIP3    H223882   4.783   4.198  11.012 -1.2580 -0.7295  0.0117
  823TIP3   OH223883   2.432   3.109  10.933 -0.2143 -0.5230  0.5042
  823TIP3    H123884   2.464   3.057  10.860 -1.2176  0.3983 -0.6192
  823TIP3    H223885   2.388   3.184  10.892 -3.3689 -1.4805  1.9312
  824TIP3   OH223886   1.865   4.153   3.001  0.2513 -0.6228 -0.2314
  824TIP3    H123887   1.826   4.239   2.986  0.9786 -0.1639  0.4607
  824TIP3    H223888   1.868   4.112   2.914  0.4300  0.2754 -0.6500
  825TIP3   OH223889   1.160   6.773   3.660 -0.3636  0.4573 -0.2783
  825TIP3    H123890   1.124   6.860   3.640  0.2462  0.7465 -0.1340
  825TIP3    H223891   1.131   6.755   3.749  2.4816  2.0950  1.0737
  826TIP3   OH223892   2.471   2.595   3.857 -0.0799  0.3860  0.2915
  826TIP3    H123893   2.404   2.658   3.886 -1.1771 -0.0525 -1.2445
  826TIP3    H223894   2.448   2.514   3.902 -0.5176  0.2671 -0.1424
  827TIP3   OH223895   1.298   4.152   0.417  0.7938  0.1563 -0.6929
  827TIP3    H123896   1.203   4.163   0.417  0.9420  1.5117 -0.2886
  827TIP3    H223897   1.328   4.208   0.489  1.8553 -0.6441 -0.5053
  828TIP3   OH223898   4.572   5.357  14.423 -0.1131 -0.2111 -0.3277
  828TIP3    H123899   4.582   5.451  14.407  0.0394 -0.1367  0.1973
  828TIP3    H223900   4.658   5.330  14.457 -0.7406 -0.1700  1.3288
  829TIP3   OH223901   5.151   4.749   5.443  0.3678 -0.3736  0.2562
  829TIP3    H123902   5.170   4.656   5.456 -0.1205 -0.3301  1.2664
  829TIP3    H223903   5.186   4.792   5.521  0.5728  0.2999 -0.1966
  830TIP3   OH223904   3.622   1.332   3.185  0.3968 -0.2696 -0.2091
  830TIP3    H123905   3.656   1.243   3.189 -0.5800 -0.6290  0.4788
  830TIP3    H223906   3.530   1.323   3.212  0.0604  0.8186 -0.9572
  831TIP3   OH223907   6.688   0.875  12.155 -0.1520  0.2501  0.0019
  831TIP3    H123908   6.742   0.899  12.230 -0.5828 -0.0819  0.4183
  831TIP3    H223909   6.688   0.954  12.100 -0.3894  0.7189  0.6705
  832TIP3   OH223910   1.782   4.556  12.319  0.4737 -0.0949 -1.0301
  832TIP3    H123911   1.763   4.471  12.358  1.3683 -0.2158 -0.8462
  832TIP3    H223912   1.768   4.619  12.390 -0.2938 -0.0728 -1.1971
  833TIP3   OH223913   0.887   0.113  10.834  1.2508  0.3910  0.3148
  833TIP3    H123914   0.858   0.104  10.925 -0.0827 -0.8719 -0.2154
  833TIP3    H223915   0.956   0.047  10.825  2.4396  1.5528  0.8247
  834TIP3   OH223916   6.430   0.273   4.277 -0.0131  0.6674 -0.1618
  834TIP3    H123917   6.375   0.199   4.254  0.9086  0.2517 -1.0338
  834TIP3    H223918   6.509   0.234   4.315  0.2840  1.2104 -0.2056
  835TIP3   OH223919   2.135   0.569  11.565 -0.2233  0.2467  0.5672
  835TIP3    H123920   2.088   0.650  11.587  0.2828  0.3829  1.1672
  835TIP3    H223921   2.192   0.554  11.640  1.0828  0.3759 -0.3710
  836TIP3   OH223922   0.258   3.526  15.091  0.1751  0.2735 -0.3330
  836TIP3    H123923   0.342   3.492  15.059  0.0225 -1.4695  1.0584
  836TIP3    H223924   0.231   3.464  15.158 -1.1665  2.0273  0.7898
  837TIP3   OH223925   2.665   0.553  15.186 -0.1020  0.0382 -0.0055
  837TIP3    H123926   2.629   0.531  15.272  0.9885 -0.2883  0.3748
  837TIP3    H223927   2.745   0.501  15.179  0.9570  1.6718 -0.3284
  838TIP3   OH223928   5.507   5.344   5.588  0.6968 -0.4061  0.8678
  838TIP3    H123929   5.435   5.282   5.576  1.6314 -1.8987  2.7235
  838TIP3    H223930   5.474   5.406   5.652 -0.3863  1.3114 -1.2855
  839TIP3   OH223931   2.373   3.533   0.841  0.0158  0.0729  0.5201
  839TIP3    H123932   2.296   3.577   0.805 -1.0469 -1.1586  1.2290
  839TIP3    H223933   2.426   3.603   0.879 -0.1545  1.0686 -1.0400
  840TIP3   OH223934   6.174   0.820   4.311  0.3861 -0.1477  0.3311
  840TIP3    H123935   6.143   0.859   4.392 -0.2804  0.9501 -0.4320
  840TIP3    H223936   6.269   0.829   4.315  0.3289  0.3165  0.7999
  841TIP3   OH223937   2.447   0.945   4.395 -0.4149 -0.5701  0.6236
  841TIP3    H123938   2.465   0.862   4.351 -0.7156 -0.3329  0.0492
  841TIP3    H223939   2.478   1.012   4.334  0.5545 -0.2765  1.4218
  842TIP3   OH223940   3.032   2.289   2.017  0.0598 -0.3432 -0.1560
  842TIP3    H123941   3.046   2.347   2.092 -0.0556 -0.9825  0.3654
  842TIP3    H223942   2.961   2.231   2.045 -0.7599  0.1460 -1.1852
  843TIP3   OH223943   5.711   1.461   1.078 -0.1358  0.2221 -0.0071
  843TIP3    H123944   5.652   1.471   1.004 -0.6855 -1.9606  0.0858
  843TIP3    H223945   5.697   1.371   1.108  1.7030  0.3420  1.3375
  844TIP3   OH223946   4.000   4.298   0.001 -0.0204 -0.3611 -0.7853
  844TIP3    H123947   4.027   4.265   0.087 -0.0264 -1.8521 -1.3352
  844TIP3    H223948   4.014   4.224  -0.058  2.7017  1.5246 -2.6062
  845TIP3   OH223949   2.995   2.476  15.285  0.3054  0.0851  0.3795
  845TIP3    H123950   2.988   2.420  15.207 -2.8544 -0.0685  0.7063
  845TIP3    H223951   2.974   2.418  15.358  2.4337  0.4312  1.2921
  846TIP3   OH223952   4.674   1.065  15.371  0.1952 -0.2319  0.3695
  846TIP3    H123953   4.705   0.989  15.321  0.3448  0.5059 -0.6826
  846TIP3    H223954   4.596   1.095  15.325  0.7836  0.9390  0.1039
  847TIP3   OH223955   0.120   4.409  10.405 -0.1882  0.1482  0.2713
  847TIP3    H123956   0.101   4.405  10.311 -1.0012 -1.1312  0.4708
  847TIP3    H223957   0.189   4.343  10.418  1.3863  1.7500  0.2592
  848TIP3   OH223958   3.233   2.603   5.304  0.4106  0.5675 -0.3770
  848TIP3    H123959   3.151   2.557   5.323  0.6833  0.0870 -0.3550
  848TIP3    H223960   3.300   2.555   5.353  0.8198  0.5028 -0.9941
  849TIP3   OH223961   0.127   1.333   4.005 -0.3136 -0.1650  0.2998
  849TIP3    H123962   0.166   1.345   3.918  0.3448 -0.4265  0.5561
  849TIP3    H223963   0.173   1.257   4.042 -1.0133 -0.4287  0.6364
  850TIP3   OH223964   4.451   5.666   4.412  0.8494 -0.4662 -0.0090
  850TIP3    H123965   4.417   5.712   4.336  0.1848  0.4327  0.8251
  850TIP3    H223966   4.492   5.733   4.466  1.5202 -1.1292  0.3276
  851TIP3   OH223967   0.757   2.685   4.117  0.0220 -0.4556  0.4366
  851TIP3    H123968   0.734   2.778   4.112 -3.5039 -1.2113  1.3419
  851TIP3    H223969   0.696   2.642   4.057  2.5536 -2.0882 -1.0811
  852TIP3   OH223970   5.584   0.621  16.475 -0.0009 -0.0770  0.1829
  852TIP3    H123971   5.628   0.636  16.391 -0.1302 -0.6048  0.0171
  852TIP3    H223972   5.492   0.639  16.457 -0.4016 -2.5473 -0.4325
  853TIP3   OH223973   4.994   3.512   4.779  0.1146  0.1094  0.1733
  853TIP3    H123974   4.997   3.461   4.698 -0.2481 -1.4773  1.1437
  853TIP3    H223975   4.926   3.578   4.763 -0.6601 -0.8311 -0.4497
  854TIP3   OH223976   3.743   6.580  12.598 -0.4906  0.8630  0.1240
  854TIP3    H123977   3.741   6.492  12.635 -1.5689  0.1562 -1.5491
  854TIP3    H223978   3.827   6.584  12.552 -0.6304  0.5631 -0.1564
  855TIP3   OH223979   4.136   0.209  12.175  0.4493  0.1310  0.4277
  855TIP3    H123980   4.083   0.153  12.232 -1.3084  0.3176 -0.9834
  855TIP3    H223981   4.217   0.159  12.161  0.8829  0.0432  2.9589
  856TIP3   OH223982   1.823   1.368  16.276  0.1134 -0.3262 -0.3548
  856TIP3    H123983   1.818   1.279  16.242 -0.6080  0.6039 -2.7704
  856TIP3    H223984   1.732   1.397  16.279  0.3261  0.2628  0.6576
  857TIP3   OH223985   5.991   1.141  13.107 -0.0614  0.4513 -0.2211
  857TIP3    H123986   6.041   1.085  13.166 -1.3448  0.8721  1.3105
  857TIP3    H223987   6.056   1.177  13.046  1.3633  0.3499  1.2088
  858TIP3   OH223988   5.285   2.483   3.856 -0.4930  0.3916  1.0063
  858TIP3    H123989   5.234   2.484   3.937  1.6934 -3.2268  2.5529
  858TIP3    H223990   5.369   2.520   3.880 -0.4367  1.0220 -0.1075
  859TIP3   OH223991   5.632   6.649   2.853 -0.2412  0.0797  0.5194
  859TIP3    H123992   5.591   6.721   2.901 -1.5987 -1.3855  1.5860
  859TIP3    H223993   5.637   6.578   2.916  2.2034 -0.4089 -0.1639
  860TIP3   OH223994   0.729   2.985   4.114 -0.4944  0.1850  0.3383
  860TIP3    H123995   0.675   3.060   4.138  0.6533  2.7233 -4.3616
  860TIP3    H223996   0.818   3.011   4.135 -0.2304 -0.5356  0.1523
  861TIP3   OH223997   4.141   2.301   5.250 -0.2464 -0.5584 -0.0844
  861TIP3    H123998   4.051   2.267   5.244 -0.8061  0.7437  0.5878
  861TIP3    H223999   4.147   2.363   5.177 -0.2376  0.0980  0.4697
  862TIP3   OH224000   0.964   0.929   5.621 -0.4025 -0.0288  0.1388
  862TIP3    H124001   1.024   0.928   5.546 -1.2657  0.1316 -0.5639
  862TIP3    H224002   0.894   0.868   5.596 -1.7523  1.5854 -0.0628
  863TIP3   OH224003   3.160   1.313  13.345  0.0225 -0.0773  0.5947
  863TIP3    H124004   3.072   1.350  13.344  0.1199  0.3361  3.3989
  863TIP3    H224005   3.156   1.240  13.284 -2.3548 -0.2763  0.9529
  864TIP3   OH224006   0.402   0.583   5.637  0.5115 -0.1243 -0.4406
  864TIP3    H124007   0.309   0.585   5.613  0.4288 -0.4569 -0.1509
  864TIP3    H224008   0.441   0.654   5.587 -0.1383  0.8250  0.3749
  865TIP3   OH224009   2.307   4.320  13.995 -0.1044 -0.2663  0.0412
  865TIP3    H124010   2.311   4.343  13.902 -2.2546  0.0311 -0.0118
  865TIP3    H224011   2.218   4.284  14.006 -0.2081  0.6239  2.1816
  866TIP3   OH224012   4.138   5.008  12.205 -0.9118 -0.1024  0.4628
  866TIP3    H124013   4.222   5.029  12.246  0.5745 -1.2698 -1.8763
  866TIP3    H224014   4.090   4.958  12.271  1.1523 -1.3819  1.0226
  867TIP3   OH224015   0.716   5.076  14.867  0.3539  0.0517  0.4182
  867TIP3    H124016   0.642   5.030  14.906  1.0618 -0.6526  0.9458
  867TIP3    H224017   0.684   5.166  14.853 -0.2190  0.0624  1.7382
  868TIP3   OH224018   0.876   3.408   1.609 -0.0914 -0.0799 -0.3704
  868TIP3    H124019   0.924   3.325   1.613  0.4117  0.1473 -1.3889
  868TIP3    H224020   0.908   3.458   1.684 -0.4628 -0.8464  0.2931
  869TIP3   OH224021   3.999   0.776  16.518  0.6378 -0.6289  0.4021
  869TIP3    H124022   3.942   0.819  16.582 -0.9374 -1.0671 -0.6742
  869TIP3    H224023   4.073   0.835  16.508  0.0377  0.2929  1.3252
  870TIP3   OH224024   2.471   6.091   5.300  0.0361 -0.5866 -0.2879
  870TIP3    H124025   2.543   6.036   5.272 -0.6528 -1.4567 -0.3645
  870TIP3    H224026   2.413   6.033   5.350 -0.4748  0.1589  0.0131
  871TIP3   OH224027   0.654   2.430  13.414  0.0570 -0.0850  0.3489
  871TIP3    H124028   0.625   2.352  13.366  1.1337  0.0497 -0.5553
  871TIP3    H224029   0.616   2.503  13.366 -1.2597 -0.0626  1.4195
  872TIP3   OH224030   3.285   1.510  11.717 -0.0082  0.4699  0.6238
  872TIP3    H124031   3.254   1.549  11.635  2.7117 -0.4494 -0.9029
  872TIP3    H224032   3.338   1.578  11.758  0.7214  0.0781  0.3470
  873TIP3   OH224033   6.568   6.357   5.344 -0.1707 -0.2807  0.8955
  873TIP3    H124034   6.584   6.297   5.417 -1.9439 -1.4415  0.3768
  873TIP3    H224035   6.654   6.373   5.306  0.2577 -2.9122  0.7259
  874TIP3   OH224036   4.255   3.370  13.848  0.5777  0.0354  0.4365
  874TIP3    H124037   4.209   3.418  13.779  0.2836  0.2683  0.7922
  874TIP3    H224038   4.281   3.437  13.910 -1.8043 -0.4903  2.0829
  875TIP3   OH224039   0.076   1.914   0.172  0.0938 -0.1239  0.1658
  875TIP3    H124040   0.017   1.958   0.233  0.5285 -1.9575  1.9649
  875TIP3    H224041   0.153   1.970   0.169 -0.3124  0.4674  0.5521
  876TIP3   OH224042   3.967   0.984  10.613  0.2568 -0.2978  0.1190
  876TIP3    H124043   4.036   1.047  10.636 -0.2133  0.4011 -0.3851
  876TIP3    H224044   3.922   0.967  10.696 -0.9408  1.6301 -0.1039
  877TIP3   OH224045   1.537   5.005  11.251 -0.0205  0.5652  0.2857
  877TIP3    H124046   1.577   4.998  11.337  0.9662  2.2573 -0.0060
  877TIP3    H224047   1.444   4.990  11.266 -0.0234  1.9473  1.8364
  878TIP3   OH224048   5.197   5.091  16.501 -0.1313  0.4352 -0.2323
  878TIP3    H124049   5.179   5.177  16.539  0.1471  0.3427  0.1153
  878TIP3    H224050   5.196   5.031  16.575  0.0232  0.1908 -0.4244
  879TIP3   OH224051   6.339   6.196  13.117 -0.2332  0.1784 -0.1237
  879TIP3    H124052   6.344   6.196  13.213  0.6430  0.6312 -0.1663
  879TIP3    H224053   6.248   6.220  13.098  0.1695  2.3232  0.5713
  880TIP3   OH224054   3.912   5.807  14.889 -0.6218 -0.0284 -0.3310
  880TIP3    H124055   3.884   5.895  14.913 -0.1645 -0.1116  0.5515
  880TIP3    H224056   3.909   5.758  14.972  1.7269 -0.1314 -0.2729
  881TIP3   OH224057   0.304   3.360   2.385  0.5725 -0.4139  0.4729
  881TIP3    H124058   0.260   3.358   2.470 -1.1785  0.1693 -0.3849
  881TIP3    H224059   0.364   3.434   2.391  0.6054 -0.4952  1.2708
  882TIP3   OH224060   3.685   4.110   5.632 -0.1283 -0.8573 -0.3774
  882TIP3    H124061   3.614   4.143   5.576 -0.0145 -0.3844 -0.2428
  882TIP3    H224062   3.640   4.074   5.708 -0.1298  1.2720  0.6544
  883TIP3   OH224063   3.497   4.792  12.089  0.3351 -0.0599 -0.7843
  883TIP3    H124064   3.494   4.745  12.006  0.3563 -1.5214  0.0310
  883TIP3    H224065   3.514   4.725  12.155 -6.3897 -0.1133  1.2905
  884TIP3   OH224066   0.362   5.085   0.389  0.2900  0.4577  0.7479
  884TIP3    H124067   0.307   5.085   0.311  0.8765 -0.4259  0.3332
  884TIP3    H224068   0.317   5.144   0.450 -0.1817  1.1318 -0.2396
  885TIP3   OH224069   6.147   4.309  14.085 -0.2971 -0.0277 -0.3476
  885TIP3    H124070   6.062   4.350  14.069  0.1208  1.2039  0.5306
  885TIP3    H224071   6.192   4.313  14.001 -0.3582  1.1049 -0.3316
  886TIP3   OH224072   1.393   2.164  16.684 -0.2034  0.3104 -0.0673
  886TIP3    H124073   1.336   2.232  16.647  0.8281 -0.2451 -2.8590
  886TIP3    H224074   1.475   2.210  16.705  0.6321 -0.0725 -2.3155
  887TIP3   OH224075   4.875   2.546  15.492  0.1819 -0.2683  0.0186
  887TIP3    H124076   4.859   2.513  15.404 -0.0507  0.2866 -0.1463
  887TIP3    H224077   4.969   2.534  15.505  0.1130 -0.9305 -0.0659
  888TIP3   OH224078   1.224   5.201   4.709  0.1876  0.4849 -0.6698
  888TIP3    H124079   1.308   5.233   4.675  1.7641 -1.0441  1.6061
  888TIP3    H224080   1.208   5.255   4.786 -0.2517 -0.0779 -0.3667
  889TIP3   OH224081   6.401   0.990  16.568  0.8868  0.0735 -0.1141
  889TIP3    H124082   6.444   1.069  16.600  0.9611 -0.6977  1.7788
  889TIP3    H224083   6.404   0.930  16.642 -0.1292 -1.3237 -1.1802
  890TIP3   OH224084   6.600   3.273  12.313 -0.2515 -0.4824 -0.2010
  890TIP3    H124085   6.667   3.287  12.246 -1.7197  0.9149 -1.4099
  890TIP3    H224086   6.576   3.181  12.305  0.8289 -0.7520 -0.3965
  891TIP3   OH224087   2.779   6.393   2.516 -0.2875 -0.2957 -0.2017
  891TIP3    H124088   2.814   6.344   2.442  0.4520 -2.4073  1.4788
  891TIP3    H224089   2.845   6.383   2.585 -1.4122  0.7606  1.0646
  892TIP3   OH224090   3.031   6.233   3.120  0.1784 -0.0578 -0.3951
  892TIP3    H124091   3.030   6.182   3.201 -1.9939  0.6955  0.0954
  892TIP3    H224092   3.094   6.303   3.136  2.2087 -1.7909 -0.5923
  893TIP3   OH224093   1.874   4.215  15.378  0.0545 -0.7054 -0.2090
  893TIP3    H124094   1.796   4.195  15.431 -0.2249 -0.3314 -0.4807
  893TIP3    H224095   1.933   4.142  15.396  0.0794 -0.4424  0.8526
  894TIP3   OH224096   3.006   6.714   5.805  0.6777 -0.2215  0.1648
  894TIP3    H124097   2.945   6.658   5.758 -0.1854 -0.5213  1.6271
  894TIP3    H224098   2.972   6.803   5.792  0.8801 -0.2261 -0.4170
  895TIP3   OH224099   5.112   0.917   1.135 -0.0821 -0.4860  0.3008
  895TIP3    H124100   5.022   0.890   1.149  0.0007 -0.3319  1.1788
  895TIP3    H224101   5.127   0.986   1.200  0.9005 -1.0613  0.7189
  896TIP3   OH224102   0.222   0.394  16.432  0.0616  0.3247  0.5413
  896TIP3    H124103   0.164   0.439  16.371 -0.7976 -1.6948 -0.1963
  896TIP3    H224104   0.206   0.435  16.517 -2.0421  0.1586  0.2432
  897TIP3   OH224105   1.975   2.021  10.412  0.3134 -0.1278 -1.0423
  897TIP3    H124106   2.034   2.091  10.440 -2.1008  1.0102  1.4816
  897TIP3    H224107   1.996   1.947  10.470  0.8515 -0.5418 -1.7485
  898TIP3   OH224108   2.498   0.885  12.062 -0.0374  0.3091  0.2973
  898TIP3    H124109   2.407   0.897  12.088  0.7706  0.5735  3.1671
  898TIP3    H224110   2.500   0.801  12.016 -1.8151  0.6018 -0.3420
  899TIP3   OH224111   5.107   0.558   2.552 -0.4013  0.3559 -0.6373
  899TIP3    H124112   5.041   0.497   2.586 -2.4111  2.0665 -1.3782
  899TIP3    H224113   5.061   0.607   2.484  0.6056  3.9913  1.1860
  900TIP3   OH224114   4.809   4.593   3.740 -0.3098 -0.1794  0.4618
  900TIP3    H124115   4.865   4.582   3.816  0.0034  1.5695  0.4998
  900TIP3    H224116   4.721   4.602   3.776 -0.7443 -3.3121  0.3846
  901TIP3   OH224117   6.199   6.176   4.086  0.2560  0.7976 -0.1234
  901TIP3    H124118   6.203   6.249   4.147  1.5442 -0.9495  1.9415
  901TIP3    H224119   6.288   6.169   4.050 -0.0088  0.6150 -0.7575
  902TIP3   OH224120   5.299   4.903   1.712 -0.5414 -0.5203 -0.3535
  902TIP3    H124121   5.305   4.939   1.623 -1.6659 -0.1366 -0.2849
  902TIP3    H224122   5.373   4.844   1.719  1.0707  1.3908 -0.6679
  903TIP3   OH224123   5.257   2.088   2.007 -0.3053  0.5176  1.0874
  903TIP3    H124124   5.180   2.092   2.064 -0.0474  0.1862  1.4600
  903TIP3    H224125   5.225   2.118   1.922 -0.5701  1.5248  1.5322
  904TIP3   OH224126   6.056   6.510   3.719 -0.3260 -0.0654 -0.6882
  904TIP3    H124127   6.116   6.566   3.769 -0.8206 -0.6448  0.5841
  904TIP3    H224128   6.049   6.431   3.772 -3.1950  0.4928 -0.1659
  905TIP3   OH224129   3.011   2.431   0.640  0.3636 -0.0111  0.9438
  905TIP3    H124130   2.998   2.475   0.556  0.2862  0.6487  1.3037
  905TIP3    H224131   2.968   2.346   0.629 -0.4504  0.4398  0.6447
  906TIP3   OH224132   5.163   1.288  14.161 -0.3306 -0.4645 -0.1015
  906TIP3    H124133   5.092   1.233  14.191 -1.9166  2.1627  1.1618
  906TIP3    H224134   5.138   1.314  14.072 -1.1115  0.6364  0.4218
  907TIP3   OH224135   4.361   5.525   5.881  1.0880  0.2166  0.3053
  907TIP3    H124136   4.373   5.447   5.935 -0.8589 -0.4559 -0.1756
  907TIP3    H224137   4.266   5.541   5.883  0.8307 -0.2315 -3.3882
  908TIP3   OH224138   5.018   5.385   5.172 -0.1033 -0.6275  0.1481
  908TIP3    H124139   4.980   5.300   5.198  0.7317 -1.3051 -0.8242
  908TIP3    H224140   5.002   5.391   5.078  0.1344  0.1499  0.1533
  909TIP3   OH224141   1.396   2.020   5.561 -0.9527  0.2294  0.3524
  909TIP3    H124142   1.403   2.091   5.625 -0.8964  0.0036  0.5979
  909TIP3    H224143   1.431   2.057   5.480 -0.5168  0.3395  0.5897
  910TIP3   OH224144   5.654   2.971   4.711 -0.6250  0.0782  0.1743
  910TIP3    H124145   5.593   3.011   4.650  0.1284  1.1404  0.1014
  910TIP3    H224146   5.631   3.008   4.796  1.3704  2.2819 -0.1849
  911TIP3   OH224147   5.386   3.487  10.343 -0.3796  1.2806 -0.3400
  911TIP3    H124148   5.469   3.515  10.304 -0.7006  2.8949  0.1138
  911TIP3    H224149   5.319   3.528  10.288 -0.8920 -0.2269 -0.8569
  912TIP3   OH224150   3.936   5.205   5.063 -0.4229 -1.0569  0.3355
  912TIP3    H124151   3.957   5.207   4.970  0.4377 -1.9901  0.5030
  912TIP3    H224152   3.869   5.136   5.071 -0.5416 -0.9344  0.4027
  913TIP3   OH224153   4.186   6.781  10.322  0.1857  0.3175  0.1188
  913TIP3    H124154   4.140   6.771  10.405  0.1715 -1.3637 -0.0721
  913TIP3    H224155   4.279   6.769  10.344  0.2081  0.1532 -0.0633
  914TIP3   OH224156   5.207   4.780   5.176 -0.4476  0.0630 -0.1157
  914TIP3    H124157   5.295   4.743   5.182 -0.2691  0.4088 -0.6269
  914TIP3    H224158   5.170   4.769   5.263 -0.0509 -0.4739 -0.0162
  915TIP3   OH224159   5.213   6.187   4.578 -0.1774 -0.2178 -0.2445
  915TIP3    H124160   5.268   6.242   4.523 -0.7971  0.3805 -0.2658
  915TIP3    H224161   5.182   6.245   4.648  0.5313 -0.9481  0.6940
  916TIP3   OH224162   5.979   0.491  17.232 -0.0667 -0.2458  0.9056
  916TIP3    H124163   6.020   0.548  17.168 -0.1345 -0.9958  0.1893
  916TIP3    H224164   6.026   0.408  17.224 -1.2384 -0.8860  0.5865
  917TIP3   OH224165   2.405   2.693   2.106  0.0899  0.2674  0.2899
  917TIP3    H124166   2.379   2.732   2.189  1.3679  1.8642 -0.0388
  917TIP3    H224167   2.325   2.691   2.054 -0.1874  1.5737  0.6581
  918TIP3   OH224168   5.059   4.130   3.022 -0.0820  0.1448  0.6958
  918TIP3    H124169   5.154   4.121   3.034  0.1914  1.4826 -0.4126
  918TIP3    H224170   5.030   4.173   3.102  0.6954  2.4414 -0.2165
  919TIP3   OH224171   5.213   3.964  14.982  0.0745 -0.0847 -0.5592
  919TIP3    H124172   5.171   3.887  14.944 -1.1265  0.9717 -1.4026
  919TIP3    H224173   5.147   4.001  15.040  0.8908 -0.0644  0.3699
  920TIP3   OH224174   0.769   5.618   0.212 -0.1479 -0.3111  0.6039
  920TIP3    H124175   0.813   5.694   0.250 -0.5432  0.2353 -0.0296
  920TIP3    H224176   0.840   5.559   0.187  0.2847  0.9523 -1.2382
  921TIP3   OH224177   2.658   2.436   4.956 -0.1152  0.2065  0.3169
  921TIP3    H124178   2.747   2.430   4.921  0.1354 -0.7621  1.1045
  921TIP3    H224179   2.661   2.510   5.016 -0.3880  1.4868 -1.1955
  922TIP3   OH224180   0.508   5.339   3.556  0.0000 -0.4806  0.7038
  922TIP3    H124181   0.458   5.416   3.529  1.3226 -0.4403 -1.6891
  922TIP3    H224182   0.466   5.267   3.509  1.3534 -0.6290 -0.2907
  923TIP3   OH224183   6.617   0.769  17.151  0.2455  0.1172 -0.1583
  923TIP3    H124184   6.682   0.767  17.221 -1.2935 -0.3572  1.3133
  923TIP3    H224185   6.549   0.829  17.183 -2.3352 -3.0199  0.5047
  924TIP3   OH224186   2.965   2.799   1.892  0.3599 -0.1359 -0.1056
  924TIP3    H124187   3.041   2.782   1.836  2.2453 -0.4576  2.4569
  924TIP3    H224188   2.984   2.884   1.933 -1.0646  0.1656 -0.0452
  925TIP3   OH224189   6.334   2.345   2.922  0.2789  0.3406  1.0591
  925TIP3    H124190   6.395   2.329   2.994 -1.1552 -0.3704  2.1491
  925TIP3    H224191   6.247   2.326   2.959 -0.2981 -2.6018 -1.5865
  926TIP3   OH224192   4.557   4.827   0.577  0.2111 -0.1781 -0.6028
  926TIP3    H124193   4.643   4.864   0.557  0.8157 -0.3373  1.5690
  926TIP3    H224194   4.498   4.867   0.513  1.5721  1.4310 -0.8752
  927TIP3   OH224195   1.662   2.539  16.099 -0.2286 -0.0989 -0.3261
  927TIP3    H124196   1.603   2.545  16.173  0.2607  2.1791 -0.0693
  927TIP3    H224197   1.737   2.594  16.123  1.6225 -2.2590 -0.9829
  928TIP3   OH224198   6.760   0.260   2.339 -0.7186  0.1949 -0.8126
  928TIP3    H124199   6.699   0.187   2.351  1.6008 -1.3374  2.2606
  928TIP3    H224200   6.725   0.328   2.397  0.6162 -0.8121  1.2277
  929TIP3   OH224201   3.262   5.442  14.690 -0.1116 -0.5028 -0.1767
  929TIP3    H124202   3.224   5.433  14.603 -0.9795  2.1413 -0.1363
  929TIP3    H224203   3.199   5.401  14.749 -1.3930  1.0037 -0.4508
  930TIP3   OH224204   6.026   0.541   5.297 -0.2948 -0.4107  0.1474
  930TIP3    H124205   6.086   0.533   5.371 -0.3817  0.1085  0.2713
  930TIP3    H224206   6.065   0.486   5.229  0.0312 -0.5144  0.4179
  931TIP3   OH224207   0.912   3.346   3.898 -1.0117  0.4975  0.6654
  931TIP3    H124208   0.941   3.257   3.882  2.9637  1.8021  0.0155
  931TIP3    H224209   0.861   3.369   3.820  0.9272 -0.0397 -0.7872
  932TIP3   OH224210   1.088   0.331  13.992 -0.6211 -0.7088 -0.1389
  932TIP3    H124211   1.134   0.250  14.013  0.1735 -0.1504  0.3301
  932TIP3    H224212   1.108   0.346  13.899  0.6736 -0.1450  0.2209
  933TIP3   OH224213   6.305   3.162  13.187  0.2465 -0.2965  0.3607
  933TIP3    H124214   6.338   3.121  13.107 -0.6299 -1.0156  0.3623
  933TIP3    H224215   6.368   3.232  13.206  0.7149 -0.4261 -0.6920
  934TIP3   OH224216   1.636   4.566  16.541  0.0241  0.5125 -1.2213
  934TIP3    H124217   1.577   4.505  16.586  1.5075 -0.1038 -0.0780
  934TIP3    H224218   1.577   4.624  16.493 -1.4492 -1.4552 -1.8915
  935TIP3   OH224219   1.480   5.194  15.786 -0.5380  0.0248 -0.0189
  935TIP3    H124220   1.469   5.222  15.877 -3.1244 -0.2989 -0.2005
  935TIP3    H224221   1.432   5.259  15.735  0.4542 -0.0966 -1.1439
  936TIP3   OH224222   5.857   1.893  15.061  0.2601 -0.0858 -0.2463
  936TIP3    H124223   5.843   1.909  14.967 -0.0457  1.0614 -0.0239
  936TIP3    H224224   5.838   1.800  15.073  1.5558 -0.5198 -1.5416
  937TIP3   OH224225   1.524   2.605  14.402  0.5339 -0.2876  0.5786
  937TIP3    H124226   1.582   2.678  14.379  0.0198 -0.4328 -1.3363
  937TIP3    H224227   1.576   2.550  14.461  1.7808  0.4030  0.1405
  938TIP3   OH224228   4.792   2.099  15.212 -0.5875 -0.2158  0.1396
  938TIP3    H124229   4.742   2.180  15.202 -0.2557 -0.2915 -2.3063
  938TIP3    H224230   4.881   2.128  15.232 -0.7704 -0.0184  0.6892
  939TIP3   OH224231   1.511   3.879  16.764  0.4894 -0.0992 -0.2088
  939TIP3    H124232   1.482   3.872  16.855  0.1783 -1.0964 -0.3872
  939TIP3    H224233   1.447   3.831  16.714  1.9991 -1.6492 -0.6984
  940TIP3   OH224234   0.194   3.169  11.262  0.3278 -0.5431  0.3802
  940TIP3    H124235   0.201   3.262  11.286 -1.1129  0.2678 -2.1134
  940TIP3    H224236   0.104   3.146  11.283  0.5715 -1.2578  0.6341
  941TIP3   OH224237   5.066   2.595  13.102  0.7728 -0.0767  0.4453
  941TIP3    H124238   4.981   2.633  13.081  1.0365  1.0930  1.4714
  941TIP3    H224239   5.048   2.502  13.119  0.1964 -0.5436 -2.4939
  942TIP3   OH224240   1.602   4.795   0.910 -0.2209  0.0783 -0.3924
  942TIP3    H124241   1.635   4.839   0.988 -0.3639 -1.9696  0.8637
  942TIP3    H224242   1.530   4.851   0.880  0.5828  1.4880  0.2356
  943TIP3   OH224243   2.792   5.969  11.848 -0.0752  0.0773  0.1944
  943TIP3    H124244   2.795   5.982  11.943 -0.2687 -0.6900  0.3049
  943TIP3    H224245   2.878   5.997  11.817  0.3021 -0.5105  0.7074
  944TIP3   OH224246   2.161   2.016  13.729 -0.6455  0.3933  0.3420
  944TIP3    H124247   2.205   1.975  13.804 -1.9152 -0.7282  0.4901
  944TIP3    H224248   2.215   1.991  13.654 -0.2356  0.2282  0.6850
  945TIP3   OH224249   3.505   1.807   0.754 -0.0083 -1.1027 -0.1773
  945TIP3    H124250   3.417   1.789   0.719 -0.2754 -1.1034  0.4966
  945TIP3    H224251   3.523   1.897   0.729  0.7523 -1.7983 -2.3359
  946TIP3   OH224252   2.909   5.420   2.607 -0.0381  0.0756 -0.4507
  946TIP3    H124253   2.913   5.515   2.620  0.4424  0.3945 -2.6904
  946TIP3    H224254   2.888   5.410   2.514 -0.5990 -2.0185 -0.1107
  947TIP3   OH224255   3.269   3.390   1.584  0.4371  0.2567  0.2654
  947TIP3    H124256   3.189   3.437   1.607  0.2538  0.3734 -0.5847
  947TIP3    H224257   3.247   3.297   1.592 -0.0223  0.2746 -0.7275
  948TIP3   OH224258   0.159   3.458   1.356  0.2385  0.4348 -0.6350
  948TIP3    H124259   0.137   3.444   1.448 -1.6221 -1.6010 -1.3388
  948TIP3    H224260   0.254   3.469   1.355  0.1256  2.2096  1.6974
  949TIP3   OH224261   5.890   1.130   0.569  0.0596 -0.0832  0.1679
  949TIP3    H124262   5.927   1.209   0.529  1.0301 -0.3476  0.5349
  949TIP3    H224263   5.807   1.116   0.523 -0.6630  1.7864  0.8626
  950TIP3   OH224264   2.618   6.122  11.643  0.2164  0.8449  0.5087
  950TIP3    H124265   2.673   6.044  11.628 -0.6717  0.0113  1.5355
  950TIP3    H224266   2.528   6.089  11.640 -0.1316  1.5260  2.5844
  951TIP3   OH224267   2.637   2.395  17.175  0.0076  0.2035  0.1530
  951TIP3    H124268   2.600   2.360  17.094 -0.9628 -0.9255  1.0711
  951TIP3    H224269   2.647   2.318  17.232  1.5774  0.8444  0.7617
  952TIP3   OH224270   5.349   1.327   1.226 -0.2686  0.6388 -0.0954
  952TIP3    H124271   5.264   1.314   1.185  0.4301  0.0915 -1.4033
  952TIP3    H224272   5.359   1.422   1.231 -0.5890  0.7099 -0.7207
  953TIP3   OH224273   6.201   0.045   5.344 -0.7361  0.4547  0.1381
  953TIP3    H124274   6.220  -0.012   5.418 -0.5960  0.5481  0.1742
  953TIP3    H224275   6.107   0.062   5.351 -0.6207  0.9062  0.6131
  954TIP3   OH224276   0.579   5.273  15.257  0.4157  0.9305  0.9263
  954TIP3    H124277   0.507   5.257  15.195  0.8602  2.4112 -0.0184
  954TIP3    H224278   0.577   5.198  15.316 -1.2022  0.3933  0.2354
  955TIP3   OH224279   5.168   4.368   0.214 -0.8073 -0.2937  0.0922
  955TIP3    H124280   5.072   4.376   0.220 -0.8827 -1.5694  0.8332
  955TIP3    H224281   5.190   4.299   0.276  0.5528 -0.3783 -0.4653
  956TIP3   OH224282   0.144   4.667  13.192 -0.4190  0.1001 -0.3273
  956TIP3    H124283   0.217   4.609  13.170  0.3580  0.9813 -0.0828
  956TIP3    H224284   0.185   4.750  13.215 -1.3920  0.0777  1.5561
  957TIP3   OH224285   5.810   3.349   6.527 -0.3008 -0.2845  0.0151
  957TIP3    H124286   5.791   3.386   6.441 -1.0453  0.2389  0.3980
  957TIP3    H224287   5.870   3.412   6.567  0.0923 -0.5574 -0.1420
  958TIP3   OH224288   2.416   2.018   1.254  0.3187  0.3650 -0.0219
  958TIP3    H124289   2.472   2.003   1.329 -0.5168 -0.4288  0.4456
  958TIP3    H224290   2.413   1.934   1.208  1.5197  1.0617 -1.4353
  959TIP3   OH224291   0.819   0.491   2.903  0.4275 -0.2046  0.1655
  959TIP3    H124292   0.908   0.469   2.931 -0.0978  0.0276  2.1255
  959TIP3    H224293   0.803   0.578   2.940 -0.5345 -0.1566 -0.3408
  960TIP3   OH224294   5.236   5.200   0.687 -0.2876  0.7073 -0.1646
  960TIP3    H124295   5.277   5.207   0.601  0.8245 -1.2892  0.1741
  960TIP3    H224296   5.171   5.131   0.679 -1.3045  1.5988  0.1954
  961TIP3   OH224297   1.652   4.066   1.369  0.6201  0.0846  0.2675
  961TIP3    H124298   1.747   4.075   1.381  0.8487 -1.3825 -0.2421
  961TIP3    H224299   1.640   3.973   1.351 -0.7427  0.5784 -1.4259
  962TIP3   OH224300   1.653   5.204   1.672  0.7816  0.1329 -0.1522
  962TIP3    H124301   1.584   5.214   1.738  0.1370  0.0917 -0.8034
  962TIP3    H224302   1.726   5.256   1.705  1.2565 -1.6423  1.6532
  963TIP3   OH224303   3.419   6.299   3.707 -0.0135 -0.0595 -0.0774
  963TIP3    H124304   3.432   6.309   3.612  2.8229 -1.3474  0.1244
  963TIP3    H224305   3.496   6.249   3.736 -0.3630  1.1634  3.0678
  964TIP3   OH224306   4.921   4.523   3.989  0.4480  0.6260  0.2578
  964TIP3    H124307   5.009   4.487   3.992  0.2476  0.1196  0.1926
  964TIP3    H224308   4.864   4.446   3.987  0.0241  0.9473 -0.1714
  965TIP3   OH224309   2.030   0.731   3.170  0.3135 -0.0015  0.0961
  965TIP3    H124310   1.973   0.656   3.154 -1.0141  1.2805 -1.3240
  965TIP3    H224311   2.046   0.729   3.265 -0.7365 -1.3287  0.2629
  966TIP3   OH224312   0.979   3.657   2.809  0.6671 -0.4639 -0.4554
  966TIP3    H124313   0.887   3.680   2.828  0.2866 -1.5636 -0.9477
  966TIP3    H224314   1.020   3.741   2.787 -0.0481  0.1404  0.4271
  967TIP3   OH224315   0.495   0.517  12.529  0.0879 -0.0851 -0.6915
  967TIP3    H124316   0.426   0.477  12.582  0.8245 -0.3476  0.0874
  967TIP3    H224317   0.466   0.607  12.516 -0.7126 -0.3769 -0.9146
  968TIP3   OH224318   4.275   0.279   4.851 -0.2968  0.2270  0.4773
  968TIP3    H124319   4.199   0.336   4.861 -1.1726 -0.5717 -1.3916
  968TIP3    H224320   4.350   0.335   4.874 -1.2169  1.8192 -0.3268
  969TIP3   OH224321   2.541   5.783  11.190  0.3453 -0.1101 -0.6470
  969TIP3    H124322   2.517   5.692  11.210  0.8132  0.1185  0.9818
  969TIP3    H224323   2.603   5.775  11.117 -0.8666 -0.9829 -1.6141
  970TIP3   OH224324   6.597   5.442  16.049 -0.1485  0.2094  0.3057
  970TIP3    H124325   6.570   5.508  15.985 -0.1800 -1.1766 -1.1387
  970TIP3    H224326   6.524   5.381  16.053 -0.1406  0.2816  1.6798
  971TIP3   OH224327   0.989   1.583  14.210  0.4889 -0.0239  0.5481
  971TIP3    H124328   0.951   1.600  14.123 -0.9495 -0.7061  1.0295
  971TIP3    H224329   1.074   1.543  14.191  0.4767  0.4356 -0.5521
  972TIP3   OH224330   4.877   0.917  16.678  0.7852  0.3510 -0.0164
  972TIP3    H124331   4.823   0.948  16.606  0.0022 -1.2739 -0.1501
  972TIP3    H224332   4.821   0.925  16.755  0.8884  0.1267  0.0827
  973TIP3   OH224333   1.160   6.139  16.921 -0.0492  0.3128  0.0260
  973TIP3    H124334   1.131   6.061  16.872 -0.8525  0.0960  0.8498
  973TIP3    H224335   1.244   6.113  16.959  0.4075  0.3568 -0.9094
  974TIP3   OH224336   3.133   4.723   3.063 -0.3994 -0.0061 -0.4900
  974TIP3    H124337   3.147   4.817   3.049 -2.0479  0.1960 -0.8943
  974TIP3    H224338   3.112   4.689   2.976 -0.2578 -0.6742 -0.2664
  975TIP3   OH224339   6.417   1.678   5.671  0.0743 -0.6286 -0.5393
  975TIP3    H124340   6.393   1.590   5.699  2.8729 -0.9959  0.7950
  975TIP3    H224341   6.499   1.667   5.623  1.2646  1.4388  0.9678
  976TIP3   OH224342   3.230   3.364   3.695  0.9187 -0.1614  0.4425
  976TIP3    H124343   3.224   3.286   3.749 -1.5404 -0.1698  0.2510
  976TIP3    H224344   3.147   3.410   3.711  0.5915  0.3751 -2.4370
  977TIP3   OH224345   6.634   6.546  14.310 -0.8440 -0.2627 -0.7435
  977TIP3    H124346   6.689   6.611  14.353 -2.0559 -0.2707  0.8316
  977TIP3    H224347   6.668   6.462  14.339 -1.6879 -0.2676  0.2551
  978TIP3   OH224348   4.524   0.213  11.949  0.2379 -0.2437 -0.0368
  978TIP3    H124349   4.488   0.124  11.948 -2.6978  0.8746  0.5731
  978TIP3    H224350   4.516   0.243  11.858  1.6850 -0.7521 -0.3437
  979TIP3   OH224351   3.413   5.690  13.358  0.1719 -0.2563 -0.1896
  979TIP3    H124352   3.448   5.776  13.337 -1.0021 -0.1344 -1.7493
  979TIP3    H224353   3.363   5.703  13.439 -0.6298  0.6982 -0.8256
  980TIP3   OH224354   3.584   3.720   0.672  0.1727 -0.3606 -0.5458
  980TIP3    H124355   3.583   3.784   0.743 -0.5017  2.3447 -2.9150
  980TIP3    H224356   3.497   3.679   0.676  0.2462 -0.4443  0.3493
  981TIP3   OH224357   2.667   0.169   2.700  0.2869  0.2250 -0.5815
  981TIP3    H124358   2.732   0.098   2.707 -0.9167 -0.6505  2.6463
  981TIP3    H224359   2.585   0.124   2.681 -0.4942  0.7112  1.5170
  982TIP3   OH224360   1.744   5.442   1.046  0.0527 -0.0459 -0.5773
  982TIP3    H124361   1.764   5.359   1.088 -1.2223 -1.0426 -1.8927
  982TIP3    H224362   1.653   5.459   1.069  0.1133  0.6641 -0.8485
  983TIP3   OH224363   2.183   1.426  12.853  1.1293 -0.1175 -0.0675
  983TIP3    H124364   2.130   1.357  12.814  2.4418 -1.7197  0.9548
  983TIP3    H224365   2.205   1.394  12.940 -0.2224  2.6276  1.3771
  984TIP3   OH224366   4.867   0.318  11.867  0.1460  0.2002  0.2043
  984TIP3    H124367   4.817   0.391  11.831 -2.0466 -0.4348  1.8503
  984TIP3    H224368   4.948   0.318  11.817 -0.5557  2.6514 -1.0300
  985TIP3   OH224369   0.048   6.621  13.381 -0.0143 -0.1191  0.6032
  985TIP3    H124370   0.014   6.620  13.471 -0.6864  3.0548  0.4470
  985TIP3    H224371  -0.029   6.604  13.327  0.3859 -2.0009  0.6002
  986TIP3   OH224372   5.413   3.098  14.080  0.2241 -0.6644 -0.5477
  986TIP3    H124373   5.444   3.119  13.992  1.0333  1.1861  0.1516
  986TIP3    H224374   5.460   3.159  14.138 -0.9481 -1.2448  1.0678
  987TIP3   OH224375   2.111   1.019  14.633 -0.2481 -0.4051 -0.3217
  987TIP3    H124376   2.148   1.018  14.544 -0.1768  1.3781 -0.3412
  987TIP3    H224377   2.187   1.010  14.691 -0.1939 -0.6521 -0.4322
  988TIP3   OH224378   2.586   2.145   4.685  0.7457  0.2178 -0.4188
  988TIP3    H124379   2.604   2.223   4.633  1.6166  0.9455  0.9564
  988TIP3    H224380   2.514   2.171   4.743  1.5133  0.2246  0.5353
  989TIP3   OH224381   0.845   5.615  11.531 -0.3878  0.0919 -0.2374
  989TIP3    H124382   0.769   5.559  11.544  0.5670 -1.2161 -0.2907
  989TIP3    H224383   0.807   5.701  11.510 -1.8482 -0.6037 -0.5240
  990TIP3   OH224384   6.575   5.184  13.522  0.1185  0.0322  0.0178
  990TIP3    H124385   6.645   5.229  13.570  1.5310 -0.7466 -1.2760
  990TIP3    H224386   6.501   5.184  13.583  0.8921  1.8212  1.0015
  991TIP3   OH224387   0.958   2.749  12.801 -0.0580 -0.0638 -0.0028
  991TIP3    H124388   1.010   2.764  12.722  1.8060  0.1545  1.2396
  991TIP3    H224389   0.936   2.837  12.832 -1.8770 -0.1601 -0.9558
  992TIP3   OH224390   4.453   1.428   0.008 -0.2622 -0.0495  0.0730
  992TIP3    H124391   4.491   1.345   0.036 -1.4522 -0.0456  1.8053
  992TIP3    H224392   4.523   1.492   0.021  0.1442 -0.5216  0.2316
  993TIP3   OH224393   5.279   0.311  16.786  0.3988  0.1150  0.7394
  993TIP3    H124394   5.367   0.334  16.758 -0.1257 -0.2666 -1.3653
  993TIP3    H224395   5.269   0.218  16.762  0.1912 -0.4610  2.9917
  994TIP3   OH224396   4.087   0.162   0.822  0.0153 -0.0347  0.4194
  994TIP3    H124397   4.076   0.239   0.766 -3.5346 -1.6689 -1.2438
  994TIP3    H224398   4.153   0.109   0.777 -0.8862 -0.0909 -0.8498
  995TIP3   OH224399   4.197   2.116   4.165  0.1036  0.8120  0.3221
  995TIP3    H124400   4.169   2.164   4.243 -0.2982 -0.5150  1.0096
  995TIP3    H224401   4.141   2.039   4.163  0.8833  0.2551 -0.6490
  996TIP3   OH224402   1.257   0.769   1.888  0.3076 -0.3551 -0.1298
  996TIP3    H124403   1.269   0.706   1.817 -0.1302 -0.0836 -0.4402
  996TIP3    H224404   1.166   0.796   1.881  0.3186 -0.1779  0.4118
  997TIP3   OH224405   5.492   2.339   4.779 -0.3504 -0.4218  0.5870
  997TIP3    H124406   5.484   2.433   4.793  0.1282 -0.2998  0.0775
  997TIP3    H224407   5.580   2.328   4.742 -1.3232 -0.7789 -1.7350
  998TIP3   OH224408   0.948   6.548  12.335  0.4314 -0.2457 -0.1939
  998TIP3    H124409   1.006   6.479  12.300  0.5361 -0.1844 -0.1420
  998TIP3    H224410   0.897   6.577  12.260  1.3199  0.5438 -0.5016
  999TIP3   OH224411   3.879   4.189  14.497 -0.8262 -0.2760  0.0569
  999TIP3    H124412   3.871   4.285  14.501  1.2445 -0.1194  1.4851
  999TIP3    H224413   3.963   4.174  14.452 -1.7252 -1.4603 -1.2621
 1000TIP3   OH224414   5.779   5.021  14.181 -0.2295 -0.5713 -0.2829
 1000TIP3    H124415   5.844   5.091  14.167 -2.1171  1.5064  0.9334
 1000TIP3    H224416   5.727   5.021  14.101 -2.4844  1.9542  1.1146
 1001TIP3   OH224417   5.463   1.981   0.556  0.2189 -0.4424  0.1737
 1001TIP3    H124418   5.474   1.922   0.482  0.2912  0.6871 -0.7328
 1001TIP3    H224419   5.375   2.017   0.546  0.1835 -0.3661  0.6996
 1002TIP3   OH224420   4.050   6.704  10.538 -0.8489 -0.2825 -0.0511
 1002TIP3    H124421   3.989   6.762  10.584  0.1834  0.7302  0.0442
 1002TIP3    H224422   4.004   6.620  10.534 -1.7574  0.1446  1.1009
 1003TIP3   OH224423   0.929   2.167   1.392  0.7074  0.5518 -0.2767
 1003TIP3    H124424   1.005   2.222   1.371  0.4476  0.2494 -2.1294
 1003TIP3    H224425   0.854   2.221   1.367  0.3541  0.4615  0.6016
 1004TIP3   OH224426   3.054   5.428  12.762  0.1664  0.3937 -0.4217
 1004TIP3    H124427   3.097   5.483  12.827 -0.1673 -0.2534  0.3509
 1004TIP3    H224428   3.079   5.466  12.677  2.2293  0.0204  0.0158
 1005TIP3   OH224429   0.787   1.597   5.196  0.7175 -0.1771 -0.2615
 1005TIP3    H124430   0.782   1.693   5.199 -0.8248 -0.2376 -0.8574
 1005TIP3    H224431   0.761   1.574   5.107  1.1471 -1.1592 -0.1428
 1006TIP3   OH224432   2.791   2.728  12.744  0.3898 -0.2381  0.3378
 1006TIP3    H124433   2.836   2.737  12.660  0.4579 -1.1360  0.2684
 1006TIP3    H224434   2.704   2.693  12.722  0.6107 -1.0272  0.6733
 1007TIP3   OH224435   0.036   3.440   3.007 -0.3599  0.2907 -0.4758
 1007TIP3    H124436   0.099   3.475   3.069 -0.1668 -1.7154  0.5068
 1007TIP3    H224437  -0.011   3.372   3.056  0.5607 -2.1217 -2.8075
 1008TIP3   OH224438   4.397   4.162   3.193  0.1693 -0.2366 -0.0544
 1008TIP3    H124439   4.352   4.217   3.257 -1.9797 -1.0889 -0.8070
 1008TIP3    H224440   4.480   4.208   3.178 -0.3315  1.2570  1.5034
 1009TIP3   OH224441   0.989   1.300   4.257 -0.0624  0.3141 -0.0065
 1009TIP3    H124442   0.928   1.354   4.307 -0.3867  0.1575 -0.2273
 1009TIP3    H224443   0.954   1.300   4.168 -1.4916 -2.2975  0.4971
 1010TIP3   OH224444   1.650   0.371   2.126 -0.1019 -0.0468 -0.1384
 1010TIP3    H124445   1.617   0.460   2.130  0.1431 -0.0364  2.2781
 1010TIP3    H224446   1.692   0.365   2.040 -1.9836  1.4746 -1.1964
 1011TIP3   OH224447   5.174   2.064  12.095  0.1329 -0.4224 -0.2722
 1011TIP3    H124448   5.113   2.063  12.169 -1.1231  2.0186 -1.2355
 1011TIP3    H224449   5.137   2.002  12.033 -1.4610  1.1240 -0.8972
 1012TIP3   OH224450   1.755   0.136  14.632  0.1363 -0.0790  0.3714
 1012TIP3    H124451   1.742   0.092  14.716 -1.6611 -1.2535 -0.4696
 1012TIP3    H224452   1.666   0.148  14.597  0.8540  0.2356 -1.4200
 1013TIP3   OH224453   4.321   1.092   4.103  0.5359 -0.4224 -0.0410
 1013TIP3    H124454   4.319   0.996   4.092 -0.7154 -0.4435  0.3013
 1013TIP3    H224455   4.244   1.111   4.157  0.0785  0.9021 -1.1499
 1014TIP3   OH224456   6.493   6.080  12.468 -0.2366  0.6527 -0.0149
 1014TIP3    H124457   6.518   6.173  12.463 -0.1929  0.6985  1.0131
 1014TIP3    H224458   6.555   6.042  12.531  0.7851 -0.4270 -1.6178
 1015TIP3   OH224459   1.843   6.701   6.584  0.1141  0.4207 -0.6088
 1015TIP3    H124460   1.921   6.648   6.568  0.2376  0.5174 -0.3150
 1015TIP3    H224461   1.868   6.790   6.560  0.0235  0.4135 -0.7335
 1016TIP3   OH224462   5.155   5.776   2.747  0.1497 -0.5781 -0.2073
 1016TIP3    H124463   5.152   5.845   2.681 -0.0358 -0.4255 -0.0358
 1016TIP3    H224464   5.231   5.723   2.722  1.3461  0.6957  0.6744
 1017TIP3   OH224465   0.865   4.258  14.143 -0.3192  0.7144 -0.2617
 1017TIP3    H124466   0.856   4.234  14.051  0.4075 -2.5283  0.4630
 1017TIP3    H224467   0.954   4.293  14.151  0.0742 -0.2259 -0.5294
 1018TIP3   OH224468   3.967   3.798  16.102  0.0433  0.3341  0.1388
 1018TIP3    H124469   3.892   3.848  16.133  0.9148  1.4629  0.5140
 1018TIP3    H224470   3.980   3.729  16.167 -0.1094  0.7127  0.5752
 1019TIP3   OH224471   3.223   6.754   5.454 -0.0180  0.0534 -0.3927
 1019TIP3    H124472   3.205   6.668   5.493  0.5525  0.5488  0.9995
 1019TIP3    H224473   3.137   6.786   5.425 -0.3299 -0.6853 -0.3036
 1020TIP3   OH224474   5.842   2.670   2.159 -0.4024 -0.0815  0.0542
 1020TIP3    H124475   5.837   2.631   2.071  1.7677 -3.5935  1.3764
 1020TIP3    H224476   5.759   2.646   2.201 -0.4773 -0.3754 -0.2622
 1021TIP3   OH224477   5.282   4.965   0.311  0.1144  0.2341  0.2627
 1021TIP3    H124478   5.347   5.017   0.263  0.6489 -0.7014 -0.0303
 1021TIP3    H224479   5.325   4.882   0.329 -1.8410 -1.3957 -2.1937
 1022TIP3   OH224480   3.950   4.354   6.517  0.2361 -0.4757  0.0971
 1022TIP3    H124481   3.885   4.314   6.574 -1.4885 -0.2733 -1.6934
 1022TIP3    H224482   3.972   4.286   6.454  1.7767 -0.5373  0.6663
 1023TIP3   OH224483   5.650   3.893  10.306 -0.9325 -0.0724 -0.3521
 1023TIP3    H124484   5.729   3.923  10.262 -0.2431 -2.8653 -1.1446
 1023TIP3    H224485   5.652   3.936  10.392  0.5690  1.1776 -0.9920
 1024TIP3   OH224486   2.731   1.151  11.250 -0.1611  0.0835  0.4378
 1024TIP3    H124487   2.776   1.110  11.324  0.6450 -1.9695 -1.1524
 1024TIP3    H224488   2.712   1.079  11.191 -1.1924  1.6426 -1.1833
 1025TIP3   OH224489   1.181   6.703   0.023 -0.6756 -0.2047  0.0555
 1025TIP3    H124490   1.114   6.655   0.073  1.4133 -1.9461  1.2414
 1025TIP3    H224491   1.231   6.750   0.090 -0.3592  0.6778 -0.7907
 1026TIP3   OH224492   3.049   0.917   5.356 -0.4942  0.1038  0.1520
 1026TIP3    H124493   2.959   0.941   5.378 -0.7404 -0.1672 -0.5486
 1026TIP3    H224494   3.067   0.839   5.408 -0.5637  0.3269  0.5118
 1027TIP3   OH224495   2.510   0.111   4.636  0.2258 -0.1785 -0.1870
 1027TIP3    H124496   2.587   0.060   4.660 -0.4848 -1.8102 -1.3247
 1027TIP3    H224497   2.505   0.105   4.540 -0.8687  0.5605 -0.1949
 1028TIP3   OH224498   0.021   1.382  13.222  0.6092  0.1963  0.0173
 1028TIP3    H124499   0.078   1.453  13.251  0.3927  1.4540 -2.4413
 1028TIP3    H224500  -0.063   1.424  13.207 -0.3656 -1.2073  1.4748
 1029TIP3   OH224501   4.614   5.797  12.636 -0.4749 -0.3089  0.5827
 1029TIP3    H124502   4.625   5.702  12.646 -0.6678 -0.4198 -0.1614
 1029TIP3    H224503   4.578   5.807  12.548 -2.1040  0.3335  1.2959
 1030TIP3   OH224504   3.366   5.044   3.831  0.3655 -0.4815 -0.3485
 1030TIP3    H124505   3.438   4.981   3.839  0.6095 -0.1903 -0.2380
 1030TIP3    H224506   3.291   4.999   3.868  1.1935  0.3856  2.5151
 1031TIP3   OH224507   0.670   6.644  10.201  0.5706  0.1244 -0.1908
 1031TIP3    H124508   0.689   6.665  10.292  0.4851 -0.1938 -0.1005
 1031TIP3    H224509   0.593   6.588  10.204  0.1278  0.7092 -0.5062
 1032TIP3   OH224510   0.644   4.583  16.957  0.3655  0.8177  0.3148
 1032TIP3    H124511   0.663   4.590  16.864 -0.1039 -0.5363  0.1144
 1032TIP3    H224512   0.551   4.559  16.961  0.5287  0.2841  1.1152
 1033TIP3   OH224513   6.219   4.377  10.384 -0.2798  0.1979  0.0720
 1033TIP3    H124514   6.291   4.439  10.398 -2.4284  2.4970  1.3952
 1033TIP3    H224515   6.245   4.298  10.432  2.8105 -0.2652 -2.1790
 1034TIP3   OH224516   4.907   3.858  11.329 -0.5743  0.5204  0.2603
 1034TIP3    H124517   4.909   3.809  11.411  0.2931  0.1374  0.0169
 1034TIP3    H224518   4.820   3.842  11.293  0.0259 -1.6287 -0.2921
 1035TIP3   OH224519   2.983   3.059  15.162  0.0669 -0.1927 -0.1077
 1035TIP3    H124520   3.032   3.066  15.245 -1.2659 -0.7433  0.7342
 1035TIP3    H224521   3.023   3.126  15.106  1.0505  0.1311  0.9383
 1036TIP3   OH224522   6.261   1.421  13.698 -0.5156 -0.3285  0.5228
 1036TIP3    H124523   6.286   1.380  13.781 -2.7406  0.5773  1.6982
 1036TIP3    H224524   6.220   1.351  13.648  2.1381 -1.2409 -0.4645
 1037TIP3   OH224525   4.893   0.987   2.288 -0.2623  0.2521 -0.7790
 1037TIP3    H124526   4.884   0.941   2.205 -1.6155 -0.7627 -0.0801
 1037TIP3    H224527   4.970   1.043   2.276  1.4320 -2.1823 -1.6469
 1038TIP3   OH224528   5.750   6.041   2.727  0.2277  0.2937  0.0496
 1038TIP3    H124529   5.780   6.130   2.745 -0.6309  0.4353  0.8494
 1038TIP3    H224530   5.668   6.053   2.679 -0.1939 -0.0506  0.6698
 1039TIP3   OH224531   5.155   5.793   0.764  0.1494  0.0414 -0.6414
 1039TIP3    H124532   5.209   5.803   0.843 -1.1841  0.4317  0.2398
 1039TIP3    H224533   5.199   5.725   0.713  1.9619  0.9938 -0.3606
 1040TIP3   OH224534   5.330   1.778   2.851 -0.6109 -0.5212  0.3547
 1040TIP3    H124535   5.278   1.784   2.931 -1.1634 -0.1985 -0.0277
 1040TIP3    H224536   5.389   1.854   2.856  0.3547 -1.3102  1.1574
 1041TIP3   OH224537   4.574   6.248  11.142 -0.0456 -0.4499 -0.2313
 1041TIP3    H124538   4.664   6.254  11.108  0.5408 -0.0613  1.3570
 1041TIP3    H224539   4.544   6.161  11.115  0.1638  0.0946 -2.2950
 1042TIP3   OH224540   4.531   2.216   4.187 -0.2262  0.6004  0.3467
 1042TIP3    H124541   4.531   2.296   4.133  1.5593  0.0901 -0.4236
 1042TIP3    H224542   4.460   2.163   4.150  0.5157  0.5651 -1.0543
 1043TIP3   OH224543   6.106   0.232  12.630  0.3605  0.0673 -0.2709
 1043TIP3    H124544   6.168   0.285  12.580  0.2287  0.0395 -0.4635
 1043TIP3    H224545   6.104   0.148  12.585 -0.3958  0.3238 -0.7110
 1044TIP3   OH224546   2.735   3.244   3.884 -0.1904  0.0934 -0.3281
 1044TIP3    H124547   2.737   3.220   3.791  2.1044  0.4894 -0.3977
 1044TIP3    H224548   2.791   3.180   3.927  1.8239  2.1418  0.2095
 1045TIP3   OH224549   6.744   0.658   5.784  0.8916  1.2066 -0.5159
 1045TIP3    H124550   6.774   0.581   5.833 -0.6944  0.7430 -0.2530
 1045TIP3    H224551   6.681   0.701   5.842 -0.4339  1.0750 -1.8211
 1046TIP3   OH224552   0.086   6.212   4.556 -0.0703 -0.7036  0.0029
 1046TIP3    H124553   0.006   6.242   4.600  0.1330 -0.2051  0.0439
 1046TIP3    H224554   0.066   6.123   4.528 -0.1932 -1.0308  1.1129
 1047TIP3   OH224555   2.079   4.955  13.702  0.0255 -0.2867  0.9791
 1047TIP3    H124556   2.163   4.998  13.687  0.2685 -0.8092  0.8582
 1047TIP3    H224557   2.082   4.927  13.793  0.3504 -1.1111  0.7235
 1048TIP3   OH224558   0.911   2.546   4.589  0.1264  0.3717 -0.3998
 1048TIP3    H124559   0.920   2.459   4.629  1.6871  0.5591 -0.3141
 1048TIP3    H224560   0.932   2.532   4.497  0.1603  0.6155 -0.4285
 1049TIP3   OH224561   2.609   5.379  16.199  0.1862  0.1798 -0.4127
 1049TIP3    H124562   2.581   5.295  16.162 -1.2557  0.2890  0.3935
 1049TIP3    H224563   2.683   5.406  16.144  0.4637 -1.4530 -0.8867
 1050TIP3   OH224564   6.563   6.093  11.829  0.4540 -0.2509 -0.1368
 1050TIP3    H124565   6.614   6.043  11.894  1.4190 -1.4206 -1.7569
 1050TIP3    H224566   6.601   6.068  11.745 -1.8931 -0.0279 -1.2887
 1051TIP3   OH224567   1.747   1.193   3.118 -0.7116 -0.2083  0.5657
 1051TIP3    H124568   1.704   1.228   3.039  1.5776  1.2033 -0.1019
 1051TIP3    H224569   1.778   1.271   3.164  3.5932 -1.2520 -0.4119
 1052TIP3   OH224570   0.637   3.393  13.649  0.5370  0.4604  0.3367
 1052TIP3    H124571   0.600   3.329  13.588 -0.5147  0.6163  0.7892
 1052TIP3    H224572   0.596   3.371  13.733 -0.3172  2.0985  0.3714
 1053TIP3   OH224573   0.873   4.827   4.232  0.1671 -0.3384 -0.5250
 1053TIP3    H124574   0.857   4.735   4.210 -0.0487 -0.6565  0.9420
 1053TIP3    H224575   0.816   4.844   4.307 -0.8098  1.3713 -1.6208
 1054TIP3   OH224576   3.550   5.190   0.003 -0.4866  0.0452  0.3011
 1054TIP3    H124577   3.603   5.113   0.020  0.7478  0.5703 -1.0283
 1054TIP3    H224578   3.475   5.182   0.062 -0.7549 -2.5405 -0.3423
 1055TIP3   OH224579   2.244   4.648   5.738 -0.4642  0.5737 -0.7992
 1055TIP3    H124580   2.183   4.721   5.749 -0.8184  0.1398  0.1735
 1055TIP3    H224581   2.213   4.581   5.800  0.8764  0.2811 -0.4254
 1056TIP3   OH224582   2.149   6.180  12.713  0.5583 -0.2150 -0.0114
 1056TIP3    H124583   2.214   6.181  12.643  0.2301 -0.1339 -0.3193
 1056TIP3    H224584   2.130   6.272  12.729  0.6297 -0.2338  0.1830
 1057TIP3   OH224585   4.171   3.738  16.998 -0.4487 -0.4223 -0.1883
 1057TIP3    H124586   4.258   3.719  17.033 -0.8813 -1.1086  0.5209
 1057TIP3    H224587   4.119   3.761  17.075 -1.1269 -0.9067 -0.5030
 1058TIP3   OH224588   6.172   4.010   4.794 -0.3430  0.3274 -0.4013
 1058TIP3    H124589   6.259   4.040   4.768 -0.8917 -0.0590 -2.7572
 1058TIP3    H224590   6.169   3.918   4.767 -0.1865 -0.7574  3.0029
 1059TIP3   OH224591   3.240   1.801  13.705 -0.0558  0.5935  0.0944
 1059TIP3    H124592   3.296   1.773  13.777  0.1566  2.3762  0.6431
 1059TIP3    H224593   3.187   1.871  13.742  0.5148  1.9818 -1.6544
 1060TIP3   OH224594   1.235   0.234   2.848 -0.6779 -0.5092 -0.9899
 1060TIP3    H124595   1.318   0.189   2.830  0.5290  0.8842  0.8173
 1060TIP3    H224596   1.172   0.164   2.862 -0.0248 -1.6034 -3.2135
 1061TIP3   OH224597   6.728   0.787   2.091 -0.1797 -0.6210 -0.0375
 1061TIP3    H124598   6.772   0.762   2.173 -0.9725 -0.4994  0.4299
 1061TIP3    H224599   6.772   0.867   2.064 -0.1962 -0.4253  0.5020
 1062TIP3   OH224600   1.432   2.024   1.415  0.5001 -0.2992 -0.3441
 1062TIP3    H124601   1.424   1.957   1.347  0.3756 -0.1253 -0.5003
 1062TIP3    H224602   1.382   1.990   1.489 -0.7087  0.2382 -0.8976
 1063TIP3   OH224603   0.408   4.281  14.996 -0.4788  0.2594  0.4681
 1063TIP3    H124604   0.469   4.339  14.950 -0.1299 -0.5039 -0.0222
 1063TIP3    H224605   0.330   4.279  14.941  0.5617 -2.0063 -0.9725
 1064TIP3   OH224606   6.259   4.630  11.074  0.1135  0.5951 -0.1977
 1064TIP3    H124607   6.346   4.591  11.079 -0.1453 -0.0876 -0.8575
 1064TIP3    H224608   6.199   4.556  11.064 -0.5627  1.0454  0.3871
 1065TIP3   OH224609   4.518   1.928   4.911 -0.3546  0.1635  0.4368
 1065TIP3    H124610   4.609   1.926   4.941 -0.9389 -0.0329  2.3012
 1065TIP3    H224611   4.467   1.910   4.990 -2.0300  0.6590 -0.5124
 1066TIP3   OH224612   3.094   1.973  13.182  0.4697 -0.1139 -0.0906
 1066TIP3    H124613   3.086   1.934  13.269 -1.1117  0.7826  0.1827
 1066TIP3    H224614   3.062   1.904  13.122  1.1973 -0.5909  0.0706
 1067TIP3   OH224615   3.404   2.221  16.379 -0.2263 -0.3190 -0.4567
 1067TIP3    H124616   3.402   2.226  16.283  0.9004  1.5674 -0.4112
 1067TIP3    H224617   3.497   2.231  16.401 -0.6231  0.5770  0.8824
 1068TIP3   OH224618   3.343   1.821  16.674  0.0224  0.0766  0.1410
 1068TIP3    H124619   3.336   1.867  16.758  1.2501  1.0649 -0.2704
 1068TIP3    H224620   3.432   1.840  16.645  0.1819 -1.7037 -0.5593
 1069TIP3   OH224621   2.070   1.017   6.068 -0.1544  0.7602  0.3915
 1069TIP3    H124622   2.062   0.956   6.142 -0.5782  0.4345  0.0772
 1069TIP3    H224623   2.103   1.098   6.108 -0.0883  0.4907  0.8925
 1070TIP3   OH224624   0.093   5.456   2.936  0.4792  0.2078  0.1110
 1070TIP3    H124625   0.163   5.522   2.943  0.0592  0.4815  1.9822
 1070TIP3    H224626   0.017   5.498   2.977 -0.3152 -0.7339 -0.3882
 1071TIP3   OH224627   1.896   4.705   1.473  0.0232 -0.4490  0.0101
 1071TIP3    H124628   1.888   4.778   1.534  1.1045  0.3572 -0.8011
 1071TIP3    H224629   1.836   4.726   1.401  2.3946  1.0798 -1.6044
 1072TIP3   OH224630   0.033   5.482   5.041 -0.3149  0.4785  0.2393
 1072TIP3    H124631  -0.012   5.398   5.039 -1.7947  1.2479  0.1227
 1072TIP3    H224632   0.108   5.469   5.099 -0.8078 -0.7660  0.6020
 1073TIP3   OH224633   4.742   4.299   4.467 -0.5103 -0.3092 -0.1714
 1073TIP3    H124634   4.829   4.261   4.454 -0.3734 -0.0328 -0.0592
 1073TIP3    H224635   4.757   4.393   4.472 -0.9432 -0.1802 -1.1683
 1074TIP3   OH224636   1.783   3.926  12.672  0.4281  0.2794  0.4328
 1074TIP3    H124637   1.726   3.924  12.595  0.5313  0.4102  0.3539
 1074TIP3    H224638   1.862   3.881  12.644 -0.2281 -1.2784  1.0152
 1075TIP3   OH224639   5.558   5.670  11.393  0.0735  0.0802  0.4866
 1075TIP3    H124640   5.498   5.688  11.320 -1.1081 -3.0065  0.6297
 1075TIP3    H224641   5.513   5.705  11.470  1.4815  3.6687 -0.2227
 1076TIP3   OH224642   3.099   1.463   2.340  0.0260  0.1597  0.1436
 1076TIP3    H124643   3.183   1.420   2.358  1.7010  2.4369 -1.8405
 1076TIP3    H224644   3.072   1.500   2.424  1.9214  0.9037  0.4579
 1077TIP3   OH224645   2.463   6.330   5.440  0.4539 -0.5173  0.2880
 1077TIP3    H124646   2.476   6.257   5.380  1.3737  1.1892 -1.6713
 1077TIP3    H224647   2.377   6.315   5.479  0.2412 -2.1474 -0.7811
 1078TIP3   OH224648   6.143   3.214  13.745  0.0576 -0.1220  0.4862
 1078TIP3    H124649   6.174   3.123  13.741  0.4008 -0.0176  0.8147
 1078TIP3    H224650   6.067   3.215  13.686 -2.7480 -1.7607  3.9113
 1079TIP3   OH224651   1.524   1.160   3.822  0.1422 -0.7299 -0.0975
 1079TIP3    H124652   1.505   1.089   3.883 -1.1089  0.6572  1.1663
 1079TIP3    H224653   1.450   1.160   3.761  0.3668 -0.7805 -0.3759
 1080TIP3   OH224654   0.351   3.185  16.442  0.6604  0.4368 -0.0310
 1080TIP3    H124655   0.310   3.112  16.488 -0.3618  0.6386 -0.6045
 1080TIP3    H224656   0.371   3.151  16.355 -0.5670  1.0720 -0.5742
 1081TIP3   OH224657   1.337   5.321   1.949  0.1991 -0.6411 -0.3795
 1081TIP3    H124658   1.347   5.415   1.963  0.4185 -0.7603  0.3057
 1081TIP3    H224659   1.329   5.311   1.854  2.6251 -0.1677 -0.6700
 1082TIP3   OH224660   5.748   2.689  12.592  0.1528  0.1856  0.5092
 1082TIP3    H124661   5.834   2.730  12.599  0.7542 -0.6306 -1.6337
 1082TIP3    H224662   5.766   2.598  12.567 -1.3325  0.3721 -1.3875
 1083TIP3   OH224663   2.371   4.508  15.376 -0.4058  0.6317 -0.1104
 1083TIP3    H124664   2.388   4.472  15.463  0.4226  0.8534 -0.1704
 1083TIP3    H224665   2.316   4.443  15.333  0.4162 -0.1883  0.0649
 1084TIP3   OH224666   5.031   5.732  17.025  0.2364  0.5747  0.6173
 1084TIP3    H124667   4.976   5.683  17.086 -0.2073 -0.6632 -0.7649
 1084TIP3    H224668   5.061   5.807  17.076  2.1719 -1.8969  3.2448
 1085TIP3   OH224669   2.348   5.299   1.147  0.1083  0.0228  0.0767
 1085TIP3    H124670   2.430   5.330   1.108 -0.5240  1.7001  0.0481
 1085TIP3    H224671   2.374   5.263   1.232  0.7739  1.4249  0.4922
 1086TIP3   OH224672   2.685   3.576   4.514  0.3925 -0.0815 -0.1356
 1086TIP3    H124673   2.686   3.617   4.428  2.7360 -1.2207 -0.6687
 1086TIP3    H224674   2.594   3.548   4.525 -0.1139  0.7759 -1.8921
 1087TIP3   OH224675   4.332   4.393   0.589  0.6524 -0.4373 -0.1117
 1087TIP3    H124676   4.353   4.339   0.513  0.9016 -0.2430 -0.1809
 1087TIP3    H224677   4.275   4.462   0.555  1.1038 -0.1059 -0.2033
 1088TIP3   OH224678   2.765   6.665  11.439 -0.3817 -0.2974  0.5957
 1088TIP3    H124679   2.682   6.621  11.424 -0.5508  0.2656 -0.1466
 1088TIP3    H224680   2.748   6.722  11.515 -0.8872  0.3566 -0.0025
 1089TIP3   OH224681   0.568   2.517  17.119 -0.0920  0.5783  0.1628
 1089TIP3    H124682   0.526   2.547  17.199 -1.1699  1.4500 -0.7024
 1089TIP3    H224683   0.558   2.591  17.058  2.4252  0.6900 -0.1697
 1090TIP3   OH224684   2.251   4.161   1.083 -0.3636 -0.0432 -0.1282
 1090TIP3    H124685   2.226   4.086   1.029 -1.6658  0.0702  0.3041
 1090TIP3    H224686   2.172   4.215   1.088  1.0111  2.2749 -1.8750
 1091TIP3   OH224687   2.461   1.931   5.329 -0.3675 -0.5396  0.1708
 1091TIP3    H124688   2.436   1.847   5.368 -0.2160 -1.1886 -1.1182
 1091TIP3    H224689   2.514   1.907   5.253 -0.6747  0.7140 -0.4382
 1092TIP3   OH224690   2.164   0.309   4.477 -0.4894 -0.5258 -0.5569
 1092TIP3    H124691   2.071   0.318   4.496  0.1039 -0.4546  2.4875
 1092TIP3    H224692   2.181   0.215   4.485  0.2957 -0.2037  2.0383
 1093TIP3   OH224693   5.505   5.961  15.169  0.9975  0.0199 -0.4764
 1093TIP3    H124694   5.454   5.919  15.100  1.5861 -0.4900 -0.6051
 1093TIP3    H224695   5.454   5.947  15.249  0.0001  1.1514 -0.8953
 1094TIP3   OH224696   0.595   0.458   5.069  0.0905  0.1780 -0.1974
 1094TIP3    H124697   0.548   0.441   5.151 -0.6532  1.3703 -0.3724
 1094TIP3    H224698   0.686   0.436   5.089 -0.1746 -0.0613  0.7851
 1095TIP3   OH224699   2.979   6.578   1.500  0.6370  0.3657 -0.2918
 1095TIP3    H124700   3.054   6.617   1.545  1.4763 -1.5362  0.0069
 1095TIP3    H224701   2.973   6.627   1.418  1.0864  1.7115  0.4616
 1096TIP3   OH224702   1.038   0.853   3.310  0.3285 -0.4587 -0.4309
 1096TIP3    H124703   1.105   0.811   3.257 -1.0574 -0.8921 -1.8699
 1096TIP3    H224704   1.064   0.945   3.312 -0.0622 -0.2691 -2.6119
 1097TIP3   OH224705   5.731   0.411  12.419  0.4158 -0.5466  0.3575
 1097TIP3    H124706   5.653   0.360  12.400  0.3934 -0.1424 -0.7038
 1097TIP3    H224707   5.700   0.488  12.468  0.0881 -0.1780 -0.4202
 1098TIP3   OH224708   1.642   0.102  17.020  0.2054 -0.1364  0.1547
 1098TIP3    H124709   1.686   0.169  17.073 -1.5350  0.0648  1.4081
 1098TIP3    H224710   1.647   0.023  17.073  0.5595 -0.5218 -0.4562
 1099TIP3   OH224711   0.002   5.008  11.931  0.4296  0.7181  0.2346
 1099TIP3    H124712  -0.020   4.976  11.844 -1.7735  0.9690  0.6680
 1099TIP3    H224713  -0.082   5.009  11.978  1.7936 -0.9708  2.8586
 1100TIP3   OH224714   1.253   4.054  16.704 -0.2772  0.5470 -0.0281
 1100TIP3    H124715   1.171   4.072  16.657 -0.2486 -0.5047 -0.4926
 1100TIP3    H224716   1.289   3.977  16.660  1.3650  1.4695 -0.3455
 1101TIP3   OH224717   6.097   3.559  14.312 -0.3760 -0.2142  0.4541
 1101TIP3    H124718   6.152   3.637  14.315 -0.5946 -0.0482  0.2499
 1101TIP3    H224719   6.123   3.508  14.388  0.5497 -0.4759 -0.0345
 1102TIP3   OH224720   6.461   0.636  13.615  0.2153  0.0680 -0.6392
 1102TIP3    H124721   6.530   0.696  13.589 -0.8933  1.2156 -0.9664
 1102TIP3    H224722   6.459   0.641  13.710  1.6181 -1.1443 -0.5375
 1103TIP3   OH224723   0.431   1.115   4.715 -0.2735  0.0004  0.4716
 1103TIP3    H124724   0.471   1.122   4.628  0.2637  0.5685  0.7548
 1103TIP3    H224725   0.337   1.125   4.699 -0.0950  1.1047  0.0602
 1104TIP3   OH224726   1.944   1.315   0.529  0.1402 -0.0483  0.5135
 1104TIP3    H124727   1.898   1.385   0.576  0.3161 -0.5745  1.4923
 1104TIP3    H224728   1.878   1.248   0.514  0.4525 -0.5816  1.4643
 1105TIP3   OH224729   6.435   3.026  12.983 -0.4262  0.1279 -0.4618
 1105TIP3    H124730   6.492   2.950  12.998  0.4977  1.1115  1.2251
 1105TIP3    H224731   6.450   3.050  12.892  0.6482 -0.6115 -0.4931
 1106TIP3   OH224732   6.644   5.987   5.165  0.6623  0.3810 -0.2097
 1106TIP3    H124733   6.697   5.994   5.086 -0.8772  0.4097 -1.2607
 1106TIP3    H224734   6.575   5.924   5.143  0.1535  0.4728  1.0667
 1107TIP3   OH224735   6.248   1.053  15.905 -0.3214 -0.5259  0.1831
 1107TIP3    H124736   6.200   0.972  15.927  0.8658 -1.4663 -0.6133
 1107TIP3    H224737   6.187   1.103  15.851 -0.8987 -1.1081  0.2889
 1108TIP3   OH224738   6.586   3.045   3.252 -0.1919  0.1223 -0.4022
 1108TIP3    H124739   6.539   3.019   3.331  1.3810 -0.0730  0.4961
 1108TIP3    H224740   6.521   3.041   3.182 -1.9207  1.4602  1.0756
 1109TIP3   OH224741   6.572   0.641  12.397 -0.0450 -0.7216  0.0665
 1109TIP3    H124742   6.606   0.670  12.312  1.5250 -0.8964  0.6316
 1109TIP3    H224743   6.647   0.603  12.442 -1.0002 -1.1796  1.3078
 1110TIP3   OH224744   6.342   3.342   2.540 -0.0413  0.1070 -0.2775
 1110TIP3    H124745   6.335   3.424   2.492  1.7713  0.9178  0.8136
 1110TIP3    H224746   6.323   3.365   2.630  1.3365 -0.5083  0.1803
 1111TIP3   OH224747   5.989   3.973   0.957  0.4155  0.7305  0.0659
 1111TIP3    H124748   6.056   3.909   0.979  0.2413  0.4785 -0.1369
 1111TIP3    H224749   5.927   3.970   1.030  0.1782  0.3580 -0.1518
 1112TIP3   OH224750   5.142   5.132   3.807  0.5037 -0.4085  0.4995
 1112TIP3    H124751   5.193   5.212   3.818  0.0770 -0.1584  0.6478
 1112TIP3    H224752   5.192   5.081   3.743  1.3213 -0.4904  1.1972
 1113TIP3   OH224753   2.192   3.003  10.568 -0.3700 -0.8641 -0.0930
 1113TIP3    H124754   2.237   2.975  10.648 -0.6543 -0.1692  0.3139
 1113TIP3    H224755   2.235   3.085  10.545 -2.1639  0.4006  0.9266
 1114TIP3   OH224756   1.795   0.805   4.036  0.3602 -0.3084 -0.3245
 1114TIP3    H124757   1.882   0.809   3.997 -0.1410 -0.5240 -1.4995
 1114TIP3    H224758   1.740   0.764   3.968 -0.7644  0.3092  0.1940
 1115TIP3   OH224759   5.000   1.802   1.155  0.0888  0.3088 -0.0488
 1115TIP3    H124760   4.942   1.874   1.130  1.0561  1.3690  0.6968
 1115TIP3    H224761   5.087   1.842   1.157  0.4905 -0.6352  1.4170
 1116TIP3   OH224762   4.926   2.405   3.041 -0.2099 -0.4125  0.0385
 1116TIP3    H124763   4.886   2.486   3.011 -1.4703 -0.8663  0.4490
 1116TIP3    H224764   4.877   2.336   2.996 -0.9864 -1.0345  1.7614
 1117TIP3   OH224765   6.030   3.093   5.264 -0.5062  0.9707  0.5719
 1117TIP3    H124766   6.072   3.144   5.195 -0.9410 -1.0251 -1.2209
 1117TIP3    H224767   6.101   3.040   5.302 -0.8570 -0.4438 -0.6786
 1118TIP3   OH224768   0.251   6.725  15.844  0.3678 -0.5003 -0.0105
 1118TIP3    H124769   0.294   6.743  15.760 -0.4465  1.1412 -0.0912
 1118TIP3    H224770   0.223   6.810  15.876  1.4000 -1.0022  2.3663
 1119TIP3   OH224771   5.877   6.049   0.322 -0.0229 -0.1190 -0.2009
 1119TIP3    H124772   5.822   6.012   0.391  0.9488 -0.6148  0.3182
 1119TIP3    H224773   5.871   6.143   0.334  1.0721 -0.2240  1.3196
 1120TIP3   OH224774   4.332   6.414  17.164 -0.2299  0.4033 -0.3214
 1120TIP3    H124775   4.340   6.501  17.202 -0.0427 -0.1878  1.0059
 1120TIP3    H224776   4.303   6.358  17.236  0.9293 -0.8851 -0.8318
 1121TIP3   OH224777   0.772   1.094  17.030 -0.0496 -0.3624 -0.2797
 1121TIP3    H124778   0.840   1.161  17.024  0.8425 -1.3194 -0.8185
 1121TIP3    H224779   0.787   1.036  16.956 -1.0517 -0.9565 -0.0379
 1122TIP3   OH224780   2.763   3.774  11.751 -0.0210  0.5493 -0.6630
 1122TIP3    H124781   2.819   3.713  11.799  0.6267  1.2183 -0.5608
 1122TIP3    H224782   2.740   3.841  11.815  0.1175  0.9669 -1.0427
 1123TIP3   OH224783   4.625   0.142   1.748  0.3313 -0.4815 -0.3156
 1123TIP3    H124784   4.593   0.142   1.839  0.6142  0.8890 -0.1985
 1123TIP3    H224785   4.583   0.067   1.708 -0.8063 -0.3636  0.6121
 1124TIP3   OH224786   4.923   5.272   0.013  0.5253  0.0429 -0.3600
 1124TIP3    H124787   4.841   5.243  -0.028  0.5730 -0.7870  0.1214
 1124TIP3    H224788   4.955   5.195   0.059  1.1288  0.6149  0.1863
 1125TIP3   OH224789   3.227   3.632   1.245  0.4647 -0.1810 -0.8324
 1125TIP3    H124790   3.155   3.573   1.266 -0.9157  1.1729 -1.6746
 1125TIP3    H224791   3.213   3.708   1.301  2.2145 -0.6260  0.2295
 1126TIP3   OH224792   2.439   3.362  15.745  0.1963  0.2988 -0.3605
 1126TIP3    H124793   2.447   3.277  15.704  0.3979 -0.0098  0.3050
 1126TIP3    H224794   2.445   3.344  15.839  2.2916  1.2764 -0.2808
 1127TIP3   OH224795   1.922   2.245  15.655  0.0019 -0.5266 -0.0774
 1127TIP3    H124796   1.975   2.166  15.643 -1.3214 -1.8523  2.2555
 1127TIP3    H224797   1.841   2.227  15.606 -1.6078 -2.0457  2.9753
 1128TIP3   OH224798   4.146   5.510  14.373 -0.1547 -0.2852 -0.1094
 1128TIP3    H124799   4.212   5.515  14.303 -1.1877 -1.0798 -1.1712
 1128TIP3    H224800   4.140   5.599  14.407 -0.6177  0.4388 -1.9943
 1129TIP3   OH224801   1.289   0.526   3.457  0.0731  0.7894  0.4547
 1129TIP3    H124802   1.323   0.588   3.521 -1.0900  2.5557 -0.5944
 1129TIP3    H224803   1.271   0.579   3.380 -0.1260 -1.0223 -0.7607
 1130TIP3   OH224804   6.642   3.970   1.950 -0.3614  0.1552  0.5292
 1130TIP3    H124805   6.568   3.912   1.929  0.5556  0.1225 -3.0343
 1130TIP3    H224806   6.719   3.916   1.935  0.4602  1.7487 -1.1097
 1131TIP3   OH224807   0.017   6.316  10.990 -0.4655 -0.9302  0.7136
 1131TIP3    H124808   0.071   6.339  11.065  0.8774  1.4467 -0.8946
 1131TIP3    H224809   0.081   6.293  10.922 -1.3510  2.6729 -1.4529
 1132TIP3   OH224810   0.196   1.906   0.746  0.2999 -0.0953 -0.3103
 1132TIP3    H124811   0.138   1.841   0.706 -0.0561 -1.3375  2.1197
 1132TIP3    H224812   0.284   1.875   0.727  0.1328 -0.8296  0.1163
 1133TIP3   OH224813   4.550   3.809  12.104  0.1840  0.4341 -0.0032
 1133TIP3    H124814   4.514   3.739  12.049  0.8144  0.1791 -0.0916
 1133TIP3    H224815   4.636   3.776  12.132  0.0708  0.7608  0.7473
 1134TIP3   OH224816   0.218   4.188   0.505 -0.5962  0.5434  0.4270
 1134TIP3    H124817   0.197   4.271   0.548 -0.3938  2.0291 -2.2487
 1134TIP3    H224818   0.256   4.213   0.421  0.6085 -2.2640  0.0903
 1135TIP3   OH224819   4.412   2.596   3.889  0.2213  0.2549 -0.4530
 1135TIP3    H124820   4.371   2.671   3.847  1.6676  1.3250  0.0119
 1135TIP3    H224821   4.397   2.609   3.983 -0.7522 -0.7921 -0.4436
 1136TIP3   OH224822   0.336   6.332  13.268  0.1509 -0.0309  0.7737
 1136TIP3    H124823   0.392   6.409  13.268 -1.3257  1.0637  1.9457
 1136TIP3    H224824   0.396   6.259  13.282  1.5241  0.9097 -0.0678
 1137TIP3   OH224825   2.920   3.891  14.673  0.2407 -0.1541  0.2514
 1137TIP3    H124826   2.931   3.986  14.677 -0.0183 -0.1182  0.1729
 1137TIP3    H224827   2.825   3.878  14.668  0.2831 -0.4101  0.0696
 1138TIP3   OH224828   5.735   0.837  12.015 -0.4490 -0.6197 -0.2353
 1138TIP3    H124829   5.648   0.802  12.036 -0.2824 -2.0504 -1.7966
 1138TIP3    H224830   5.717   0.922  11.974 -0.9528  0.3342  1.8686
 1139TIP3   OH224831   4.665   1.449   3.212  0.1344  0.7220  0.2791
 1139TIP3    H124832   4.633   1.377   3.157 -2.4957  1.8549  0.2535
 1139TIP3    H224833   4.685   1.519   3.150  0.7046  0.7281  0.4718
 1140TIP3   OH224834   3.501   2.508  13.392  0.0195  0.4008 -0.6614
 1140TIP3    H124835   3.487   2.518  13.486 -1.0941 -0.2448 -0.7531
 1140TIP3    H224836   3.420   2.468  13.359  0.1059  1.2909 -2.0065
 1141TIP3   OH224837   1.532   0.971   1.551  1.1427  0.2785 -0.0455
 1141TIP3    H124838   1.512   1.025   1.628  1.3483  0.7654 -0.3302
 1141TIP3    H224839   1.627   0.979   1.540  1.3516 -1.1154  0.6264
 1142TIP3   OH224840   0.903   5.013   2.608  0.4853 -0.4838  0.1813
 1142TIP3    H124841   0.924   5.069   2.533  1.2112  0.5653  1.1590
 1142TIP3    H224842   0.827   4.962   2.579  0.5471  0.1516 -1.1428
 1143TIP3   OH224843   2.375   5.534  15.635 -0.3593 -0.3083  0.2497
 1143TIP3    H124844   2.353   5.526  15.543 -0.1863 -1.6395  0.3144
 1143TIP3    H224845   2.312   5.597  15.670 -1.1303 -0.6501 -0.5300
 1144TIP3   OH224846   0.453   5.129   1.546  0.7569 -0.2009 -0.7492
 1144TIP3    H124847   0.498   5.047   1.565 -0.0976 -0.5960 -0.4106
 1144TIP3    H224848   0.524   5.191   1.525  1.4845 -0.6916  0.2223
 1145TIP3   OH224849   3.392   3.020   4.142 -0.0708  0.4109 -0.1854
 1145TIP3    H124850   3.487   3.020   4.128 -0.3998  1.0374 -2.5961
 1145TIP3    H224851   3.379   2.962   4.218  1.9410 -2.7129 -2.0933
 1146TIP3   OH224852   1.036   2.375  14.291 -0.1316 -0.4732  0.0510
 1146TIP3    H124853   0.995   2.455  14.323  0.5969  0.6566 -1.7399
 1146TIP3    H224854   0.997   2.362  14.204  1.0698 -1.0756 -0.4003
 1147TIP3   OH224855   5.176   1.390  14.851  0.0874  0.8454  0.5147
 1147TIP3    H124856   5.153   1.474  14.811  2.4824  0.8583 -0.9443
 1147TIP3    H224857   5.130   1.325  14.798  0.1652  1.1120  0.1143
 1148TIP3   OH224858   0.875   2.042   2.765 -0.3521 -0.2216 -0.6491
 1148TIP3    H124859   0.810   2.096   2.811  0.2703  1.2582 -1.5034
 1148TIP3    H224860   0.952   2.098   2.757 -0.2054 -0.6990 -2.8900
 1149TIP3   OH224861   6.604   4.731  13.176  0.0838  0.2421 -0.0053
 1149TIP3    H124862   6.670   4.729  13.246  0.2535  1.9068 -0.0860
 1149TIP3    H224863   6.640   4.792  13.112 -0.4885 -0.6018 -1.1268
 1150TIP3   OH224864   1.677   5.984  12.452 -0.4585 -0.0563 -0.1928
 1150TIP3    H124865   1.616   6.008  12.522 -1.1404 -0.0972 -0.7777
 1150TIP3    H224866   1.622   5.971  12.375  0.2357 -0.5824 -0.6007
 1151TIP3   OH224867   2.054   0.358   2.770 -0.3930  0.1449  0.1526
 1151TIP3    H124868   2.124   0.374   2.706 -1.4883  3.1011 -0.3744
 1151TIP3    H224869   2.055   0.434   2.827 -2.3385 -0.3872  0.9522
 1152TIP3   OH224870   2.934   0.959   1.851  0.4510  0.1625 -0.3078
 1152TIP3    H124871   2.898   1.047   1.838 -0.2390  0.0056  0.5106
 1152TIP3    H224872   3.020   0.961   1.809  0.3541  1.1679 -0.4508
 1153TIP3   OH224873   3.714   6.745   1.338  0.0212  0.4890  0.3878
 1153TIP3    H124874   3.680   6.778   1.421  0.4379  0.0486  0.7416
 1153TIP3    H224875   3.736   6.653   1.356 -1.0511  0.0396 -0.5616
 1154TIP3   OH224876   0.941   4.082   3.976 -0.0077 -0.4773  0.3646
 1154TIP3    H124877   0.895   3.998   3.974 -0.4179 -0.3191  1.9318
 1154TIP3    H224878   1.007   4.071   4.045  1.2329 -0.1649 -0.7640
 1155TIP3   OH224879   5.320   2.155  13.069 -0.0645 -0.3249 -0.0780
 1155TIP3    H124880   5.415   2.155  13.057 -0.1874  1.5090 -1.1570
 1155TIP3    H224881   5.292   2.072  13.029  0.9721 -0.4179 -0.6384
 1156TIP3   OH224882   1.774   0.549   1.493 -0.2603  0.1954  0.4322
 1156TIP3    H124883   1.752   0.458   1.476 -1.1349  0.6789 -1.2086
 1156TIP3    H224884   1.767   0.592   1.407  2.4937  1.3404  0.7143
 1157TIP3   OH224885   2.981   4.750   4.035  0.5294 -0.6832  0.2952
 1157TIP3    H124886   3.020   4.686   3.976 -0.2597 -1.0875  0.1998
 1157TIP3    H224887   2.961   4.701   4.114 -1.1583 -0.8438 -0.2089
 1158TIP3   OH224888   4.659   4.054   3.007  0.1356 -0.8740 -0.4651
 1158TIP3    H124889   4.568   4.025   3.005 -0.1397 -0.3358  2.0388
 1158TIP3    H224890   4.654   4.149   3.018  0.9811 -0.8589 -0.1179
 1159TIP3   OH224891   6.309   5.536   3.383  0.1231  0.3207 -0.0620
 1159TIP3    H124892   6.319   5.490   3.466  1.3546 -1.0570 -0.9523
 1159TIP3    H224893   6.233   5.593   3.396 -0.8204 -1.2339  1.3816
 1160TIP3   OH224894   4.588   0.272  13.252  0.1045 -0.2678  0.2003
 1160TIP3    H124895   4.582   0.309  13.164 -1.6168 -0.5039  0.1893
 1160TIP3    H224896   4.563   0.344  13.310 -0.1173 -0.4962  0.3914
 1161TIP3   OH224897   1.338   4.512   1.702  0.0803 -0.0103 -0.1921
 1161TIP3    H124898   1.340   4.606   1.719 -0.2225 -0.2467  1.1624
 1161TIP3    H224899   1.422   4.479   1.733 -0.0048 -0.2629 -0.2211
 1162TIP3   OH224900   0.975   3.719  17.202 -0.5068 -0.0893 -0.2292
 1162TIP3    H124901   1.024   3.797  17.227 -1.9198  0.5197  0.6965
 1162TIP3    H224902   1.030   3.676  17.137  1.7212  0.0428  1.4995
 1163TIP3   OH224903   3.885   3.988  13.101  0.1170  0.3934  0.8618
 1163TIP3    H124904   3.907   3.923  13.035  0.1491 -0.4621  1.7059
 1163TIP3    H224905   3.969   4.024  13.129  0.2195 -0.3992  1.5925
 1164TIP3   OH224906   4.573   2.338  15.318  0.4165  0.0710 -0.5894
 1164TIP3    H124907   4.584   2.351  15.413 -1.6399  2.5737 -0.6374
 1164TIP3    H224908   4.555   2.245  15.308  1.4304 -0.3656  1.4025
 1165TIP3   OH224909   2.984   3.294  12.646  0.4255  0.7484  0.6356
 1165TIP3    H124910   2.937   3.247  12.577  1.1810  0.6468  0.1850
 1165TIP3    H224911   3.020   3.225  12.702  2.3844  0.7435 -0.5921
 1166TIP3   OH224912   1.060   4.309   1.312 -0.5939 -0.0029  0.5784
 1166TIP3    H124913   1.081   4.223   1.275 -1.8864 -0.4899  0.9539
 1166TIP3    H224914   1.021   4.357   1.239  0.1789  0.2854  0.3540
 1167TIP3   OH224915   4.102   3.159   2.713 -0.4195 -0.0409 -0.5012
 1167TIP3    H124916   4.014   3.125   2.727  0.8133 -2.6242  1.2967
 1167TIP3    H224917   4.128   3.124   2.628 -0.0062 -1.7876  0.3305
 1168TIP3   OH224918   3.036   4.508  12.119 -0.4964 -0.8351  0.3566
 1168TIP3    H124919   2.961   4.450  12.130 -0.5420 -1.0836 -1.1925
 1168TIP3    H224920   3.000   4.596  12.125 -0.9901 -0.9474 -0.7437
 1169TIP3   OH224921   1.956   0.192  10.557  0.2756 -0.2379 -0.0205
 1169TIP3    H124922   2.041   0.148  10.551  0.9604  0.6389  2.6797
 1169TIP3    H224923   1.935   0.191  10.650 -2.5481 -0.1387 -0.6067
 1170TIP3   OH224924   0.354   5.924  14.273 -0.2302  0.4725 -0.0818
 1170TIP3    H124925   0.344   5.964  14.187  0.2538  2.2741  0.6911
 1170TIP3    H224926   0.387   5.994  14.329  1.2978 -1.1804  1.1401
 1171TIP3   OH224927   1.732   6.023  13.273 -0.8124  0.0636  0.3497
 1171TIP3    H124928   1.827   6.036  13.273 -0.8248  0.1507  0.6498
 1171TIP3    H224929   1.720   5.930  13.254 -0.7569  0.7064 -3.1998
 1172TIP3   OH224930   2.914   0.753  14.764 -0.0571 -0.0331  0.2408
 1172TIP3    H124931   2.885   0.671  14.724  2.6950 -0.9681  0.0789
 1172TIP3    H224932   2.873   0.821  14.711 -4.5068 -1.2026  1.9010
 1173TIP3   OH224933   5.179   0.133   4.320  0.2468  0.3814 -0.2798
 1173TIP3    H124934   5.145   0.197   4.258 -2.0389 -0.7768 -0.2506
 1173TIP3    H224935   5.223   0.186   4.386  1.0039  1.7336 -1.8388
 1174TIP3   OH224936   3.965   5.178  12.378 -0.2214 -0.1680 -0.1531
 1174TIP3    H124937   3.996   5.168  12.288 -2.0261 -0.1649 -0.8012
 1174TIP3    H224938   3.901   5.108  12.389 -0.8502  0.5394  0.7483
 1175TIP3   OH224939   6.287   3.987   2.365 -0.2657  0.2622  0.1959
 1175TIP3    H124940   6.236   3.942   2.297 -0.5746  3.6369 -1.9014
 1175TIP3    H224941   6.378   3.962   2.348 -0.6994 -1.9122  0.9422
 1176TIP3   OH224942   2.215   5.878   2.870  0.2644  0.0616 -0.0046
 1176TIP3    H124943   2.131   5.832   2.873  1.2362 -1.6635  1.6432
 1176TIP3    H224944   2.275   5.815   2.831  1.1825  0.6557  0.4297
 1177TIP3   OH224945   5.370   5.768  12.180 -0.1893 -0.1912  0.0839
 1177TIP3    H124946   5.444   5.781  12.120  0.2380 -0.6637  0.4967
 1177TIP3    H224947   5.295   5.754  12.122  0.2178 -0.6539 -0.3478
 1178TIP3   OH224948   0.615   0.312   2.946 -0.1472  0.4129  0.3027
 1178TIP3    H124949   0.557   0.342   2.876 -0.0058  2.1862  0.9151
 1178TIP3    H224950   0.703   0.328   2.912 -0.0857  2.5034  1.3675
 1179TIP3   OH224951   5.855   6.041  12.137  0.2698  0.0086  0.1170
 1179TIP3    H124952   5.895   6.021  12.052  0.9700  0.3579  0.3589
 1179TIP3    H224953   5.920   6.094  12.182 -0.3047  0.2370  0.6841
 1180TIP3   OH224954   2.144   3.176   2.630 -0.3946  0.3645  0.0942
 1180TIP3    H124955   2.233   3.143   2.642 -0.1606  0.7830 -0.4694
 1180TIP3    H224956   2.088   3.099   2.641  0.0814 -0.0316 -0.2405
 1181TIP3   OH224957   4.521   6.166  12.994 -0.1531  0.4971  0.0848
 1181TIP3    H124958   4.577   6.132  12.924 -0.9842  1.5731 -1.1254
 1181TIP3    H224959   4.501   6.090  13.048 -0.5135 -0.5926 -1.5561
 1182TIP3   OH224960   0.071   2.761  11.214 -0.1328  0.3379  0.1607
 1182TIP3    H124961   0.011   2.832  11.238  0.6257  0.9323  0.2930
 1182TIP3    H224962   0.073   2.705  11.292 -1.1701 -0.1343 -0.1461
 1183TIP3   OH224963   5.395   1.966  11.649 -0.0956 -0.5344  0.3788
 1183TIP3    H124964   5.320   1.949  11.592 -0.4585  0.9952  0.3752
 1183TIP3    H224965   5.419   2.057  11.629  3.0823 -1.6570 -1.1409
 1184TIP3   OH224966   6.513   3.131  15.832  0.2801  0.0694  0.2534
 1184TIP3    H124967   6.581   3.198  15.834  1.6375 -1.3101  2.3148
 1184TIP3    H224968   6.558   3.053  15.800 -0.9114 -0.2725 -0.6178
 1185TIP3   OH224969   0.901   0.748  14.339  0.4754 -0.5193 -0.8070
 1185TIP3    H124970   0.811   0.780  14.329 -0.2358 -2.0791  0.3707
 1185TIP3    H224971   0.891   0.655  14.357  2.3208 -0.5665  0.0269
 1186TIP3   OH224972   5.877   0.522   2.468 -0.0208 -0.4862  0.3654
 1186TIP3    H124973   5.958   0.498   2.513  0.0436  2.2563  1.8478
 1186TIP3    H224974   5.810   0.469   2.510  0.4477  0.0974  1.8874
 1187TIP3   OH224975   4.079   0.411  16.864 -0.1557  0.2072  0.0622
 1187TIP3    H124976   4.067   0.317  16.849  1.9422  0.0362 -0.6445
 1187TIP3    H224977   4.039   0.453  16.788  0.6354 -0.2064 -0.5917
 1188TIP3   OH224978   1.033   6.289  15.290  0.4852  0.9997  0.1696
 1188TIP3    H124979   0.984   6.214  15.322  0.9968  0.2714 -0.7066
 1188TIP3    H224980   1.012   6.360  15.350 -1.5891  0.6814 -0.1649
 1189TIP3   OH224981   4.799   4.479   0.681 -0.0941  0.1752 -0.5813
 1189TIP3    H124982   4.705   4.482   0.701 -0.6628  1.3596 -3.2105
 1189TIP3    H224983   4.840   4.530   0.750 -1.5857  1.0351 -0.3046
 1190TIP3   OH224984   0.712   1.228   0.747 -0.3175 -0.2241 -0.1622
 1190TIP3    H124985   0.742   1.139   0.765 -0.5050 -0.4075 -0.7509
 1190TIP3    H224986   0.781   1.265   0.691  0.0399  0.1915  0.5459
 1191TIP3   OH224987   6.408   0.628   5.658 -0.1277  0.1888 -0.0109
 1191TIP3    H124988   6.326   0.592   5.626  1.0498 -1.8399 -0.8444
 1191TIP3    H224989   6.417   0.594   5.747  0.2028 -0.2668 -0.2166
 1192TIP3   OH224990   4.439   3.839   3.411  0.3504 -0.5653  0.2170
 1192TIP3    H124991   4.520   3.879   3.381 -0.0155  1.5789  1.9645
 1192TIP3    H224992   4.466   3.759   3.456  1.3915 -0.5326 -0.3524
 1193TIP3   OH224993   1.311   6.211   5.017  0.1417  0.2936 -0.1408
 1193TIP3    H124994   1.370   6.236   5.088  1.0176 -1.9646 -0.0514
 1193TIP3    H224995   1.368   6.209   4.940 -0.1204 -0.5179 -0.3081
 1194TIP3   OH224996   5.040   5.246  11.443  0.0807 -0.2102  0.0645
 1194TIP3    H124997   5.002   5.167  11.405  0.4211 -0.2010 -0.3080
 1194TIP3    H224998   5.114   5.266  11.386 -0.3744  0.7284 -0.2065
 1195TIP3   OH224999   6.647   2.756   5.581 -0.7469 -1.0031  0.7955
 1195TIP3    H125000   6.644   2.850   5.600 -0.0345 -0.9472  0.6568
 1195TIP3    H225001   6.703   2.750   5.504 -0.5084 -1.5796  1.0173
 1196TIP3   OH225002   0.150   2.732   4.446  0.5314 -0.4070 -0.2132
 1196TIP3    H125003   0.198   2.753   4.526 -0.3161  1.1570 -0.0934
 1196TIP3    H225004   0.132   2.817   4.405 -2.6332 -0.8596  0.0787
 1197TIP3   OH225005   4.662   1.866   2.402  0.2800 -0.1340  0.0079
 1197TIP3    H125006   4.710   1.796   2.359 -1.5986 -1.6673  0.3424
 1197TIP3    H225007   4.584   1.878   2.348 -0.0143  0.8453  0.6384
 1198TIP3   OH225008   0.131   5.619   3.722  0.0304  0.1916 -0.0514
 1198TIP3    H125009   0.108   5.710   3.742 -0.5241  0.1019 -0.2686
 1198TIP3    H225010   0.062   5.589   3.663 -0.0793 -0.5398  0.4461
 1199TIP3   OH225011   6.484   1.809   4.336  0.8454 -0.2806 -0.1587
 1199TIP3    H125012   6.557   1.792   4.277  0.8130  0.3544 -0.3769
 1199TIP3    H225013   6.488   1.902   4.355  0.4966 -0.3668  0.3717
 1200TIP3   OH225014   6.359   5.525   5.268 -0.1007 -0.3723 -0.1711
 1200TIP3    H125015   6.342   5.476   5.348 -0.2292 -0.6676 -0.3769
 1200TIP3    H225016   6.454   5.522   5.257  0.0559  0.8822  0.7283
 1201TIP3   OH225017   3.863   4.958  14.839  0.3518  0.1369  0.7145
 1201TIP3    H125018   3.894   5.046  14.862  1.2427 -0.2843  1.1521
 1201TIP3    H225019   3.809   4.931  14.914 -0.1059  0.3965  0.4811
 1202TIP3   OH225020   4.327   5.984  15.535  0.0273 -0.2770 -0.7042
 1202TIP3    H125021   4.358   6.069  15.567 -2.3364 -0.0792  1.1999
 1202TIP3    H225022   4.402   5.947  15.488  1.9486  1.6986  0.7173
 1203TIP3   OH225023   5.819   4.250  15.120 -0.2457 -0.0004 -0.0723
 1203TIP3    H125024   5.754   4.309  15.083 -0.3951  0.6167  1.1323
 1203TIP3    H225025   5.819   4.174  15.062 -1.1386  0.5324 -0.7844
 1204TIP3   OH225026   1.913   0.075   3.408  0.6473 -0.1202 -0.4200
 1204TIP3    H125027   1.859   0.006   3.370  1.4370 -1.1240  0.2701
 1204TIP3    H225028   1.851   0.133   3.451  0.2012 -1.8656  1.3222
 1205TIP3   OH225029   3.013   3.325  11.811  0.2660 -0.7034  0.3353
 1205TIP3    H125030   3.013   3.417  11.786  0.6972 -0.3382  1.6639
 1205TIP3    H225031   3.002   3.325  11.906 -0.6453 -2.0513  0.2505
 1206TIP3   OH225032   4.989   3.325  13.365 -0.3972  0.8338 -0.5109
 1206TIP3    H125033   4.917   3.266  13.341  1.4615 -1.1988 -1.2724
 1206TIP3    H225034   5.046   3.272  13.421  0.1482  2.6354  0.6573
 1207TIP3   OH225035   0.855   5.073   4.075 -0.1454 -0.4523  0.1515
 1207TIP3    H125036   0.777   5.113   4.113 -2.2682 -1.4680 -2.9434
 1207TIP3    H225037   0.854   4.983   4.107 -0.2217 -0.4514  0.1484
 1208TIP3   OH225038   2.552   3.728  16.617  0.1632  0.2643 -0.7403
 1208TIP3    H125039   2.635   3.741  16.573 -0.2572  1.1924 -1.2687
 1208TIP3    H225040   2.516   3.816  16.628 -1.5072 -0.2427 -1.9814
 1209TIP3   OH225041   5.501   0.113   5.340 -0.1499  0.0339 -0.1988
 1209TIP3    H125042   5.587   0.070   5.335 -0.6155 -0.9190 -0.0518
 1209TIP3    H225043   5.503   0.179   5.270  0.7128  0.0469 -0.1720
 1210TIP3   OH225044   2.356   4.629  12.063 -0.2784 -0.2098 -0.0079
 1210TIP3    H125045   2.274   4.612  12.017  0.1969  0.6794 -1.2499
 1210TIP3    H225046   2.376   4.548  12.109 -1.0378 -0.9741 -0.9913
 1211TIP3   OH225047   3.162   2.174  15.250 -0.0281 -0.4717  0.1659
 1211TIP3    H125048   3.233   2.158  15.188  0.4156 -0.8492  0.7704
 1211TIP3    H225049   3.083   2.176  15.196  0.7079  2.6022 -0.8935
 1212TIP3   OH225050   5.552   3.395  15.944 -0.2763  0.5558  0.5079
 1212TIP3    H125051   5.536   3.391  16.038  1.6168 -0.6100  0.8026
 1212TIP3    H225052   5.595   3.312  15.923 -1.8009  0.2555 -1.6137
 1213TIP3   OH225053   1.404   0.197  13.336 -0.1181  0.0602  0.3267
 1213TIP3    H125054   1.488   0.237  13.313  0.0337 -0.4213  0.0439
 1213TIP3    H225055   1.367   0.170  13.252 -0.6017  0.3635  0.4433
 1214TIP3   OH225056   1.781   3.239   5.674  0.0348  0.0190 -0.3393
 1214TIP3    H125057   1.780   3.144   5.667  1.3140  0.0744 -1.6435
 1214TIP3    H225058   1.825   3.256   5.757 -1.0317 -0.5297  0.3459
 1215TIP3   OH225059   3.527   5.380  14.783  0.0728 -0.0006 -0.4091
 1215TIP3    H125060   3.443   5.404  14.746 -0.7020 -2.3403 -0.2285
 1215TIP3    H225061   3.553   5.301  14.735  1.1988 -0.4489  0.9159
 1216TIP3   OH225062   5.278   4.115  10.972  0.0283  0.0170  0.1281
 1216TIP3    H125063   5.196   4.111  11.021 -0.3307 -1.8776 -0.5759
 1216TIP3    H225064   5.255   4.160  10.891 -0.1309  0.2583  0.3091
 1217TIP3   OH225065   6.785   4.488   0.253  0.3911 -0.3221  0.0214
 1217TIP3    H125066   6.740   4.559   0.300 -3.4675 -2.6718  0.1004
 1217TIP3    H225067   6.857   4.463   0.311 -0.2053  1.3020  1.5074
 1218TIP3   OH225068   3.284   5.411   0.352  0.1689  0.2501 -0.3039
 1218TIP3    H125069   3.220   5.392   0.283 -0.2190  1.6060 -0.3272
 1218TIP3    H225070   3.239   5.387   0.433 -0.6147  1.7499 -0.2702
 1219TIP3   OH225071   1.342   1.289  11.967 -0.0519  0.5758  0.0626
 1219TIP3    H125072   1.362   1.323  11.880 -1.3893 -0.2896 -0.5835
 1219TIP3    H225073   1.293   1.360  12.009  1.6893  1.5083  0.5966
 1220TIP3   OH225074   2.318   6.525  14.882  0.5736  0.2143  0.0649
 1220TIP3    H125075   2.298   6.528  14.788 -0.4834 -0.6905  0.2384
 1220TIP3    H225076   2.387   6.459  14.890  1.2704  0.9119 -0.1687
 1221TIP3   OH225077   0.108   1.406  15.646  0.1788 -0.0749  0.5926
 1221TIP3    H125078   0.131   1.497  15.660  0.9890 -0.1786 -0.0235
 1221TIP3    H225079   0.018   1.409  15.612  0.2457  0.4935  0.4719
 1222TIP3   OH225080   5.618   1.491   5.394 -0.1172 -0.1457  0.2103
 1222TIP3    H125081   5.644   1.408   5.355  1.2222 -0.9319  2.6771
 1222TIP3    H225082   5.603   1.549   5.319  0.0119 -2.2709 -1.5055
 1223TIP3   OH225083   5.710   1.988  12.773  0.3783 -0.8308  0.0200
 1223TIP3    H125084   5.788   1.951  12.730  0.2533  0.1176 -1.0387
 1223TIP3    H225085   5.648   2.002  12.701 -0.1233  0.0679  0.6242
 1224TIP3   OH225086   3.601   6.179   4.471  0.4234  0.1067 -0.3192
 1224TIP3    H125087   3.646   6.197   4.388  1.2937 -3.3635 -0.6383
 1224TIP3    H225088   3.514   6.219   4.459  1.1917  1.3218 -2.1466
 1225TIP3   OH225089   5.498   5.237   3.970 -0.2314  0.0487  0.3807
 1225TIP3    H125090   5.582   5.258   4.011 -1.0175  0.6330  1.7246
 1225TIP3    H225091   5.489   5.142   3.981  0.8374 -0.2156 -0.9191
 1226TIP3   OH225092   5.446   2.453   0.638 -0.2668  0.1383  0.5138
 1226TIP3    H125093   5.419   2.537   0.601 -0.6093  0.2382  0.9890
 1226TIP3    H225094   5.529   2.472   0.682 -0.2747  0.1991  0.5024
 1227TIP3   OH225095   1.481   2.528   4.372 -0.1468  0.2305  0.2635
 1227TIP3    H125096   1.488   2.514   4.278  0.1557  1.9552  0.0050
 1227TIP3    H225097   1.411   2.469   4.400  0.5200 -1.1128 -0.8441
 1228TIP3   OH225098   5.392   6.092  12.108  0.2529 -0.3082 -0.2447
 1228TIP3    H125099   5.441   6.019  12.069 -0.5463 -1.0645  0.1436
 1228TIP3    H225100   5.395   6.076  12.202  2.5588  1.7624  0.0835
 1229TIP3   OH225101   5.574   2.277   0.094 -0.5698 -0.5641 -0.1564
 1229TIP3    H125102   5.599   2.186   0.075  0.7391 -0.0554 -0.9242
 1229TIP3    H225103   5.558   2.277   0.189 -0.0368 -1.4818 -0.0549
 1230TIP3   OH225104   6.283   1.107   0.930 -0.0887 -0.4300 -0.5205
 1230TIP3    H125105   6.225   1.101   0.854 -0.0881  1.1481 -0.6610
 1230TIP3    H225106   6.296   1.201   0.943  1.4155 -0.7334  0.2841
 1231TIP3   OH225107   1.954   3.424  15.931  0.0405  0.2545 -0.4167
 1231TIP3    H125108   1.984   3.370  15.858  3.0572 -0.4777  1.2593
 1231TIP3    H225109   2.003   3.506  15.921 -2.2528  1.5680 -1.2316
 1232TIP3   OH225110   0.606   1.543  14.126 -0.8866 -0.5674 -0.4179
 1232TIP3    H125111   0.515   1.568  14.107 -0.6429  0.2201 -0.5711
 1232TIP3    H225112   0.658   1.605  14.075 -0.2222  0.9745  2.0325
 1233TIP3   OH225113   1.482   4.965   5.342 -0.0017  0.0877 -0.5678
 1233TIP3    H125114   1.569   4.986   5.309  0.9528  0.5385  2.0835
 1233TIP3    H225115   1.462   5.036   5.404 -1.4036 -1.0347  0.3145
 1234TIP3   OH225116   2.995   1.686   3.758  0.2393  0.4340 -0.6647
 1234TIP3    H125117   2.903   1.690   3.735 -0.1975 -1.6833  0.6263
 1234TIP3    H225118   3.029   1.611   3.710  0.2805 -1.4182  2.1584
 1235TIP3   OH225119   1.531   2.352   4.725 -0.1689 -0.3666 -0.0913
 1235TIP3    H125120   1.479   2.387   4.653  0.3042 -1.8387 -1.1858
 1235TIP3    H225121   1.484   2.379   4.804  0.0677  2.4622 -0.8829
 1236TIP3   OH225122   4.877   6.521  11.820 -1.1086  0.3597 -0.2301
 1236TIP3    H125123   4.960   6.487  11.787 -0.4020  1.2223  0.6387
 1236TIP3    H225124   4.830   6.551  11.742  0.2806  1.8011 -0.5163
 1237TIP3   OH225125   3.239   4.698  14.165 -0.0487  0.6667 -0.1408
 1237TIP3    H125126   3.153   4.676  14.201  0.8657  0.2037  1.8550
 1237TIP3    H225127   3.301   4.670  14.233  1.8493 -1.4243 -2.6002
 1238TIP3   OH225128   3.195   6.731   4.567  0.3635 -0.3303  0.9660
 1238TIP3    H125129   3.185   6.824   4.544 -1.1337 -0.4223  1.2267
 1238TIP3    H225130   3.106   6.696   4.567  1.0927 -2.3234 -1.3538
 1239TIP3   OH225131   5.526   4.500   4.258 -0.1446  1.1238 -0.4844
 1239TIP3    H125132   5.461   4.562   4.225 -0.1583  1.2070 -0.3003
 1239TIP3    H225133   5.600   4.509   4.197  0.1343  1.8301 -0.0443
 1240TIP3   OH225134   5.129   3.853   1.279 -0.3676 -0.2888  0.9428
 1240TIP3    H125135   5.102   3.810   1.198 -2.4126 -0.2602  1.5633
 1240TIP3    H225136   5.114   3.946   1.263 -1.2255 -0.3233  1.4941
 1241TIP3   OH225137   2.397   2.516   1.100  0.2536  0.7210  0.2846
 1241TIP3    H125138   2.350   2.558   1.171  1.0259 -0.6838  1.6597
 1241TIP3    H225139   2.362   2.427   1.097  2.0226 -0.0177  0.6178
 1242TIP3   OH225140   2.968   4.129  11.679  0.0303  0.0239  0.3905
 1242TIP3    H125141   3.050   4.129  11.631 -1.2180  1.7053 -1.8192
 1242TIP3    H225142   2.988   4.174  11.761  1.3181  0.3581 -0.1028
 1243TIP3   OH225143   2.042   4.067  13.649  0.0629 -0.3899 -0.2644
 1243TIP3    H125144   2.043   3.973  13.629  0.7308 -0.6719  1.0202
 1243TIP3    H225145   1.998   4.072  13.734  1.8326  0.2597  0.6156
 1244TIP3   OH225146   4.977   3.141   6.307 -0.2483  0.3494  0.7989
 1244TIP3    H125147   4.923   3.138   6.386  0.4165  0.8789  1.2895
 1244TIP3    H225148   4.923   3.102   6.238 -0.8420 -0.0936  1.5135
 1245TIP3   OH225149   4.814   2.932   3.954  0.1076 -0.1644  0.0159
 1245TIP3    H125150   4.743   2.894   4.005  1.1178  0.4960  1.9811
 1245TIP3    H225151   4.814   3.024   3.977 -0.7941  0.6234 -2.9016
 1246TIP3   OH225152   6.679   3.760  12.151  0.1751 -0.0087 -0.5612
 1246TIP3    H125153   6.636   3.707  12.219  0.3946 -0.6779 -0.9305
 1246TIP3    H225154   6.756   3.797  12.194 -0.3746  0.6037 -0.0971
 1247TIP3   OH225155   1.243   2.459  12.015 -0.0244 -0.7129  0.0207
 1247TIP3    H125156   1.224   2.367  12.034 -0.9037 -0.2448  1.5437
 1247TIP3    H225157   1.157   2.501  12.012  0.3705  0.0662 -0.6988
 1248TIP3   OH225158   6.282   3.463  15.397 -0.6848 -0.0746 -0.1235
 1248TIP3    H125159   6.187   3.454  15.388 -1.1136  1.6517  2.0920
 1248TIP3    H225160   6.303   3.416  15.478  0.2672  0.0403 -0.2995
 1249TIP3   OH225161   5.025   4.812  15.319  0.4936 -0.5749 -0.1722
 1249TIP3    H125162   4.952   4.869  15.342  0.0361 -0.9167 -0.7595
 1249TIP3    H225163   5.022   4.805  15.223  0.2406 -1.9738 -0.0729
 1250TIP3   OH225164   0.101   0.941   3.428  0.2532 -0.0303 -0.4386
 1250TIP3    H125165   0.146   0.884   3.366 -1.2496 -0.3374 -1.2725
 1250TIP3    H225166   0.069   0.882   3.496  1.4657  0.2430  0.3809
 1251TIP3   OH225167   2.603   1.638  13.212 -0.3170  0.1979 -0.1537
 1251TIP3    H125168   2.692   1.663  13.237 -0.6733  1.4015 -0.0534
 1251TIP3    H225169   2.600   1.653  13.118 -0.2245 -0.4282 -0.2553
 1252TIP3   OH225170   0.675   4.614   2.755 -0.2954 -0.1396 -0.1118
 1252TIP3    H125171   0.648   4.551   2.822  0.1623 -0.8909 -0.6385
 1252TIP3    H225172   0.592   4.652   2.724 -0.5089  0.2526  0.9098
 1253TIP3   OH225173   4.528   0.976   3.729 -0.6056  0.3798  0.1049
 1253TIP3    H125174   4.444   0.993   3.773  0.2049 -3.5456  3.4513
 1253TIP3    H225175   4.593   1.017   3.787  0.1481 -1.1043  0.3189
 1254TIP3   OH225176   0.125   0.456   2.224  0.5028  0.3611  0.5090
 1254TIP3    H125177   0.066   0.399   2.272  1.0098 -0.4177  0.2198
 1254TIP3    H225178   0.084   0.466   2.138 -0.1241  1.3070  0.9065
 1255TIP3   OH225179   6.736   6.222   3.308 -0.1029  0.1638 -0.3399
 1255TIP3    H125180   6.656   6.263   3.340 -0.4909  0.3164 -1.4632
 1255TIP3    H225181   6.712   6.131   3.292  0.3766 -0.1665  0.8105
 1256TIP3   OH225182   1.034   5.422  13.012  0.1911 -0.1889  0.0552
 1256TIP3    H125183   1.066   5.352  12.956 -0.7726 -0.0061 -0.7348
 1256TIP3    H225184   0.988   5.378  13.084 -1.6331 -0.3453 -1.1868
 1257TIP3   OH225185   0.178   3.854   2.714  0.0235 -0.1145 -0.7163
 1257TIP3    H125186   0.214   3.862   2.802  0.2996  2.6078 -1.0554
 1257TIP3    H225187   0.252   3.875   2.656 -0.9758  1.2113 -1.5243
 1258TIP3   OH225188   2.074   2.957  16.211 -0.3986  0.4214  0.0360
 1258TIP3    H125189   2.143   2.891  16.210 -2.1726 -1.5693  1.7474
 1258TIP3    H225190   2.010   2.923  16.275 -3.3092  1.8038 -2.0414
 1259TIP3   OH225191   3.809   4.270  16.791  0.3378 -0.0784 -0.2907
 1259TIP3    H125192   3.732   4.253  16.846  0.0839 -1.4599 -1.0341
 1259TIP3    H225193   3.840   4.356  16.819 -0.5497 -0.1874  1.1127
 1260TIP3   OH225194   3.782   3.515   6.092 -0.3646  0.4954  1.1379
 1260TIP3    H125195   3.768   3.443   6.032 -1.2576  0.5665  1.2579
 1260TIP3    H225196   3.759   3.480   6.178 -2.7456  1.4698  0.9571
 1261TIP3   OH225197   0.007   2.731   5.332 -0.0101  0.2606 -0.7426
 1261TIP3    H125198   0.092   2.726   5.377 -0.4347  0.9797  0.1524
 1261TIP3    H225199   0.015   2.670   5.259  1.2887  0.3391 -0.6715
 1262TIP3   OH225200   0.926   2.760   1.722  0.2876 -0.2747  0.0611
 1262TIP3    H125201   0.916   2.853   1.740 -1.8421 -0.6139  0.7824
 1262TIP3    H225202   0.922   2.718   1.808 -0.3162 -1.1461 -0.3804
 1263TIP3   OH225203   6.345   0.657  15.449  0.5655 -0.0278 -0.0337
 1263TIP3    H125204   6.392   0.589  15.497 -0.0677 -0.3673  0.1077
 1263TIP3    H225205   6.253   0.636  15.462  0.3798  0.1838 -0.9493
 1264TIP3   OH225206   4.530   1.713  13.878 -0.0281 -0.0884 -0.1841
 1264TIP3    H125207   4.441   1.710  13.842 -0.9431 -0.3432  1.9988
 1264TIP3    H225208   4.550   1.621  13.897 -0.4048  0.2239  1.8549
 1265TIP3   OH225209   1.034   4.748   5.272  0.1733  0.6150  0.0788
 1265TIP3    H125210   0.959   4.690   5.283 -0.0609  0.8851 -0.0978
 1265TIP3    H225211   0.996   4.834   5.256  0.5153  1.0459  1.5237
 1266TIP3   OH225212   0.459   6.033   5.076  0.1813  0.6231  0.2238
 1266TIP3    H125213   0.443   6.024   4.982 -1.4335  0.1479  0.5393
 1266TIP3    H225214   0.544   5.991   5.090 -0.7090 -1.5322 -0.6401
 1267TIP3   OH225215   0.905   3.011   2.025  0.0054  0.2932  0.0719
 1267TIP3    H125216   0.845   3.067   2.074  2.1523  0.7165  2.2797
 1267TIP3    H225217   0.926   3.061   1.946 -0.3957  1.3120  0.6082
 1268TIP3   OH225218   5.187   2.653   2.882  0.6864  0.3616 -0.3507
 1268TIP3    H125219   5.245   2.673   2.955 -0.9591 -0.2159  1.1359
 1268TIP3    H225220   5.138   2.733   2.868  0.3888  0.1970 -0.2519
 1269TIP3   OH225221   0.753   2.324  12.036 -0.6235  0.2639  0.1636
 1269TIP3    H125222   0.657   2.321  12.031 -0.6509  0.0154  0.7821
 1269TIP3    H225223   0.776   2.252  12.095  0.0043 -0.2845 -0.7284
 1270TIP3   OH225224   6.114   4.255   4.593 -0.1667 -0.0212  0.4418
 1270TIP3    H125225   6.173   4.330   4.590  0.8354 -0.7611  1.2467
 1270TIP3    H225226   6.168   4.183   4.627 -1.3261 -0.8995  0.4644
 1271TIP3   OH225227   3.596   3.620  12.146 -0.2845  0.2760 -0.7949
 1271TIP3    H125228   3.678   3.643  12.102 -1.0955  0.0280 -2.4632
 1271TIP3    H225229   3.551   3.703  12.159  0.1776  0.4016  0.0329
 1272TIP3   OH225230   5.703   5.341   6.208 -0.1002  0.2836  0.1081
 1272TIP3    H125231   5.736   5.287   6.280  1.0957 -0.7324 -1.1580
 1272TIP3    H225232   5.640   5.400   6.249  0.3516 -0.4543  1.9358
 1273TIP3   OH225233   4.057   3.178  13.876 -0.2490  0.0689 -0.5674
 1273TIP3    H125234   3.980   3.218  13.917  0.8181  0.6346  0.9292
 1273TIP3    H225235   4.126   3.244  13.884  1.6677 -2.1244  2.2745
 1274TIP3   OH225236   4.225   0.747   2.409  0.1287  0.2435 -0.0850
 1274TIP3    H125237   4.264   0.710   2.488 -0.9578  0.0532  0.3709
 1274TIP3    H225238   4.286   0.816   2.381  0.7972 -0.0779  0.5923
 1275TIP3   OH225239   1.813   4.295   5.155  0.1437  0.9645 -0.1302
 1275TIP3    H125240   1.766   4.370   5.192  0.6763  0.8915  0.7169
 1275TIP3    H225241   1.852   4.252   5.231 -0.3123 -0.2807 -0.5892
 1276TIP3   OH225242   3.537   0.158  17.224 -0.1903  0.1630  0.7887
 1276TIP3    H125243   3.566   0.067  17.231 -0.6449 -0.0739 -0.3028
 1276TIP3    H225244   3.444   0.155  17.245 -0.0875  0.4673  1.3019
 1277TIP3   OH225245   5.244   5.487  13.243 -0.6459  0.5292 -0.2688
 1277TIP3    H125246   5.259   5.396  13.217  0.9063  0.6015  0.3509
 1277TIP3    H225247   5.229   5.534  13.161 -0.3506 -0.0863 -0.6702
 1278TIP3   OH225248   0.171   1.483   2.151  0.4076  0.8936 -0.7540
 1278TIP3    H125249   0.216   1.541   2.089  1.2361  1.1432  0.0573
 1278TIP3    H225250   0.240   1.426   2.185 -0.6145 -1.3795 -2.4021
 1279TIP3   OH225251   2.030   4.388  12.857  0.6340 -0.0634  0.2791
 1279TIP3    H125252   2.077   4.305  12.860 -1.5377 -1.2926  0.8413
 1279TIP3    H225253   1.995   4.400  12.945 -0.1268  0.8380 -0.1341
 1280TIP3   OH225254   3.280   0.948  10.475 -0.6079 -0.5024 -0.6443
 1280TIP3    H125255   3.193   0.909  10.484 -0.1556 -1.1158  1.1252
 1280TIP3    H225256   3.334   0.880  10.436 -0.2601 -1.0477  0.7770
 1281TIP3   OH225257   0.950   5.177  16.692 -0.5856 -0.6544 -0.2768
 1281TIP3    H125258   0.884   5.245  16.699  0.5859  0.2788  2.1762
 1281TIP3    H225259   1.028   5.223  16.659  0.3311 -0.6820  1.7851
 1282TIP3   OH225260   5.975   6.549   0.782  0.5103 -0.3529  0.6358
 1282TIP3    H125261   6.031   6.481   0.743 -0.2272  0.4947 -1.9662
 1282TIP3    H225262   5.887   6.511   0.781  0.6678 -0.8608  2.8150
 1283TIP3   OH225263   4.279   5.198  15.554 -0.3923 -0.2301  0.3014
 1283TIP3    H125264   4.332   5.118  15.555 -0.4567 -0.2913  2.7558
 1283TIP3    H225265   4.215   5.184  15.485  0.9692 -1.3736 -0.7574
 1284TIP3   OH225266   5.364   5.968   5.257 -0.5046  0.3278  0.2177
 1284TIP3    H125267   5.390   5.958   5.165  1.0861 -0.0007  0.6950
 1284TIP3    H225268   5.299   6.038   5.256  0.3143  1.0842 -1.0204
 1285TIP3   OH225269   3.926   5.742  13.730 -0.0476  0.0247  0.5161
 1285TIP3    H125270   3.933   5.811  13.795 -3.3666 -0.3698  1.4133
 1285TIP3    H225271   3.977   5.669  13.767 -0.0837  0.5480  1.6219
 1286TIP3   OH225272   6.419   1.532   2.663  0.1053  0.1793  0.6084
 1286TIP3    H125273   6.494   1.487   2.624  0.3146 -0.4545  1.7379
 1286TIP3    H225274   6.429   1.623   2.635  0.4790 -0.1831 -0.4687
 1287TIP3   OH225275   3.716   1.086  17.080 -0.2257  0.5057  0.0479
 1287TIP3    H125276   3.668   1.157  17.039 -2.6549 -1.0931  0.0468
 1287TIP3    H225277   3.674   1.074  17.165 -0.8511 -1.8639 -0.5375
 1288TIP3   OH225278   1.931   5.367  14.360  0.6646 -0.0304  0.9778
 1288TIP3    H125279   2.022   5.370  14.332  0.9088  0.2370  1.7985
 1288TIP3    H225280   1.883   5.411  14.290  0.9945 -1.3908 -0.1361
 1289TIP3   OH225281   5.103   4.296   4.781 -0.4596 -0.3204  0.9756
 1289TIP3    H125282   5.172   4.255   4.728 -0.4468  1.2597 -0.2551
 1289TIP3    H225283   5.024   4.249   4.758 -0.2229 -0.4980  0.5222
 1290TIP3   OH225284   2.453   1.878  16.523  0.2115 -0.1859 -0.1326
 1290TIP3    H125285   2.544   1.858  16.503  0.0918  0.6465 -1.5818
 1290TIP3    H225286   2.407   1.795  16.511  0.3710 -0.0315 -2.0317
 1291TIP3   OH225287   5.605   6.654   0.058  0.5345  0.5181 -0.0711
 1291TIP3    H125288   5.672   6.690   0.116 -1.3893  3.2662  0.5853
 1291TIP3    H225289   5.546   6.728   0.042 -1.8000 -1.5588 -1.3605
 1292TIP3   OH225290   6.542   5.199   3.182  0.3385  0.4215  0.4972
 1292TIP3    H125291   6.634   5.194   3.155  0.4022 -0.8624  0.9373
 1292TIP3    H225292   6.536   5.283   3.228  0.7393  1.5869 -1.5292
 1293TIP3   OH225293   5.070   0.168   3.085 -0.3337 -0.6174 -0.0193
 1293TIP3    H125294   5.006   0.118   3.034 -1.4679 -0.4520  1.2329
 1293TIP3    H225295   5.051   0.259   3.064 -0.0958 -0.5976 -0.1431
 1294TIP3   OH225296   1.269   3.572   4.415  1.0311 -0.2228  0.1646
 1294TIP3    H125297   1.334   3.637   4.388  0.9036 -0.1456  0.0465
 1294TIP3    H225298   1.250   3.523   4.335 -0.7399  1.2064 -0.3141
 1295TIP3   OH225299   6.422   3.751   6.436  0.2852  0.9349  0.5479
 1295TIP3    H125300   6.357   3.799   6.383 -0.2929 -0.2309  0.1809
 1295TIP3    H225301   6.464   3.818   6.488  0.4917  2.0604 -1.0181
 1296TIP3   OH225302   5.327   4.000   5.129 -0.4357  0.2488 -0.2018
 1296TIP3    H125303   5.270   4.076   5.117 -0.6627 -0.0243 -0.8674
 1296TIP3    H225304   5.267   3.926   5.137 -0.1821 -0.0279 -0.8184
 1297TIP3   OH225305   5.976   6.587  14.040 -0.0618  0.1526 -0.7817
 1297TIP3    H125306   5.986   6.505  13.993 -0.6894 -0.1616 -0.3644
 1297TIP3    H225307   6.064   6.624  14.043 -0.0140  0.1895 -2.2270
 1298TIP3   OH225308   0.974   3.648  11.278 -0.4496  0.5290  0.4961
 1298TIP3    H125309   0.899   3.590  11.275  1.2902 -1.7321 -1.2544
 1298TIP3    H225310   1.015   3.629  11.363 -0.6999  0.2444  0.5548
 1299TIP3   OH225311   0.943   4.536   3.508  0.4180  0.2099  0.1931
 1299TIP3    H125312   1.018   4.509   3.561  1.6402  1.4726 -0.8587
 1299TIP3    H225313   0.931   4.465   3.446  1.5584  0.5729 -0.4559
 1300TIP3   OH225314   6.745   6.009   2.569  0.2516  0.5108 -0.8863
 1300TIP3    H125315   6.691   6.087   2.554 -0.4774  0.3377  0.6214
 1300TIP3    H225316   6.712   5.945   2.507  0.5392  1.2581 -1.8171
 1301TIP3   OH225317   1.391   5.984   4.109  0.1078 -0.4852 -0.1059
 1301TIP3    H125318   1.344   5.991   4.193 -0.8641 -0.7959 -0.6117
 1301TIP3    H225319   1.473   6.031   4.123  0.4634 -1.4985  1.3932
 1302TIP3   OH225320   1.157   6.126  11.366 -0.1951  0.5106  1.0836
 1302TIP3    H125321   1.190   6.125  11.276  0.5207 -1.5985  1.3371
 1302TIP3    H225322   1.178   6.213  11.399 -1.5597  1.7315 -1.1760
 1303TIP3   OH225323   3.919   3.762   4.764 -0.1805 -0.3140 -0.4983
 1303TIP3    H125324   3.950   3.833   4.708  1.3154  0.5080  1.3177
 1303TIP3    H225325   3.845   3.799   4.812  0.3173 -0.1209  0.1228
 1304TIP3   OH225326   3.010   6.294   4.069  0.0356 -0.5034 -0.4644
 1304TIP3    H125327   3.080   6.341   4.023  0.3652 -2.3465 -1.8862
 1304TIP3    H225328   3.045   6.281   4.158  1.1485 -0.6595 -0.9144
 1305TIP3   OH225329   3.561   4.154   1.077 -0.4318  0.1851  0.1743
 1305TIP3    H125330   3.492   4.208   1.116  0.5900  1.0742  0.7985
 1305TIP3    H225331   3.577   4.193   0.991 -0.0520  0.5733  0.4172
 1306TIP3   OH225332   2.342   3.771   2.838  0.0355 -0.4001  0.0097
 1306TIP3    H125333   2.251   3.795   2.854  0.5009 -0.0003  2.1900
 1306TIP3    H225334   2.352   3.778   2.743 -1.4424  2.3418  0.0085
 1307TIP3   OH225335   5.360   1.962  15.449  0.5123 -0.2498 -0.5565
 1307TIP3    H125336   5.437   2.008  15.482  1.4914 -2.1241 -0.1489
 1307TIP3    H225337   5.347   1.890  15.510 -2.4454  0.8234  0.1775
 1308TIP3   OH225338   3.859   4.151   2.100  0.0895 -0.3985 -0.4263
 1308TIP3    H125339   3.908   4.070   2.084 -0.7121 -0.6216 -1.7704
 1308TIP3    H225340   3.912   4.198   2.164  2.7751 -0.0557 -2.7837
 1309TIP3   OH225341   3.390   1.902   5.066  0.3234 -0.7796  0.4061
 1309TIP3    H125342   3.372   1.844   4.993  3.3848 -1.1395 -0.1317
 1309TIP3    H225343   3.341   1.981   5.047  1.2060 -0.8120 -2.1641
 1310TIP3   OH225344   2.386   3.918  11.918  0.2789  0.0255 -0.8989
 1310TIP3    H125345   2.393   3.828  11.886 -2.0597 -0.3406 -0.4697
 1310TIP3    H225346   2.407   3.972  11.842  0.4976 -0.8775 -1.4896
 1311TIP3   OH225347   1.364   0.002  11.642 -0.2678 -0.0649  0.0465
 1311TIP3    H125348   1.425   0.050  11.587 -1.5089  1.7296  0.1710
 1311TIP3    H225349   1.306   0.070  11.678 -1.7352 -1.6037  0.6690
 1312TIP3   OH225350   3.724   2.620  10.658 -0.1949  0.6189 -0.4304
 1312TIP3    H125351   3.648   2.641  10.603 -0.4846  1.5861  0.3202
 1312TIP3    H225352   3.687   2.569  10.731 -0.1275  1.1046 -0.0567
 1313TIP3   OH225353   5.820   2.896  11.990 -0.1509 -0.0635 -0.2222
 1313TIP3    H125354   5.864   2.929  12.068 -0.4760  0.4139 -0.2394
 1313TIP3    H225355   5.886   2.840  11.947 -0.1901 -0.8326  0.7134
 1314TIP3   OH225356   5.390   6.609  11.011 -0.1060  0.8275  0.8891
 1314TIP3    H125357   5.407   6.656  11.092  0.6313  0.9570  0.6654
 1314TIP3    H225358   5.332   6.666  10.961  0.1435  1.1415  0.9583
 1315TIP3   OH225359   4.891   5.473  16.086  0.3583 -0.1137 -0.1071
 1315TIP3    H125360   4.917   5.432  16.003 -0.9859  1.9031 -1.5748
 1315TIP3    H225361   4.812   5.425  16.112  0.4103 -0.3238 -0.3251
 1316TIP3   OH225362   4.341   0.721  11.475  0.3971 -0.0112 -0.4417
 1316TIP3    H125363   4.269   0.761  11.523  0.2168  0.4549 -1.0803
 1316TIP3    H225364   4.301   0.646  11.430  0.7820 -1.0422  0.9302
 1317TIP3   OH225365   2.304   5.649  11.456  0.2270  0.5289 -0.1071
 1317TIP3    H125366   2.270   5.634  11.368  0.4379 -0.8538  0.0343
 1317TIP3    H225367   2.378   5.589  11.463  0.6056  1.0976  0.7853
 1318TIP3   OH225368   2.812   1.195  15.545  0.1010  0.3978  0.0495
 1318TIP3    H125369   2.829   1.271  15.602  0.3756  1.2698 -1.1821
 1318TIP3    H225370   2.891   1.142  15.552 -1.1506 -1.2083  3.0740
 1319TIP3   OH225371   0.880   4.645  12.683 -0.5902  0.0331  0.6728
 1319TIP3    H125372   0.898   4.670  12.774  0.6559  0.8439  0.2184
 1319TIP3    H225373   0.901   4.723  12.632 -0.5885 -0.6445 -0.3834
 1320TIP3   OH225374   5.201   2.611   0.347  0.0633  0.2228  0.2369
 1320TIP3    H125375   5.188   2.705   0.359 -1.0944 -0.0748  1.5297
 1320TIP3    H225376   5.284   2.593   0.391  0.0502  0.5668  0.4099
 1321TIP3   OH225377   4.677   2.228   2.453 -0.3060 -0.4170  0.1967
 1321TIP3    H125378   4.719   2.165   2.511  0.3137 -0.4732 -0.2998
 1321TIP3    H225379   4.646   2.176   2.379 -1.5075 -0.4137  0.6868
 1322TIP3   OH225380   0.805   1.450  14.480 -0.5513 -0.1030 -0.0300
 1322TIP3    H125381   0.842   1.408  14.557 -1.8114 -0.1650  0.5629
 1322TIP3    H225382   0.866   1.520  14.459  0.0849 -0.4285  0.6967
 1323TIP3   OH225383   5.939   6.049   4.705 -0.3259 -0.1479 -0.1051
 1323TIP3    H125384   6.004   6.058   4.775 -0.5000 -0.9896  0.1751
 1323TIP3    H225385   5.893   5.968   4.726 -0.4270 -0.3674 -1.1623
 1324TIP3   OH225386   0.086   3.430  14.183 -0.3352 -0.2574  0.0603
 1324TIP3    H125387   0.165   3.376  14.185 -0.8682 -1.0594 -0.1380
 1324TIP3    H225388   0.079   3.464  14.272 -0.0237 -0.5667  0.2065
 1325TIP3   OH225389   2.975   1.055  13.613  0.1400  0.0941 -0.4685
 1325TIP3    H125390   2.903   1.046  13.675 -0.1232  2.4966 -0.3999
 1325TIP3    H225391   3.051   1.079  13.666 -0.0300  1.9261 -1.0339
 1326TIP3   OH225392   0.051   0.847   0.383  0.4096  0.1289 -0.6693
 1326TIP3    H125393   0.083   0.930   0.347 -3.0612  1.0659 -1.8015
 1326TIP3    H225394   0.017   0.800   0.308 -1.7007 -0.3813  0.5602
 1327TIP3   OH225395   5.846   6.589   5.255  0.4704  0.0031 -0.6358
 1327TIP3    H125396   5.853   6.587   5.351 -0.9334  0.5380 -0.5104
 1327TIP3    H225397   5.906   6.520   5.225  0.6118 -0.4437  0.6407
 1328TIP3   OH225398   6.252   3.810  11.240  0.3234  0.3292  0.1887
 1328TIP3    H125399   6.224   3.819  11.149  0.2587 -0.1134  0.1654
 1328TIP3    H225400   6.307   3.887  11.256  0.1971  0.4937 -0.1716
 1329TIP3   OH225401   4.439   2.699  16.767 -0.4262 -0.1653  0.4554
 1329TIP3    H125402   4.440   2.609  16.801  1.2391 -0.8762 -1.3920
 1329TIP3    H225403   4.497   2.747  16.827 -2.1245 -0.0409  2.0610
 1330TIP3   OH225404   3.831   5.734  11.480  0.0023 -0.8141  0.3877
 1330TIP3    H125405   3.880   5.693  11.408 -0.2463 -0.6226  0.1041
 1330TIP3    H225406   3.755   5.677  11.491  0.4647 -1.3048  1.0621
 1331TIP3   OH225407   4.144   6.082   2.035 -0.4099 -0.1402  0.0078
 1331TIP3    H125408   4.206   6.109   1.968  0.1016  0.4298  0.7008
 1331TIP3    H225409   4.066   6.056   1.987 -0.4125  1.2473 -0.7337
 1332TIP3   OH225410   3.721   2.381   1.941 -0.9631  0.1911 -0.3787
 1332TIP3    H125411   3.774   2.329   1.880  0.6086 -0.4841  1.5089
 1332TIP3    H225412   3.718   2.468   1.901  3.8417  1.0164  0.6658
 1333TIP3   OH225413   5.477   1.811  13.852  0.0073 -0.2714 -0.0281
 1333TIP3    H125414   5.424   1.877  13.809 -0.1721 -1.1911 -1.2529
 1333TIP3    H225415   5.422   1.732  13.851  0.9238 -0.9223 -0.2647
 1334TIP3   OH225416   0.115   2.642  13.234 -0.1499 -0.2560 -0.0168
 1334TIP3    H125417   0.031   2.620  13.275 -0.1018 -0.8997 -0.2620
 1334TIP3    H225418   0.178   2.640  13.306 -0.2773 -0.1389  0.0992
 1335TIP3   OH225419   6.594   5.261   5.286 -0.2188 -0.2210 -0.2872
 1335TIP3    H125420   6.558   5.246   5.373 -1.2355  0.1912 -0.6366
 1335TIP3    H225421   6.568   5.184   5.235 -0.8682  0.2172 -0.6216
 1336TIP3   OH225422   0.552   5.865  12.690  0.3173 -0.1481 -0.1927
 1336TIP3    H125423   0.533   5.775  12.666 -0.9013 -0.6097  2.3476
 1336TIP3    H225424   0.646   5.876  12.672  0.4119 -1.8311 -0.7473
 1337TIP3   OH225425   6.211   5.408   5.464  0.8622  0.5273 -0.2686
 1337TIP3    H125426   6.117   5.419   5.475  0.7833 -0.3340 -0.0281
 1337TIP3    H225427   6.237   5.350   5.536  0.9832 -2.0491 -2.3231
 1338TIP3   OH225428   5.977   3.852   5.878  0.3095 -0.2136  0.0057
 1338TIP3    H125429   5.928   3.881   5.955  1.1638  0.7176  0.2076
 1338TIP3    H225430   6.005   3.933   5.836 -0.4322 -0.6945 -1.4848
 1339TIP3   OH225431   5.901   2.974   6.035  0.6225  0.0941 -0.3560
 1339TIP3    H125432   5.973   2.927   5.995  0.9922  1.2322 -1.0674
 1339TIP3    H225433   5.888   3.051   5.979 -0.4035  0.4865  0.3861
 1340TIP3   OH225434   1.001   4.510  15.032 -0.3219 -0.0373 -0.0308
 1340TIP3    H125435   0.960   4.579  14.979 -0.4476  1.9246  2.5256
 1340TIP3    H225436   0.978   4.532  15.122  1.0203 -2.5351  0.9749
 1341TIP3   OH225437   1.568   2.874  17.086  0.2693 -0.5655 -0.2298
 1341TIP3    H125438   1.541   2.786  17.111  1.7124 -0.5538  1.4047
 1341TIP3    H225439   1.556   2.926  17.165  1.7072  0.1965 -0.5072
 1342TIP3   OH225440   6.104   2.960  16.241 -0.0523  0.1322 -0.1170
 1342TIP3    H125441   6.130   2.903  16.168 -2.3852  0.6158 -1.3621
 1342TIP3    H225442   6.023   2.921  16.274 -0.9051  1.9270 -0.0645
 1343TIP3   OH225443   4.176   0.038   4.750 -0.1603  0.5425  0.2950
 1343TIP3    H125444   4.088   0.027   4.784 -0.3035  0.8095  0.0205
 1343TIP3    H225445   4.202   0.126   4.780 -1.0509  1.6114 -1.9289
 1344TIP3   OH225446   5.363   5.007   2.819 -0.6932 -0.6333 -0.1341
 1344TIP3    H125447   5.269   5.012   2.836 -1.2797  2.1889 -3.6130
 1344TIP3    H225448   5.404   5.044   2.898 -2.6621  1.4684 -0.0655
 1345TIP3   OH225449   6.703   3.323   2.759 -0.5844  0.1568 -0.1893
 1345TIP3    H125450   6.712   3.263   2.833  1.9568  0.0431 -0.5193
 1345TIP3    H225451   6.706   3.411   2.798 -2.4551  0.0900  0.1232
 1346TIP3   OH225452   1.507   3.110  10.959 -0.2262 -0.1864  0.2950
 1346TIP3    H125453   1.599   3.083  10.970 -0.5052 -0.9478  0.8125
 1346TIP3    H225454   1.458   3.028  10.962 -0.9384  0.2307  0.1025
 1347TIP3   OH225455   3.929   1.135   3.202  0.4676 -0.2310  0.0619
 1347TIP3    H125456   3.941   1.041   3.207 -1.1905 -0.4718 -0.1192
 1347TIP3    H225457   3.925   1.154   3.108  0.3567 -0.0493  0.1022
 1348TIP3   OH225458   5.937   6.444  16.447  0.0197 -0.2838  0.0315
 1348TIP3    H125459   5.903   6.417  16.532  2.4496 -1.3083  0.7424
 1348TIP3    H225460   5.875   6.407  16.384 -0.8355 -1.0735  1.2996
 1349TIP3   OH225461   3.462   1.028  11.952  0.6938 -0.3019  0.5428
 1349TIP3    H125462   3.376   0.991  11.935  0.4647  0.3619  0.2488
 1349TIP3    H225463   3.521   0.953  11.948 -0.1058 -1.0846  2.7357
 1350TIP3   OH225464   3.433   6.662  14.125 -0.3083 -0.6209  0.3256
 1350TIP3    H125465   3.472   6.701  14.203  1.5401  0.7990 -1.2733
 1350TIP3    H225466   3.507   6.627  14.075 -1.2685  0.0055 -1.5984
 1351TIP3   OH225467   6.530   1.934   5.668  0.1727 -0.2644  0.3839
 1351TIP3    H125468   6.549   1.840   5.661 -2.3287 -0.8502  1.0154
 1351TIP3    H225469   6.436   1.938   5.688  0.2354  2.3816  0.2753
 1352TIP3   OH225470   6.322   4.688  11.805 -0.1547  0.0609  0.4441
 1352TIP3    H125471   6.378   4.687  11.727  0.2496  0.6896  0.7211
 1352TIP3    H225472   6.337   4.604  11.848 -0.1734 -0.1760 -0.0081
 1353TIP3   OH225473   5.493   6.020  15.827  0.1249 -0.3370  0.3779
 1353TIP3    H125474   5.543   5.947  15.861  1.8009 -0.0403 -1.3452
 1353TIP3    H225475   5.554   6.094  15.829 -0.6172  0.3184 -0.6042
 1354TIP3   OH225476   5.359   1.648  11.530 -0.5756  0.1505 -0.4092
 1354TIP3    H125477   5.310   1.687  11.458 -0.9417 -1.1181 -0.8581
 1354TIP3    H225478   5.294   1.601  11.582 -0.3288  1.1126  0.8031
 1355TIP3   OH225479   3.599   3.487  17.166  0.4086  0.6382  0.0242
 1355TIP3    H125480   3.663   3.417  17.151  0.2035  0.3782  0.3562
 1355TIP3    H225481   3.531   3.446  17.220  0.6501  1.2958  0.8265
 1356TIP3   OH225482   0.096   5.542   5.796 -0.4066  0.1438  0.1401
 1356TIP3    H125483   0.006   5.538   5.829 -0.1289  2.1107  1.2435
 1356TIP3    H225484   0.112   5.635   5.782  0.7567 -0.3539 -2.1204
 1357TIP3   OH225485   5.349   1.077  16.907 -0.5360  0.3121 -0.0586
 1357TIP3    H125486   5.292   1.034  16.843 -1.0353  2.6997 -1.2808
 1357TIP3    H225487   5.316   1.049  16.992 -1.9723 -0.3061 -0.8060
 1358TIP3   OH225488   6.015   4.221  11.429  0.5740  0.1268  0.2697
 1358TIP3    H125489   5.970   4.136  11.437  1.0818 -0.3008 -1.2770
 1358TIP3    H225490   6.108   4.200  11.442  0.9346  0.0917 -2.1651
 1359TIP3   OH225491   4.843   4.392  16.340 -0.5694 -0.6287  0.0289
 1359TIP3    H125492   4.851   4.487  16.337  1.0137 -0.6140  2.7393
 1359TIP3    H225493   4.757   4.377  16.380 -1.9003 -0.4023 -2.6771
 1360TIP3   OH225494   1.253   1.643   3.476  0.1561 -0.1815  0.7543
 1360TIP3    H125495   1.289   1.673   3.559  0.2911  2.4035 -0.2019
 1360TIP3    H225496   1.167   1.608   3.499  0.0643  0.7997  1.9396
 1361TIP3   OH225497   2.651   0.282  15.356  0.4915  0.4007  0.5950
 1361TIP3    H125498   2.651   0.186  15.364  2.2784  0.2904 -0.5010
 1361TIP3    H225499   2.599   0.312  15.431  0.4176 -1.3931  1.2923
 1362TIP3   OH225500   6.102   0.199   5.034 -0.1350 -0.3384 -0.1444
 1362TIP3    H125501   6.149   0.147   4.969 -0.2231 -0.2919 -0.2462
 1362TIP3    H225502   6.010   0.192   5.009  0.0347  1.6381 -1.4691
 1363TIP3   OH225503   3.605   1.878   0.295 -0.2507  0.0226  0.1185
 1363TIP3    H125504   3.693   1.910   0.314  0.0711 -1.0818  0.5869
 1363TIP3    H225505   3.619   1.786   0.271 -1.2957 -0.2331  0.4732
 1364TIP3   OH225506   1.011   2.473  16.811 -0.3439  0.3807 -0.3823
 1364TIP3    H125507   1.071   2.547  16.810  0.8206 -0.5646 -0.6800
 1364TIP3    H225508   0.928   2.509  16.779 -0.4741  2.1329  1.7917
 1365TIP3   OH225509   2.232   6.702   4.235 -0.5848  0.3481  0.1584
 1365TIP3    H125510   2.249   6.689   4.141 -0.0684  2.6262 -0.0900
 1365TIP3    H225511   2.314   6.675   4.278 -0.1934  0.9698 -0.1904
 1366TIP3   OH225512   3.255   3.885  11.612 -0.7140  0.0010  0.2766
 1366TIP3    H125513   3.242   3.974  11.578  0.7916 -0.4412 -1.5156
 1366TIP3    H225514   3.224   3.828  11.542  2.6281 -0.9353 -0.5263
 1367TIP3   OH225515   2.771   0.710   5.944  0.6719 -0.5872 -0.2089
 1367TIP3    H125516   2.756   0.623   5.979  1.2568 -0.3293  0.6796
 1367TIP3    H225517   2.739   0.769   6.012  2.3307 -0.0811  0.1471
 1368TIP3   OH225518   0.222   3.978   0.094  0.4442 -0.3295 -0.1965
 1368TIP3    H125519   0.256   4.050   0.041 -1.7907  1.6210  0.9209
 1368TIP3    H225520   0.152   3.940   0.041 -1.7304  1.5649  1.2492
 1369TIP3   OH225521   3.802   3.601   0.733 -0.6837 -0.2691 -0.2095
 1369TIP3    H125522   3.782   3.509   0.752 -2.0022  0.3049  1.3029
 1369TIP3    H225523   3.718   3.639   0.706 -0.2299  0.5809 -0.4414
 1370TIP3   OH225524   6.389   2.105   4.762 -0.3929  0.0807  0.1727
 1370TIP3    H125525   6.342   2.087   4.844  0.2447  1.6623  0.8945
 1370TIP3    H225526   6.474   2.138   4.790  0.9509 -2.0961 -1.1211
 1371TIP3   OH225527   2.786   1.252   2.021 -0.0061 -0.4554  0.5378
 1371TIP3    H125528   2.850   1.248   1.950  0.8251  0.2939  1.2424
 1371TIP3    H225529   2.838   1.254   2.101 -0.8225  2.4299  1.0520
 1372TIP3   OH225530   2.183   1.315  15.997 -0.2530 -0.5236 -0.4341
 1372TIP3    H125531   2.233   1.341  15.919 -0.6789  0.1929 -0.4669
 1372TIP3    H225532   2.142   1.232  15.973  0.0060 -0.5446 -0.8056
 1373TIP3   OH225533   3.832   4.756   5.333  0.1235 -0.2931 -0.0119
 1373TIP3    H125534   3.860   4.668   5.360  1.1725 -0.7862 -2.5569
 1373TIP3    H225535   3.756   4.775   5.388  1.5853 -1.5894  2.6005
 1374TIP3   OH225536   2.120   1.843  15.272  0.0130  0.2890  0.2684
 1374TIP3    H125537   2.065   1.921  15.268 -0.8358 -0.2901  0.5828
 1374TIP3    H225538   2.173   1.847  15.193 -0.3809  0.9215  0.0348
 1375TIP3   OH225539   6.209   1.505   4.194  0.2954  0.3941  0.3883
 1375TIP3    H125540   6.235   1.500   4.286 -1.1517  0.0798  0.8060
 1375TIP3    H225541   6.174   1.593   4.183  0.5654  0.4672  0.1166
 1376TIP3   OH225542   6.091   0.903   5.053 -0.3875 -0.1376  0.0730
 1376TIP3    H125543   6.089   0.815   5.014 -0.7196 -0.7184  1.3593
 1376TIP3    H225544   6.130   0.889   5.140 -0.5796  0.9718  0.3400
 1377TIP3   OH225545   2.217   1.603   2.563  0.4077  0.3557 -0.2936
 1377TIP3    H125546   2.171   1.571   2.641 -0.8673 -1.5265 -1.7625
 1377TIP3    H225547   2.307   1.574   2.575  0.2731  0.2987  0.6121
 1378TIP3   OH225548   3.990   2.293  15.206  0.1425 -0.3263  0.1579
 1378TIP3    H125549   3.943   2.364  15.250  0.2613  0.5794 -1.1254
 1378TIP3    H225550   4.078   2.297  15.243  0.0038 -0.1385  0.4707
 1379TIP3   OH225551   1.350   4.721   0.378  0.1159 -0.6551  0.2216
 1379TIP3    H125552   1.351   4.639   0.329 -0.7349 -1.0784  0.8890
 1379TIP3    H225553   1.388   4.786   0.318  0.2607 -1.4146 -0.5174
 1380TIP3   OH225554   5.742   5.295  11.117  0.2402 -0.0852  0.7296
 1380TIP3    H125555   5.825   5.323  11.080 -0.5939  0.2483 -0.9550
 1380TIP3    H225556   5.737   5.201  11.097  0.5933 -0.2880  1.5831
 1381TIP3   OH225557   4.408   4.131  15.775  0.4163 -0.3001 -0.2012
 1381TIP3    H125558   4.480   4.193  15.785 -0.5104  0.9846 -1.3676
 1381TIP3    H225559   4.356   4.165  15.703 -0.8495 -1.7304 -0.0005
 1382TIP3   OH225560   1.690   0.549   6.063 -0.4961  0.3827  0.3559
 1382TIP3    H125561   1.749   0.619   6.090  0.7271 -0.5575  0.1212
 1382TIP3    H225562   1.671   0.502   6.144 -1.3584  0.9980  0.5216
 1383TIP3   OH225563   5.772   6.681  16.653 -0.7040  0.2259 -0.2052
 1383TIP3    H125564   5.780   6.591  16.685  0.3154  0.9369  1.6042
 1383TIP3    H225565   5.754   6.733  16.731  0.4248  1.8242 -0.9663
 1384TIP3   OH225566   0.615   2.977   1.360 -0.4622 -0.0863  0.3336
 1384TIP3    H125567   0.708   2.983   1.337 -0.3442  2.4490  1.3625
 1384TIP3    H225568   0.615   2.974   1.455 -1.5628  3.1130  0.4622
 1385TIP3   OH225569   6.411   1.163  11.771  0.0816 -0.1046  0.4842
 1385TIP3    H125570   6.356   1.131  11.842  0.2622  1.7751  1.5095
 1385TIP3    H225571   6.351   1.206  11.711  0.5003  3.0664  2.2339
 1386TIP3   OH225572   0.650   6.169   1.965  0.1015 -0.8007 -0.0452
 1386TIP3    H125573   0.666   6.139   2.054 -2.1767 -1.5900  0.1287
 1386TIP3    H225574   0.558   6.148   1.948 -0.5848  2.8097 -1.2364
 1387TIP3   OH225575   6.077   1.546   2.409  0.2076  0.3441  0.3868
 1387TIP3    H125576   6.099   1.488   2.483 -1.4989 -0.0181  0.6266
 1387TIP3    H225577   6.089   1.491   2.332  1.4837  0.5685  0.4079
 1388TIP3   OH225578   4.670   2.026   5.238  0.8842 -0.7582  0.0683
 1388TIP3    H125579   4.736   1.985   5.182  2.0669  0.1514  0.7678
 1388TIP3    H225580   4.690   1.993   5.326  0.8956  0.1217  0.4023
 1389TIP3   OH225581   2.729   6.418   2.927 -0.2369  0.1117  0.0963
 1389TIP3    H125582   2.657   6.356   2.915  0.8871 -1.0977 -0.4905
 1389TIP3    H225583   2.708   6.491   2.869 -0.6373 -0.5606 -0.6062
 1390TIP3   OH225584   5.716   2.640  13.584  0.0787 -0.1983 -0.0826
 1390TIP3    H125585   5.714   2.627  13.678  1.1378  0.2249 -0.0007
 1390TIP3    H225586   5.758   2.725  13.572 -0.3781 -0.0772 -0.9222
 1391TIP3   OH225587   2.258   4.824  11.756  0.1381  0.2474  0.0057
 1391TIP3    H125588   2.287   4.762  11.823 -1.4143  0.1691  0.6136
 1391TIP3    H225589   2.183   4.782  11.715  0.0842  1.0126 -0.6985
 1392TIP3   OH225590   4.828   0.345  15.934 -0.4437  0.6184  0.5496
 1392TIP3    H125591   4.813   0.292  15.856  1.1556  0.3802  0.3833
 1392TIP3    H225592   4.799   0.432  15.909 -0.9189  0.3214  0.0366
 1393TIP3   OH225593   3.651   1.420   2.919  0.1582  0.1760 -0.4929
 1393TIP3    H125594   3.730   1.437   2.869 -0.2423  1.9029 -0.5874
 1393TIP3    H225595   3.682   1.401   3.008  0.6630  1.2283 -0.4408
 1394TIP3   OH225596   2.398   0.312  16.809 -0.5314  0.1842  0.0057
 1394TIP3    H125597   2.453   0.282  16.881  1.4037  0.6157 -1.2610
 1394TIP3    H225598   2.456   0.364  16.754 -2.2188  0.6908 -1.3481
 1395TIP3   OH225599   5.148   3.776   6.094  0.0682  0.4832  0.0229
 1395TIP3    H125600   5.126   3.862   6.130 -2.8453  0.4587 -1.5606
 1395TIP3    H225601   5.179   3.726   6.170 -1.4066  1.8891  1.5999
 1396TIP3   OH225602   4.552   3.383  12.574  0.5811 -0.4207 -0.3986
 1396TIP3    H125603   4.578   3.469  12.540  1.3473 -0.7473 -0.6585
 1396TIP3    H225604   4.480   3.402  12.634  1.3492  0.5118  0.2531
 1397TIP3   OH225605   5.147   4.878   4.915 -0.4768  0.2493  0.4054
 1397TIP3    H125606   5.184   4.857   5.001  0.4713 -1.2906 -0.3538
 1397TIP3    H225607   5.143   4.973   4.913  1.2915  0.3681  1.4209
 1398TIP3   OH225608   3.341   6.157   4.922  0.3960 -0.4476  0.0923
 1398TIP3    H125609   3.368   6.086   4.864 -1.2723 -0.1178 -1.1230
 1398TIP3    H225610   3.269   6.200   4.875  2.7177  3.3603 -0.1671
 1399TIP3   OH225611   3.108   1.094  15.496 -0.7909  0.0062 -0.1351
 1399TIP3    H125612   3.063   1.010  15.501  0.8573 -0.9138 -0.2643
 1399TIP3    H225613   3.137   1.100  15.405  0.4038 -0.0103  0.2304
 1400TIP3   OH225614   0.161   0.698   5.545  0.1143 -0.0525  0.0381
 1400TIP3    H125615   0.125   0.739   5.624 -1.7731 -1.3146 -0.1353
 1400TIP3    H225616   0.155   0.766   5.478 -0.9582  0.0952  0.2823
 1401TIP3   OH225617   5.646   2.403  13.033 -0.2385  0.5098  0.5719
 1401TIP3    H125618   5.645   2.476  12.971 -1.6029  0.0620  0.0523
 1401TIP3    H225619   5.619   2.441  13.116 -0.4438  0.7114  0.4135
 1402TIP3   OH225620   0.579   3.814   6.394  0.5246 -0.6137 -0.5055
 1402TIP3    H125621   0.498   3.785   6.435  0.0400  2.8019  1.1628
 1402TIP3    H225622   0.553   3.888   6.339  2.4560  0.3722 -0.1567
 1403TIP3   OH225623   5.445   5.327   0.243 -0.0499 -0.3289  0.5164
 1403TIP3    H125624   5.355   5.312   0.271 -0.4837  1.4509  0.1510
 1403TIP3    H225625   5.438   5.337   0.148  0.3507  1.0753  0.6332
 1404TIP3   OH225626   4.150   1.033   2.610 -0.5873 -0.2022  0.2528
 1404TIP3    H125627   4.081   1.031   2.543  0.1957 -0.3351 -0.5537
 1404TIP3    H225628   4.187   0.944   2.608  0.0135  0.0479  0.2508
 1405TIP3   OH225629   0.497   0.004   3.558  0.4627 -0.5688  0.0373
 1405TIP3    H125630   0.430   0.027   3.623 -0.1790 -2.3018  0.0115
 1405TIP3    H225631   0.557  -0.054   3.604  2.1923  1.2506  0.1570
 1406TIP3   OH225632   5.970   5.977   4.206 -0.3899 -0.0742  0.5518
 1406TIP3    H125633   5.983   6.057   4.156 -1.1630  1.4394  2.6700
 1406TIP3    H225634   6.019   5.910   4.159  0.8600  1.8078 -0.8680
 1407TIP3   OH225635   0.892   5.903  12.923  0.2289 -0.0756 -0.6756
 1407TIP3    H125636   0.801   5.874  12.925  0.0062  0.5056 -2.1443
 1407TIP3    H225637   0.931   5.863  13.001 -0.6108 -2.5260 -1.4553
 1408TIP3   OH225638   4.201   3.326   5.507  0.2787 -0.4346  0.8017
 1408TIP3    H125639   4.233   3.330   5.597  1.6368  1.1254  0.2964
 1408TIP3    H225640   4.249   3.397   5.462 -0.3315 -1.2226 -1.1435
 1409TIP3   OH225641   3.860   4.242  13.523  0.9732 -0.0488  0.2251
 1409TIP3    H125642   3.887   4.319  13.571 -0.9528  0.3367  0.7379
 1409TIP3    H225643   3.785   4.271  13.470  1.8592 -0.9244 -1.5723
 1410TIP3   OH225644   3.854   2.597   5.930 -0.5698 -0.3851  0.0354
 1410TIP3    H125645   3.764   2.579   5.903 -0.4399 -1.7382  0.4370
 1410TIP3    H225646   3.853   2.688   5.959 -1.7158 -0.2689 -0.3336
 1411TIP3   OH225647   5.387   0.899   2.090 -0.1000 -0.1538  0.7139
 1411TIP3    H125648   5.452   0.942   2.145 -0.4823  0.5807  0.5978
 1411TIP3    H225649   5.433   0.881   2.008  0.2712 -0.6220  1.0310
 1412TIP3   OH225650   5.402   0.841   5.475 -0.1952  0.6495 -0.0815
 1412TIP3    H125651   5.325   0.843   5.419 -0.3085  0.0939  0.0566
 1412TIP3    H225652   5.448   0.922   5.455 -1.3639  1.5004  0.6012
 1413TIP3   OH225653   0.030   0.756   1.448  0.0957 -0.3254  0.1958
 1413TIP3    H125654   0.044   0.677   1.501  0.1225 -0.8542 -0.5829
 1413TIP3    H225655   0.088   0.744   1.373 -0.0493  0.3494 -0.0258
 1414TIP3   OH225656   4.588   4.750  14.177 -0.7793 -0.9104 -0.0618
 1414TIP3    H125657   4.548   4.834  14.200  0.4204 -0.1838 -0.5659
 1414TIP3    H225658   4.680   4.760  14.201 -0.3057 -1.5236 -1.5461
 1415TIP3   OH225659   3.244   4.951   4.658  0.1178  0.1754 -0.3661
 1415TIP3    H125660   3.187   5.025   4.638  0.1446  0.4442  0.5517
 1415TIP3    H225661   3.240   4.896   4.580 -0.2906  0.8963 -0.8562
 1416TIP3   OH225662   4.944   6.306  12.409  0.0045  0.1107 -0.9159
 1416TIP3    H125663   4.978   6.378  12.461  0.5660 -1.1541  0.4869
 1416TIP3    H225664   5.004   6.234  12.424 -1.5694 -1.2240 -0.8157
 1417TIP3   OH225665   1.990   2.252   0.852  0.0972  0.2783 -0.0020
 1417TIP3    H125666   2.035   2.189   0.797 -0.7576  0.2880 -0.7163
 1417TIP3    H225667   1.905   2.264   0.811 -0.8466 -0.3010  1.7413
 1418TIP3   OH225668   4.133   3.974  11.815  0.7543  0.3797  0.4358
 1418TIP3    H125669   4.219   4.007  11.840  0.6228  1.3505 -0.4014
 1418TIP3    H225670   4.072   4.043  11.841  0.1993 -0.3408  1.1143
 1419TIP3   OH225671   5.889   0.634   2.201 -0.5226  0.1960  0.2970
 1419TIP3    H125672   5.919   0.609   2.288 -0.7239  0.2647  0.3875
 1419TIP3    H225673   5.964   0.619   2.144 -0.7934 -1.0627  0.2717
 1420TIP3   OH225674   6.589   4.900   0.536 -0.3886 -0.0136  0.3424
 1420TIP3    H125675   6.646   4.977   0.543  0.7502 -0.8047 -0.1651
 1420TIP3    H225676   6.557   4.902   0.446  1.2369 -1.2316 -0.2863
 1421TIP3   OH225677   5.265   5.436   2.344 -0.1460 -0.1713 -0.4809
 1421TIP3    H125678   5.218   5.386   2.411 -0.5615  0.8937  0.0154
 1421TIP3    H225679   5.324   5.371   2.304  0.5298 -0.6837  1.3015
 1422TIP3   OH225680   4.616   0.149  16.056 -0.5848 -0.3519  0.0064
 1422TIP3    H125681   4.699   0.182  16.022  0.1578 -1.0049  1.1603
 1422TIP3    H225682   4.590   0.212  16.122 -1.3875  0.2385 -0.8628
 1423TIP3   OH225683   0.003   2.141   0.818  0.6189  0.0760  0.6956
 1423TIP3    H125684   0.076   2.091   0.783  1.2978  0.8586  0.9776
 1423TIP3    H225685   0.019   2.231   0.787 -0.3304  0.2153  0.5840
 1424TIP3   OH225686   0.746   0.766   2.012 -0.1303 -0.5883  0.3200
 1424TIP3    H125687   0.697   0.828   2.066  0.3043 -0.3306  0.4223
 1424TIP3    H225688   0.680   0.710   1.973 -0.5172 -0.1344  0.3244
 1425TIP3   OH225689   6.655   2.092  12.953 -0.0297  0.0552 -0.2762
 1425TIP3    H125690   6.673   2.091  12.859  0.1268 -0.9343 -0.2446
 1425TIP3    H225691   6.590   2.023  12.966  0.8557 -0.6660  0.5003
 1426TIP3   OH225692   0.127   3.058  16.324  0.1581  0.2642  0.0780
 1426TIP3    H125693   0.122   2.967  16.294  1.4494 -0.2325  1.3426
 1426TIP3    H225694   0.084   3.058  16.409  1.3870  0.5429  0.7140
 1427TIP3   OH225695   1.400   6.682  10.923 -0.7083 -0.2978 -0.1036
 1427TIP3    H125696   1.447   6.600  10.937 -0.7928 -0.2996  0.1743
 1427TIP3    H225697   1.436   6.717  10.842  2.3394  1.4621  1.8944
 1428TIP3   OH225698   6.286   1.862  15.666  0.3576 -0.2461  0.1047
 1428TIP3    H125699   6.342   1.925  15.712  2.4054 -1.4957 -0.6011
 1428TIP3    H225700   6.273   1.791  15.729 -0.3998  0.0023  0.2387
 1429TIP3   OH225701   0.599   1.040  12.066 -0.3320  0.3395 -0.4297
 1429TIP3    H125702   0.526   1.082  12.020 -0.6710  1.4769  1.0605
 1429TIP3    H225703   0.668   1.032  12.001 -0.9016  1.6307 -1.2091
 1430TIP3   OH225704   6.778   2.328  13.073  0.4999 -0.2696  0.3232
 1430TIP3    H125705   6.710   2.262  13.063  0.1375 -0.0407  1.2813
 1430TIP3    H225706   6.837   2.313  12.998 -0.3643 -0.7303 -0.2729
 1431TIP3   OH225707   0.416   4.752  15.605 -0.4253  0.0532  0.5792
 1431TIP3    H125708   0.354   4.679  15.608  0.8957 -1.1201 -0.0811
 1431TIP3    H225709   0.455   4.747  15.517  1.7378 -0.1847  1.5205
 1432TIP3   OH225710   5.367   2.229  11.550 -0.0685  0.0427 -0.0216
 1432TIP3    H125711   5.283   2.231  11.503 -0.0894 -0.4172 -0.0054
 1432TIP3    H225712   5.378   2.318  11.583 -0.0509  0.3774 -0.9066
 1433TIP3   OH225713   1.214   0.020  12.061 -0.1328  0.0460  0.4515
 1433TIP3    H125714   1.286   0.066  12.103  0.1159  0.8451 -0.8260
 1433TIP3    H225715   1.232  -0.072  12.076  1.6441  0.2014 -0.6409
 1434TIP3   OH225716   4.908   5.799  14.348  0.0934  0.2700  0.0247
 1434TIP3    H125717   4.996   5.762  14.348 -0.7257 -1.7422  0.3559
 1434TIP3    H225718   4.891   5.820  14.256  1.3829  1.8542  0.1318
 1435TIP3   OH225719   2.078   5.517   3.949 -0.0492 -0.9524 -0.2155
 1435TIP3    H125720   2.033   5.509   3.865 -0.7661 -0.3815  0.1059
 1435TIP3    H225721   2.009   5.501   4.014  0.2338 -0.1435  0.2820
 1436TIP3   OH225722   3.723   1.543  15.903 -0.7070  0.7481 -0.0776
 1436TIP3    H125723   3.650   1.605  15.906 -0.5523  0.8712  2.6607
 1436TIP3    H225724   3.800   1.598  15.890 -0.7713  0.9581  0.4017
 1437TIP3   OH225725   2.711   6.766  12.414 -0.1435 -0.3469 -0.1917
 1437TIP3    H125726   2.765   6.739  12.339 -0.0654 -1.7201  0.3452
 1437TIP3    H225727   2.678   6.852  12.389  1.1304 -0.1144 -1.1451
 1438TIP3   OH225728   1.523   1.665   4.118  0.0164 -0.3422  0.3942
 1438TIP3    H125729   1.560   1.596   4.062 -0.8861 -0.4800 -0.0311
 1438TIP3    H225730   1.569   1.744   4.090  0.4836 -0.6302  0.3324
 1439TIP3   OH225731   1.189   2.952   1.308  0.3417 -0.7505  0.5880
 1439TIP3    H125732   1.247   2.883   1.338 -0.0758 -2.0732 -1.5807
 1439TIP3    H225733   1.205   2.958   1.214  0.4370  2.1673  0.7415
 1440TIP3   OH225734   2.758   0.004   0.371  0.1308 -0.5857  0.5436
 1440TIP3    H125735   2.719  -0.072   0.416  0.0270 -1.4220 -0.9297
 1440TIP3    H225736   2.779  -0.028   0.284  1.5787  0.6540  0.4166
 1441TIP3   OH225737   0.816   6.086   4.989  0.6109 -0.1752  0.4328
 1441TIP3    H125738   0.828   6.091   5.084 -1.9394  0.9908  0.7455
 1441TIP3    H225739   0.822   6.177   4.960 -1.2690 -0.2175 -0.1400
 1442TIP3   OH225740   2.244   2.404   1.426 -0.1652  0.1453  0.1607
 1442TIP3    H125741   2.282   2.486   1.395  1.4733 -0.5112  0.3621
 1442TIP3    H225742   2.319   2.345   1.436 -1.1974 -1.0676  0.9676
 1443TIP3   OH225743   5.005   1.143   4.219 -0.5718  0.5107 -0.0869
 1443TIP3    H125744   5.001   1.047   4.218  0.2794  0.4449  1.8007
 1443TIP3    H225745   4.997   1.168   4.127 -3.9388 -1.2232 -0.3473
 1444TIP3   OH225746   3.675   4.507  11.064 -0.2597  0.1220  0.0997
 1444TIP3    H125747   3.665   4.513  11.159 -1.2796 -0.6007  0.0482
 1444TIP3    H225748   3.736   4.577  11.041 -1.1446  1.2190  1.1100
 1445TIP3   OH225749   2.702   6.713  16.364 -0.8183 -0.4764 -0.0670
 1445TIP3    H125750   2.729   6.738  16.275  0.0910 -0.3649  0.2292
 1445TIP3    H225751   2.609   6.693  16.356 -0.1294 -3.3747 -1.6969
 1446TIP3   OH225752   1.125   1.920   2.369 -0.3493  0.4014 -0.0544
 1446TIP3    H125753   1.095   1.882   2.452 -0.3759  1.5433  0.4729
 1446TIP3    H225754   1.059   1.986   2.348 -0.2172  0.2744 -0.8720
 1447TIP3   OH225755   1.061   3.589   0.226 -0.4928  0.2683  0.1619
 1447TIP3    H125756   1.000   3.626   0.290  0.5988  1.3218  0.6077
 1447TIP3    H225757   1.028   3.618   0.141  1.3029  3.7849  0.5780
 1448TIP3   OH225758   2.071   3.831  11.972 -0.0836 -0.0221  0.7715
 1448TIP3    H125759   2.132   3.757  11.966  0.0559  0.1748 -0.3110
 1448TIP3    H225760   2.112   3.900  11.920 -2.2911 -0.6222 -1.8888
 1449TIP3   OH225761   4.855   4.623   5.976 -0.0901 -0.2577  0.3607
 1449TIP3    H125762   4.782   4.567   6.000 -1.4742  1.0284 -0.7455
 1449TIP3    H225763   4.849   4.699   6.034  1.4468 -0.9495  1.4768
 1450TIP3   OH225764   4.447   0.856  13.766 -0.3071  0.0937  0.4991
 1450TIP3    H125765   4.500   0.781  13.791 -1.6293 -1.5716 -1.5092
 1450TIP3    H225766   4.407   0.885  13.848  2.9324  0.8453  1.8924
 1451TIP3   OH225767   3.328   5.419  15.455  0.6651 -0.2629  0.3280
 1451TIP3    H125768   3.353   5.344  15.400  1.4827  0.1449  0.1475
 1451TIP3    H225769   3.305   5.488  15.392 -1.3842 -0.7638  0.4702
 1452TIP3   OH225770   3.119   4.867  15.022 -0.0264 -0.6079  0.1960
 1452TIP3    H125771   3.206   4.858  15.061 -0.0803 -1.6719  0.0915
 1452TIP3    H225772   3.082   4.945  15.063  1.3687  0.4398 -0.5106
 1453TIP3   OH225773   0.853   1.432  13.642 -0.1238  0.3348 -0.2508
 1453TIP3    H125774   0.872   1.446  13.735  0.3895  0.7986 -0.4202
 1453TIP3    H225775   0.840   1.521  13.608 -0.9648  0.1212 -0.4827
 1454TIP3   OH225776   2.625   5.511  17.121 -0.6161 -0.3019 -0.4109
 1454TIP3    H125777   2.618   5.415  17.123  0.1587 -0.3397  1.8656
 1454TIP3    H225778   2.709   5.530  17.163  0.0131  1.3224 -2.3339
 1455TIP3   OH225779   4.579   1.092  13.269  0.5081  0.6238 -0.0180
 1455TIP3    H125780   4.554   1.176  13.230  0.4665 -0.0857 -1.5344
 1455TIP3    H225781   4.519   1.028  13.230  1.2493 -0.2855  0.3155
 1456TIP3   OH225782   1.502   5.894   1.468  0.1054  0.2162  0.4335
 1456TIP3    H125783   1.583   5.847   1.449 -0.0940  0.6101 -1.4781
 1456TIP3    H225784   1.499   5.900   1.564  1.7084 -0.8752  0.5595
 1457TIP3   OH225785   3.538   2.703   2.591  0.3642 -0.1215 -0.7313
 1457TIP3    H125786   3.503   2.746   2.513  2.4027  1.1061 -1.0022
 1457TIP3    H225787   3.471   2.716   2.658 -0.1383  1.3442 -1.4908
 1458TIP3   OH225788   0.504   4.320   3.656  0.3794 -0.0687  0.1045
 1458TIP3    H125789   0.533   4.401   3.613  0.5178 -0.4885 -0.5946
 1458TIP3    H225790   0.430   4.290   3.603 -0.0494 -0.0919  0.7077
 1459TIP3   OH225791   6.474   4.777   0.320 -0.2088  0.2045 -0.0320
 1459TIP3    H125792   6.379   4.762   0.321 -0.3164  0.8664  0.5232
 1459TIP3    H225793   6.504   4.739   0.238 -0.8466 -0.7081  0.1506
 1460TIP3   OH225794   0.913   4.465   5.419  0.5820  0.1721 -0.3192
 1460TIP3    H125795   0.867   4.541   5.385  0.6904  0.8238  0.9753
 1460TIP3    H225796   1.006   4.486   5.406  0.6302  0.5042  0.5325
 1461TIP3   OH225797   5.485   0.631  10.615  0.7999  0.1302 -0.6579
 1461TIP3    H125798   5.503   0.540  10.640  0.2946  0.1484 -0.2214
 1461TIP3    H225799   5.405   0.626  10.563  0.1132  0.4576  0.3437
 1462TIP3   OH225800   0.284   2.272  14.783 -0.3269 -0.1349  0.7619
 1462TIP3    H125801   0.230   2.242  14.710 -0.9192  1.0824  0.6837
 1462TIP3    H225802   0.270   2.367  14.786 -0.7757 -0.2309  2.8010
 1463TIP3   OH225803   5.916   3.557   0.093 -0.1798  0.1086  0.1803
 1463TIP3    H125804   5.830   3.533   0.126  0.1516 -2.3592 -0.6648
 1463TIP3    H225805   5.951   3.617   0.159 -2.2316  0.5846  0.8887
 1464TIP3   OH225806   6.640   1.647  12.111  0.4151 -0.3473  0.4425
 1464TIP3    H125807   6.617   1.691  12.029  3.2577 -0.4454 -0.4808
 1464TIP3    H225808   6.576   1.680  12.175 -1.2919  0.4019 -1.5964
 1465TIP3   OH225809   4.282   1.393  13.624 -0.1640 -0.6021 -0.1037
 1465TIP3    H125810   4.218   1.462  13.612 -0.1527 -0.4891  0.4463
 1465TIP3    H225811   4.244   1.316  13.581  0.0038 -0.1520 -1.0589
 1466TIP3   OH225812   3.625   5.381   1.287 -0.2941  0.0798  0.0246
 1466TIP3    H125813   3.535   5.412   1.273  0.2826  1.2096 -1.2222
 1466TIP3    H225814   3.662   5.442   1.351  0.4672  1.2720 -1.5481
 1467TIP3   OH225815   3.611   6.560  14.719  0.1004 -0.2999 -0.0285
 1467TIP3    H125816   3.625   6.513  14.637 -2.4293  1.5198 -1.5857
 1467TIP3    H225817   3.665   6.638  14.712  0.1470 -0.3106  0.1977
 1468TIP3   OH225818   5.352   5.674   4.233 -0.4009 -0.0382 -0.6778
 1468TIP3    H125819   5.351   5.729   4.154 -0.1299  0.1869 -0.5247
 1468TIP3    H225820   5.306   5.594   4.207 -0.2879  0.0250 -1.0730
 1469TIP3   OH225821   2.651   2.449  12.410 -0.4367 -0.3593  0.2693
 1469TIP3    H125822   2.702   2.388  12.463  2.0382  3.5330  2.6098
 1469TIP3    H225823   2.666   2.420  12.320  1.5239 -2.5718  1.2352
 1470TIP3   OH225824   6.104   6.576  11.158 -0.3472  0.0652  0.2611
 1470TIP3    H125825   6.139   6.620  11.081 -1.5786  0.2758 -0.1732
 1470TIP3    H225826   6.050   6.642  11.201  0.8881  0.1771  1.6956
 1471TIP3   OH225827   2.205   2.820   4.679 -0.6030  0.2147 -0.3251
 1471TIP3    H125828   2.116   2.827   4.714 -0.3284  0.0918  0.3916
 1471TIP3    H225829   2.192   2.814   4.584 -1.3603  0.2059 -0.2257
 1472TIP3   OH225830   0.671   2.759   4.934  0.5586 -0.3665  0.1277
 1472TIP3    H125831   0.620   2.836   4.957 -1.3024 -1.2453 -0.9011
 1472TIP3    H225832   0.659   2.699   5.007 -0.7794 -0.9939 -0.6021
 1473TIP3   OH225833   1.798   6.322   6.190 -0.1969 -0.1035 -0.0956
 1473TIP3    H125834   1.832   6.389   6.131 -0.2017 -1.0986 -1.2400
 1473TIP3    H225835   1.716   6.359   6.223 -0.4783  0.2194 -1.1349
 1474TIP3   OH225836   1.813   5.672  16.979  0.2035  0.0789 -0.0934
 1474TIP3    H125837   1.833   5.764  16.962 -1.3980  0.5108  0.3264
 1474TIP3    H225838   1.719   5.669  16.994  0.4390 -1.4000  1.3786
 1475TIP3   OH225839   5.389   2.203  16.049 -0.4830 -0.6806 -0.0079
 1475TIP3    H125840   5.294   2.189  16.053 -0.2864 -1.7853  1.4147
 1475TIP3    H225841   5.399   2.286  16.003 -2.2314  0.4392  1.5554
 1476TIP3   OH225842   1.155   1.467   1.876  0.6340  0.4830  0.5686
 1476TIP3    H125843   1.149   1.401   1.945  0.8980  0.1234  0.2468
 1476TIP3    H225844   1.065   1.495   1.861  0.5102  0.1092  0.6175
 1477TIP3   OH225845   1.453   6.743   0.430  0.0646 -0.0033 -0.4362
 1477TIP3    H125846   1.446   6.746   0.525 -2.1139  1.5233 -0.6104
 1477TIP3    H225847   1.548   6.741   0.413  0.5218  1.5766  1.7130
 1478TIP3   OH225848   4.428   4.309  11.669 -0.1215 -0.1531  0.2833
 1478TIP3    H125849   4.452   4.395  11.704 -0.6879 -1.0878  3.1227
 1478TIP3    H225850   4.338   4.319  11.640 -0.2437  0.1798  0.7732
 1479TIP3   OH225851   4.576   3.391   0.119 -0.0320 -0.1719 -0.1791
 1479TIP3    H125852   4.566   3.338   0.040  1.8782 -2.7937  1.2714
 1479TIP3    H225853   4.487   3.398   0.154 -0.5995 -0.7348 -1.4552
 1480TIP3   OH225854   1.425   4.128   6.236  0.0129  0.2507  0.2496
 1480TIP3    H125855   1.434   4.033   6.235 -0.4580  0.1770 -2.2655
 1480TIP3    H225856   1.515   4.160   6.232  0.1993 -0.0748  1.7376
 1481TIP3   OH225857   3.657   2.153   0.508  0.8116 -0.1706 -0.0173
 1481TIP3    H125858   3.584   2.092   0.501 -0.3016  1.0129  0.9534
 1481TIP3    H225859   3.696   2.153   0.421 -2.4456  1.6932 -1.6157
 1482TIP3   OH225860   5.734   3.450   5.884  0.3438  0.2117  0.9101
 1482TIP3    H125861   5.661   3.511   5.876  0.1617 -0.0510  0.5255
 1482TIP3    H225862   5.694   3.367   5.910  0.2218 -0.5281 -1.5158
 1483TIP3   OH225863   4.970   4.195  16.147  0.2983 -0.0469  0.4389
 1483TIP3    H125864   4.939   4.275  16.191  0.1774  0.1262  0.0413
 1483TIP3    H225865   4.916   4.125  16.184 -0.1773  0.1756  0.1709
 1484TIP3   OH225866   3.561   1.378   5.861 -0.1423 -0.6405  0.0394
 1484TIP3    H125867   3.552   1.400   5.954 -0.2108  0.4490 -0.2230
 1484TIP3    H225868   3.481   1.413   5.820  0.3183 -0.3029 -0.5782
 1485TIP3   OH225869   6.303   0.640   1.562 -0.2004 -0.4784 -0.0993
 1485TIP3    H125870   6.346   0.646   1.477  0.0842  0.6690  0.1134
 1485TIP3    H225871   6.211   0.656   1.543 -0.5065 -2.5975 -0.5082
 1486TIP3   OH225872   1.711   3.544  13.804 -0.2252  0.1669  0.2613
 1486TIP3    H125873   1.630   3.509  13.841 -1.4345  1.4346 -1.0876
 1486TIP3    H225874   1.759   3.468  13.774 -1.9829 -0.4965 -0.9888
 1487TIP3   OH225875   4.654   4.190  13.642 -0.2418 -0.0198  0.2889
 1487TIP3    H125876   4.724   4.145  13.594 -0.9436 -0.7338 -0.0968
 1487TIP3    H225877   4.599   4.119  13.676 -1.2084  0.5350 -0.0782
 1488TIP3   OH225878   6.581   4.296   2.942  0.4012  0.0038  0.0503
 1488TIP3    H125879   6.494   4.260   2.929  0.5299 -0.8066  1.3750
 1488TIP3    H225880   6.574   4.388   2.914 -0.9220 -0.0063  0.3594
 1489TIP3   OH225881   5.350   2.330   5.735 -0.2046  0.0793  0.5823
 1489TIP3    H125882   5.337   2.258   5.674 -0.4807 -0.2960  1.0785
 1489TIP3    H225883   5.358   2.408   5.680 -1.7830 -0.0635  0.1239
 1490TIP3   OH225884   0.950   2.180  16.270 -0.3796  0.3452  0.1334
 1490TIP3    H125885   1.025   2.235  16.247  0.1104 -0.7862 -1.0482
 1490TIP3    H225886   0.876   2.223  16.229 -0.0154  0.1903 -0.6932
 1491TIP3   OH225887   0.156   3.536  15.792 -0.2623 -0.2146 -0.6287
 1491TIP3    H125888   0.076   3.529  15.740  1.3536  0.8773 -3.3574
 1491TIP3    H225889   0.156   3.626  15.824 -1.0868 -0.7896  1.0383
 1492TIP3   OH225890   5.436   2.140   1.592  0.4948  0.5157  0.2500
 1492TIP3    H125891   5.436   2.102   1.679 -0.4600 -0.2109 -0.0668
 1492TIP3    H225892   5.471   2.229   1.605  0.5121  0.3555  1.3356
 1493TIP3   OH225893   6.353   5.066   1.880 -0.1260 -0.1450  0.5091
 1493TIP3    H125894   6.377   5.158   1.889  0.3545 -0.3916  1.9351
 1493TIP3    H225895   6.428   5.026   1.835 -0.4727  0.2080 -0.3996
 1494TIP3   OH225896   5.869   0.706  17.041 -0.0920 -0.1441  0.7823
 1494TIP3    H125897   5.878   0.629  16.985  0.3582 -0.6658  1.5638
 1494TIP3    H225898   5.787   0.691  17.089  0.8653 -0.9758  2.1958
 1495TIP3   OH225899   1.258   0.399  17.164  0.1339 -0.1856 -0.2919
 1495TIP3    H125900   1.185   0.344  17.192  0.4496 -1.2251 -1.4726
 1495TIP3    H225901   1.239   0.417  17.072  1.2768 -0.3214 -0.5536
 1496TIP3   OH225902   5.002   5.936  11.250 -0.3951  0.4883 -0.0583
 1496TIP3    H125903   4.976   5.997  11.182 -0.4836  1.9293  1.2415
 1496TIP3    H225904   5.087   5.968  11.280 -0.8482  0.4945  1.2358
 1497TIP3   OH225905   2.879   2.178  14.325 -0.0600 -0.5125  0.0765
 1497TIP3    H125906   2.804   2.169  14.384  0.2296 -0.2242  0.4884
 1497TIP3    H225907   2.843   2.160  14.238 -0.8412  0.7314  0.1381
 1498TIP3   OH225908   6.450   0.153   3.643 -0.0595 -0.6566 -0.0504
 1498TIP3    H125909   6.359   0.137   3.620 -0.6959 -0.8786  2.4829
 1498TIP3    H225910   6.488   0.192   3.565 -2.0006 -1.7106 -1.5688
 1499TIP3   OH225911   0.983   6.557  11.212 -0.1639  0.1534  0.1162
 1499TIP3    H125912   1.059   6.535  11.159 -0.0721  0.4051  0.1402
 1499TIP3    H225913   1.014   6.626  11.271 -0.7854  1.2978 -0.8647
 1500TIP3   OH225914   1.197   1.758  15.740  0.7947  0.2067  0.3106
 1500TIP3    H125915   1.269   1.812  15.773 -0.8008  2.2818  0.4469
 1500TIP3    H225916   1.183   1.790  15.651  1.2565 -1.4725 -0.3845
 1501TIP3   OH225917   2.741   4.144  14.113 -0.5812 -0.2750  0.2100
 1501TIP3    H125918   2.728   4.153  14.207 -1.5916 -0.7942  0.1205
 1501TIP3    H225919   2.655   4.122  14.078  0.1538 -1.9967 -0.5915
 1502TIP3   OH225920   6.703   3.596   0.313 -0.4457 -0.1946  0.3109
 1502TIP3    H125921   6.762   3.590   0.388  0.9867 -0.0379 -0.7846
 1502TIP3    H225922   6.720   3.682   0.276  0.0911 -0.9323 -1.1958
 1503TIP3   OH225923   6.598   5.778   0.351  0.3737 -0.4354  0.3759
 1503TIP3    H125924   6.524   5.738   0.306  0.2363 -0.1568  0.3540
 1503TIP3    H225925   6.675   5.747   0.303  0.2627 -0.6253  0.3234
 1504TIP3   OH225926   3.373   5.767  14.551  0.6000  0.0502  0.3820
 1504TIP3    H125927   3.355   5.716  14.472  0.5906 -0.8022  0.9233
 1504TIP3    H225928   3.451   5.725  14.589  0.6528  0.5020  0.7777
 1505TIP3   OH225929   3.752   2.100  14.520 -0.3625  0.4919  0.6010
 1505TIP3    H125930   3.716   2.165  14.459  2.3105 -0.7433 -2.4220
 1505TIP3    H225931   3.832   2.140  14.554  1.4789 -1.2959 -1.5345
 1506TIP3   OH225932   2.378   6.239   3.654 -0.8405 -0.1291 -0.2237
 1506TIP3    H125933   2.453   6.191   3.691  0.8341  2.6151  0.1064
 1506TIP3    H225934   2.333   6.276   3.730 -1.0131  0.3606 -0.5602
 1507TIP3   OH225935   6.485   5.313  14.591 -0.2611  0.3545 -0.1708
 1507TIP3    H125936   6.463   5.394  14.637  1.5611  1.8990 -1.9009
 1507TIP3    H225937   6.572   5.290  14.622 -0.7250 -0.9239  0.2308
 1508TIP3   OH225938   5.456   6.545  11.406  0.1390 -0.5592  0.2582
 1508TIP3    H125939   5.418   6.589  11.330 -0.2908  0.3624  0.9912
 1508TIP3    H225940   5.390   6.554  11.474  1.0154 -0.2980  1.0903
 1509TIP3   OH225941   3.307   3.059  17.192  0.3930 -0.4963  0.4375
 1509TIP3    H125942   3.334   2.986  17.137  0.4171 -0.3148  0.2060
 1509TIP3    H225943   3.380   3.071  17.253  0.9443  0.1467 -0.3360
 1510TIP3   OH225944   2.676   4.910  14.421  0.2354 -0.6211  0.0507
 1510TIP3    H125945   2.758   4.906  14.470 -0.4546  2.5179  1.6540
 1510TIP3    H225946   2.608   4.905  14.487 -0.7844  0.2446 -0.8962
 1511TIP3   OH225947   3.206   0.777   3.198  0.7486 -0.4111  0.1261
 1511TIP3    H125948   3.299   0.751   3.197  0.7151 -0.5375  0.3231
 1511TIP3    H225949   3.189   0.800   3.289  0.4253 -0.9581  0.2050
 1512TIP3   OH225950   1.384   5.280  11.890  0.3052  0.0699 -0.1793
 1512TIP3    H125951   1.364   5.307  11.800 -2.3854 -4.5811 -1.1536
 1512TIP3    H225952   1.318   5.324  11.943 -0.0917  0.3219 -0.8715
 1513TIP3   OH225953   5.881   3.187   5.470  0.2246  0.0174  0.3397
 1513TIP3    H125954   5.935   3.163   5.395  0.5486  1.5012  0.1013
 1513TIP3    H225955   5.897   3.118   5.535 -1.1127 -2.0422 -1.4575
 1514TIP3   OH225956   6.330   3.538  16.688 -0.4037  0.3899 -0.2057
 1514TIP3    H125957   6.344   3.488  16.768  0.7604 -0.0640 -0.6823
 1514TIP3    H225958   6.236   3.557  16.687 -0.3925  0.6013  1.3827
 1515TIP3   OH225959   1.955   6.372  11.680  0.0758  0.1613  0.2316
 1515TIP3    H125960   2.022   6.395  11.615  0.3115 -0.6427  0.1920
 1515TIP3    H225961   2.005   6.350  11.759 -0.1624 -0.0204  0.3322
 1516TIP3   OH225962   4.322   6.312   5.824  0.2325  0.1214 -0.7108
 1516TIP3    H125963   4.337   6.341   5.914  0.8264 -1.3513 -0.3303
 1516TIP3    H225964   4.314   6.393   5.774  2.1188  0.9441  0.2988
 1517TIP3   OH225965   3.214   0.774  10.728  0.1754  0.7304  0.3951
 1517TIP3    H125966   3.150   0.819  10.672 -1.0575 -0.1433  1.0977
 1517TIP3    H225967   3.233   0.836  10.798  0.1597  1.0220  0.1422
 1518TIP3   OH225968   2.493   3.286   3.979  0.2311  0.4460 -0.4888
 1518TIP3    H125969   2.581   3.276   3.942  0.5400  1.2219  0.0465
 1518TIP3    H225970   2.503   3.262   4.071 -0.4609 -1.0830 -0.7874
 1519TIP3   OH225971   4.736   6.446   4.499 -0.4037 -0.1094 -0.2316
 1519TIP3    H125972   4.667   6.498   4.459  0.1548  0.3166 -0.6547
 1519TIP3    H225973   4.735   6.363   4.452 -0.2333  0.1179 -0.6355
 1520TIP3   OH225974   4.396   6.405  13.170  0.0814 -0.1601 -0.6157
 1520TIP3    H125975   4.447   6.333  13.132  0.4159 -0.5593  0.5894
 1520TIP3    H225976   4.360   6.369  13.251  0.7173  1.2125  0.2867
 1521TIP3   OH225977   4.146   3.269   4.090  0.2865 -0.6323 -0.2597
 1521TIP3    H125978   4.173   3.239   4.003  1.1260 -1.6955  0.3598
 1521TIP3    H225979   4.051   3.282   4.082  0.2460 -1.3886 -1.1402
 1522TIP3   OH225980   3.772   1.823  16.139 -0.0255 -0.2233 -0.0004
 1522TIP3    H125981   3.751   1.800  16.049 -0.4403  2.6188 -0.6762
 1522TIP3    H225982   3.688   1.846  16.178  0.3654  0.1264  0.6408
 1523TIP3   OH225983   4.481   2.407  16.858  0.9713  0.2444 -0.0828
 1523TIP3    H125984   4.427   2.360  16.922  1.0068  1.4128  0.8364
 1523TIP3    H225985   4.570   2.373  16.872  0.7685 -0.3968 -0.3613
 1524TIP3   OH225986   1.235   0.223   2.526  0.3925 -0.1326 -0.3568
 1524TIP3    H125987   1.162   0.284   2.520  0.7888  0.3516 -0.3334
 1524TIP3    H225988   1.286   0.253   2.602  1.2220  0.2246 -1.0394
 1525TIP3   OH225989   3.427   6.370   5.095  0.0730 -0.1507  0.2600
 1525TIP3    H125990   3.351   6.422   5.124  0.3478  1.0129 -1.0573
 1525TIP3    H225991   3.389   6.291   5.058 -0.4419 -0.0285  0.5190
 1526TIP3   OH225992   4.782   3.276  14.066 -0.5622  0.7708  0.3480
 1526TIP3    H125993   4.817   3.310  14.148 -0.1213  0.2429  0.3834
 1526TIP3    H225994   4.703   3.228  14.091 -1.2433  1.8529  0.2856
 1527TIP3   OH225995   3.076   1.469   5.025 -0.7330 -0.3608  0.0263
 1527TIP3    H125996   2.992   1.428   5.043 -0.2222 -0.6655  1.8042
 1527TIP3    H225997   3.117   1.478   5.111  1.0825 -0.2869 -0.8279
 1528TIP3   OH225998   0.211   0.029   4.365  0.7440  0.0634 -0.3086
 1528TIP3    H125999   0.250   0.031   4.278 -0.7364 -1.3804 -1.0239
 1528TIP3    H226000   0.120   0.002   4.351 -0.3096  2.4710  1.4045
 1529TIP3   OH226001   0.899   5.834   5.402  0.1726  0.1792 -0.2271
 1529TIP3    H126002   0.987   5.833   5.440 -0.1224  0.6376  0.4950
 1529TIP3    H226003   0.889   5.749   5.361  0.8474  0.0138 -0.0550
 1530TIP3   OH226004   0.336   3.356  12.622  0.2309 -0.3354 -0.2559
 1530TIP3    H126005   0.355   3.341  12.530  1.0351  0.0770 -0.1657
 1530TIP3    H226006   0.241   3.367  12.626  0.4705  2.9224 -1.5483
 1531TIP3   OH226007   6.202   1.782   4.924  0.3895 -0.0222 -0.6485
 1531TIP3    H126008   6.202   1.871   4.958  1.0486  0.0516 -0.8336
 1531TIP3    H226009   6.181   1.792   4.831 -2.4767 -0.3094 -0.0754
 1532TIP3   OH226010   2.271   0.187   3.075 -0.1989  0.0221  0.1290
 1532TIP3    H126011   2.244   0.157   2.988  0.0006  0.9690 -0.2700
 1532TIP3    H226012   2.323   0.115   3.110  1.2710  0.3775 -1.2901
 1533TIP3   OH226013   6.778   1.209  16.808  0.2046  0.0962 -0.1048
 1533TIP3    H126014   6.719   1.135  16.823 -1.3704  1.1558 -0.9901
 1533TIP3    H226015   6.755   1.272  16.876  0.6589  0.3226 -0.1586
 1534TIP3   OH226016   4.032   3.863  13.498 -0.0821  0.0725  0.1256
 1534TIP3    H126017   4.127   3.875  13.488 -0.3640  0.6402 -2.2280
 1534TIP3    H226018   4.002   3.843  13.410 -2.2565  0.5566  0.7395
 1535TIP3   OH226019   3.997   4.297   5.420 -0.3801  0.6274 -0.4722
 1535TIP3    H126020   3.947   4.222   5.387  0.1806  0.5831 -1.2394
 1535TIP3    H226021   4.084   4.262   5.436  0.5156  1.6100 -2.9789
 1536TIP3   OH226022   5.844   6.217   4.013 -0.5529  0.9134 -0.3274
 1536TIP3    H126023   5.793   6.295   4.035 -1.1606  0.6811 -0.8969
 1536TIP3    H226024   5.913   6.250   3.954 -0.7929  1.0268 -0.5466
 1537TIP3   OH226025   2.294   3.732  15.251 -0.4473 -0.3082 -0.0826
 1537TIP3    H126026   2.210   3.691  15.273 -0.7506  0.5289  0.3349
 1537TIP3    H226027   2.325   3.683  15.175 -0.6417 -1.5445  0.6100
 1538TIP3   OH226028   5.110   3.154  12.322 -0.5871 -0.5135 -0.3883
 1538TIP3    H126029   5.140   3.066  12.345 -3.0928 -1.4773 -0.7113
 1538TIP3    H226030   5.068   3.143  12.237  0.1266  1.2441 -0.9841
 1539TIP3   OH226031   5.005   3.097  10.768  0.1354 -0.0047 -0.1957
 1539TIP3    H126032   4.944   3.154  10.720 -0.1815  1.4779  1.8986
 1539TIP3    H226033   4.977   3.008  10.747 -0.7272  0.6103 -1.7933
 1540TIP3   OH226034   4.059   1.902  12.449  0.4509 -0.1376 -0.1673
 1540TIP3    H126035   4.035   1.992  12.425  1.3876  0.1383 -0.1086
 1540TIP3    H226036   4.077   1.906  12.543  0.7988 -0.3128 -0.2245
 1541TIP3   OH226037   4.958   6.344  13.893  0.0902 -0.1814  0.3864
 1541TIP3    H126038   5.001   6.363  13.977  1.7889 -2.0760 -0.0124
 1541TIP3    H226039   4.942   6.430  13.854  0.1873  0.6861  2.2123
 1542TIP3   OH226040   6.047   1.318   2.222 -0.0057  0.2995  0.4801
 1542TIP3    H126041   6.098   1.381   2.171  1.0596 -0.9104 -0.0056
 1542TIP3    H226042   6.113   1.265   2.267 -0.8692 -0.5096  0.8226
 1543TIP3   OH226043   6.650   4.163  14.585 -0.2639  0.5857  0.4358
 1543TIP3    H126044   6.659   4.258  14.594  0.3825  0.5553  0.1644
 1543TIP3    H226045   6.628   4.150  14.492 -3.4983  0.6750  1.1428
 1544TIP3   OH226046   2.215   6.219  16.998 -0.0274 -0.0348  0.6034
 1544TIP3    H126047   2.145   6.246  16.938 -0.0943  0.0037  0.6956
 1544TIP3    H226048   2.185   6.136  17.034 -0.3763  0.3455  1.2073
 1545TIP3   OH226049   0.409   0.262   1.131 -0.2558 -0.0491 -0.0027
 1545TIP3    H126050   0.400   0.167   1.137  1.5975 -0.3151 -1.0469
 1545TIP3    H226051   0.495   0.275   1.091 -0.0065  2.0832  1.1620
 1546TIP3   OH226052   4.806   6.180  13.741  0.2039  0.1198  0.0352
 1546TIP3    H126053   4.862   6.149  13.670 -0.6493  0.1473 -0.6498
 1546TIP3    H226054   4.859   6.246  13.786  0.1492  1.2566 -1.5414
 1547TIP3   OH226055   2.932   3.569  11.413 -0.4689 -0.2478 -0.6401
 1547TIP3    H126056   2.937   3.543  11.320  0.1281 -0.5310 -0.5341
 1547TIP3    H226057   2.860   3.516  11.448  1.4254 -2.6240 -0.1804
 1548TIP3   OH226058   2.310   4.557  13.024  0.1839 -0.6244 -0.1957
 1548TIP3    H126059   2.368   4.509  12.964  0.8098 -1.0144  0.7169
 1548TIP3    H226060   2.355   4.554  13.108 -0.5747  0.1448  0.2411
 1549TIP3   OH226061   0.081   0.349   3.746 -0.4105  0.0273 -0.4645
 1549TIP3    H126062   0.140   0.288   3.791 -0.0056 -0.4905 -1.6822
 1549TIP3    H226063   0.019   0.376   3.813 -0.4442 -1.5327  0.1495
 1550TIP3   OH226064   1.122   3.929   0.076  0.5387 -0.1375 -0.1371
 1550TIP3    H126065   1.128   4.011   0.028 -1.3365 -1.0169 -1.9290
 1550TIP3    H226066   1.213   3.903   0.090  1.1294  1.5370 -0.7533
 1551TIP3   OH226067   6.226   5.745  12.579 -0.0989 -0.8637 -0.0779
 1551TIP3    H126068   6.235   5.816  12.643 -2.1881 -1.6230  1.1140
 1551TIP3    H226069   6.147   5.768  12.529 -1.5111 -2.9229  1.1333
 1552TIP3   OH226070   6.626   4.834   2.909 -0.2365 -0.2553  0.4755
 1552TIP3    H126071   6.571   4.909   2.888 -1.3461 -1.9233 -2.9519
 1552TIP3    H226072   6.715   4.868   2.907 -0.7091  0.9223 -1.2845
 1553TIP3   OH226073   3.673   4.567  12.044  0.0596  0.1646 -0.3206
 1553TIP3    H126074   3.592   4.587  11.997 -0.2046  0.5762  0.3060
 1553TIP3    H226075   3.724   4.516  11.982 -1.0569 -0.8810 -0.4033
 1554TIP3   OH226076   4.149   3.165  14.420 -0.1771  0.0866 -0.3132
 1554TIP3    H126077   4.197   3.101  14.473  0.8804  1.0357 -0.0847
 1554TIP3    H226078   4.209   3.185  14.348 -0.1764  1.3377  0.0138
 1555TIP3   OH226079   0.040   5.656  16.447 -0.1668 -0.3236  0.5293
 1555TIP3    H126080  -0.030   5.688  16.390  1.1552  0.6307 -0.5831
 1555TIP3    H226081   0.072   5.734  16.493  1.5044 -0.4161 -0.4557
 1556TIP3   OH226082   6.064   4.201   3.897  0.8651  0.1331  0.3627
 1556TIP3    H126083   6.022   4.209   3.983 -1.2239  0.2005 -0.6093
 1556TIP3    H226084   6.026   4.122   3.859 -0.6722  1.8135 -1.7313
 1557TIP3   OH226085   4.902   4.077   0.257  0.6017  0.1958  0.3039
 1557TIP3    H126086   4.926   4.009   0.194  0.3582  0.3131  0.0833
 1557TIP3    H226087   4.979   4.132   0.265  0.1821  0.9961 -0.9444
 1558TIP3   OH226088   3.726   4.849   3.058  0.3374 -0.6157  0.3105
 1558TIP3    H126089   3.658   4.782   3.062 -1.4995  1.1695 -0.3123
 1558TIP3    H226090   3.681   4.931   3.076  2.8510  0.3155  2.8377
 1559TIP3   OH226091   4.313   0.684   3.505  0.4916 -0.3425  0.1219
 1559TIP3    H126092   4.268   0.735   3.573  0.7506  0.0155  0.0247
 1559TIP3    H226093   4.242   0.644   3.455  0.2998 -1.2450  1.0745
 1560TIP3   OH226094   5.805   0.491   3.385  0.3817  0.0526  0.1858
 1560TIP3    H126095   5.899   0.495   3.370  0.3325 -0.3137 -0.2502
 1560TIP3    H226096   5.790   0.546   3.462  0.8942  0.4425  0.0058
 1561TIP3   OH226097   4.484   4.568  11.762  0.8773 -0.7065  0.1106
 1561TIP3    H126098   4.547   4.634  11.734 -1.8426  1.8301 -0.2654
 1561TIP3    H226099   4.475   4.581  11.856  1.2669 -1.3833  0.2436
 1562TIP3   OH226100   4.547   0.074   2.421 -0.2915 -0.3228  0.0298
 1562TIP3    H126101   4.533   0.003   2.358 -0.1032  0.8439 -1.3843
 1562TIP3    H226102   4.517   0.039   2.504 -2.7207 -1.1524 -1.1402
 1563TIP3   OH226103   1.550   5.136  13.602  0.5595 -0.2263 -0.2745
 1563TIP3    H126104   1.569   5.229  13.616 -2.1890  0.2624  0.4158
 1563TIP3    H226105   1.627   5.090  13.636  1.3019  1.7262  0.7309
 1564TIP3   OH226106   4.611   4.049  11.463 -0.0054 -0.1234 -0.1739
 1564TIP3    H126107   4.627   3.995  11.386 -0.7290 -0.9456  0.2410
 1564TIP3    H226108   4.689   4.104  11.471  0.8282 -1.2631 -0.4647
 1565TIP3   OH226109   6.495   4.173   5.342  0.3243 -0.1068 -0.0067
 1565TIP3    H126110   6.480   4.143   5.432 -0.8704  2.2455  0.6287
 1565TIP3    H226111   6.435   4.121   5.289 -1.1969  0.5910  0.9727
 1566TIP3   OH226112   2.717   4.209   3.132  0.1864  0.3904  0.2153
 1566TIP3    H126113   2.678   4.233   3.048 -0.2963 -0.0026  0.3238
 1566TIP3    H226114   2.755   4.290   3.165 -0.9392  0.8958  0.3186
 1567TIP3   OH226115   3.251   0.853  13.518 -0.1580  0.2789  0.2217
 1567TIP3    H126116   3.320   0.786  13.516 -0.8175 -0.3715 -0.6126
 1567TIP3    H226117   3.262   0.902  13.437  0.6211  1.5057  1.0423
 1568TIP3   OH226118   0.146   2.036  11.706  0.1120 -0.3270 -0.2136
 1568TIP3    H126119   0.116   2.101  11.769 -0.3078  0.4773 -1.2328
 1568TIP3    H226120   0.087   2.046  11.632 -0.3688 -2.3187 -0.1189
 1569TIP3   OH226121   0.308   4.338  15.450 -0.0621  0.9270 -0.1136
 1569TIP3    H126122   0.226   4.361  15.407 -0.3397  1.3311  0.6087
 1569TIP3    H226123   0.311   4.396  15.527 -0.4430 -1.0005  1.3873
 1570TIP3   OH226124   2.362   4.983  12.720 -0.3506  0.0918 -0.2867
 1570TIP3    H126125   2.452   4.965  12.694 -1.0360 -2.3170 -1.1027
 1570TIP3    H226126   2.313   4.985  12.638 -1.3462 -0.5685  0.2706
 1571TIP3   OH226127   0.257   0.184   2.460  0.5981 -0.3365  0.0550
 1571TIP3    H126128   0.188   0.217   2.402  1.3479  1.4020  0.1083
 1571TIP3    H226129   0.286   0.102   2.420 -0.0271  0.0073 -1.1214
 1572TIP3   OH226130   5.724   3.757  16.441  0.1624 -0.3033  0.2552
 1572TIP3    H126131   5.812   3.780  16.471  0.0499 -0.6144  0.8351
 1572TIP3    H226132   5.715   3.802  16.357  0.1576  1.3184  1.0937
 1573TIP3   OH226133   4.890   5.534   5.885  0.6329  0.1174 -0.3006
 1573TIP3    H126134   4.857   5.529   5.975  1.7669  0.5962  0.1633
 1573TIP3    H226135   4.822   5.581   5.837 -0.0907 -0.3514  0.2549
 1574TIP3   OH226136   0.332   0.444   6.271  0.1145  0.0398  0.4301
 1574TIP3    H126137   0.374   0.371   6.225 -0.7234  0.5030 -1.1104
 1574TIP3    H226138   0.395   0.516   6.265 -0.4741  0.4504 -1.0543
 1575TIP3   OH226139   5.029   1.152   0.688 -0.5918  0.0393 -0.4346
 1575TIP3    H126140   5.049   1.237   0.648 -0.5601 -0.7990 -2.2328
 1575TIP3    H226141   5.004   1.096   0.615  2.8261 -2.5170  0.1934
 1576TIP3   OH226142   5.289   1.041   4.207  0.0247 -0.3800 -0.0911
 1576TIP3    H126143   5.314   1.119   4.257 -0.1404 -0.8395  0.7199
 1576TIP3    H226144   5.198   1.057   4.180  0.7638  0.7600 -2.0040
 1577TIP3   OH226145   3.052   3.011   2.108 -0.3036  0.2081  0.1275
 1577TIP3    H126146   3.146   3.017   2.123 -0.1125  0.7909 -1.1959
 1577TIP3    H226147   3.016   2.976   2.189  0.8897  1.2885  1.1271
 1578TIP3   OH226148   2.105   1.879   1.528  0.3461 -0.0111 -0.1051
 1578TIP3    H126149   2.134   1.890   1.437 -0.5792  2.0974 -0.1777
 1578TIP3    H226150   2.165   1.935   1.578 -0.7288  0.8207  0.2692
 1579TIP3   OH226151   3.258   5.669  15.331  0.0724  0.0310 -0.0320
 1579TIP3    H126152   3.175   5.716  15.339  0.3623  0.6644 -0.7459
 1579TIP3    H226153   3.285   5.682  15.240  1.4374  0.6197  0.4430
 1580TIP3   OH226154   1.385   0.603   1.145  0.6795  0.2122 -0.0948
 1580TIP3    H126155   1.416   0.521   1.182 -0.2070 -0.4043 -0.7088
 1580TIP3    H226156   1.461   0.638   1.098  1.1689 -0.0621  0.4793
 1581TIP3   OH226157   0.247   4.085   4.135  0.0724 -0.3229 -0.2912
 1581TIP3    H126158   0.184   4.013   4.144  2.4021 -2.5065 -0.8073
 1581TIP3    H226159   0.286   4.071   4.049  1.2681  0.9882  0.0408
 1582TIP3   OH226160   2.387   4.953   3.456  0.0202 -0.3817  0.2824
 1582TIP3    H126161   2.410   4.952   3.549  0.8310 -0.1377  0.0937
 1582TIP3    H226162   2.469   4.975   3.412 -0.1867 -1.2622 -0.5450
 1583TIP3   OH226163   1.159   2.315  12.416  0.3794  0.0385  0.3304
 1583TIP3    H126164   1.202   2.259  12.480 -1.5783  0.5343  2.1457
 1583TIP3    H226165   1.176   2.273  12.332  3.0316 -0.6076  1.1260
 1584TIP3   OH226166   3.356   5.946  11.184  0.2351 -0.4886 -0.2801
 1584TIP3    H126167   3.307   5.888  11.126  0.0498 -0.7671  0.1495
 1584TIP3    H226168   3.435   5.897  11.205  0.7756  0.0249 -1.1000
 1585TIP3   OH226169   5.997   6.303  11.953  0.2678  0.8445 -0.5526
 1585TIP3    H126170   6.071   6.271  11.903 -0.1674 -0.5678 -0.3339
 1585TIP3    H226171   6.013   6.271  12.042 -0.8141  0.1236 -0.6038
 1586TIP3   OH226172   0.858   0.087  16.999  0.0253 -0.4188  0.0264
 1586TIP3    H126173   0.899   0.069  16.914  0.9153  0.0696  0.3472
 1586TIP3    H226174   0.792   0.154  16.980  0.5072 -0.0080 -0.2093
 1587TIP3   OH226175   1.345   5.324  13.754 -0.5181  0.1395  0.4072
 1587TIP3    H126176   1.420   5.268  13.730 -0.4625 -0.3882  1.7829
 1587TIP3    H226177   1.280   5.263  13.789 -1.6696  0.5775 -0.9305
 1588TIP3   OH226178   1.185   2.459   5.097 -0.6215 -0.3864  0.5442
 1588TIP3    H126179   1.119   2.432   5.161 -2.4752  2.5052 -0.0915
 1588TIP3    H226180   1.140   2.453   5.013  0.2073  0.7822  0.0176
 1589TIP3   OH226181   5.813   6.669  13.769  0.1527  0.0057  0.0667
 1589TIP3    H126182   5.800   6.762  13.787  1.0316 -0.2041  1.9393
 1589TIP3    H226183   5.840   6.632  13.853  0.4512 -1.8277 -0.8080
 1590TIP3   OH226184   2.350   0.390  13.922  0.0037  0.6572 -0.0976
 1590TIP3    H126185   2.387   0.388  14.010 -1.4964  1.6321  0.5701
 1590TIP3    H226186   2.422   0.418  13.866  1.2394 -0.9081  0.6652
 1591TIP3   OH226187   0.074   5.988  14.967 -0.0914  1.0316  0.3423
 1591TIP3    H126188   0.150   6.044  14.988 -1.4298  3.0329 -0.0686
 1591TIP3    H226189   0.105   5.932  14.897  0.9529  2.0271 -0.0208
 1592TIP3   OH226190   2.972   4.057   1.885  0.9014 -0.1168 -0.6580
 1592TIP3    H126191   2.977   4.091   1.796  2.1634 -0.4308 -0.7036
 1592TIP3    H226192   2.950   4.134   1.938 -0.0741  0.0284 -1.2523
 1593TIP3   OH226193   1.090   5.694   2.082 -0.0385 -0.2458 -0.1738
 1593TIP3    H126194   1.088   5.652   2.168 -1.6308 -1.1491 -0.6237
 1593TIP3    H226195   0.998   5.692   2.053  0.3189  1.0135 -1.4289
 1594TIP3   OH226196   3.532   4.859  16.138  0.0054 -0.2556 -0.3318
 1594TIP3    H126197   3.579   4.930  16.094  0.1397  0.1124  0.3953
 1594TIP3    H226198   3.517   4.892  16.226  0.0438 -1.1306  0.0041
 1595TIP3   OH226199   4.217   1.057   0.240 -0.5455 -0.0754  0.0726
 1595TIP3    H126200   4.172   1.135   0.273 -0.3494  0.3739 -0.6812
 1595TIP3    H226201   4.160   1.025   0.170 -0.7035 -0.6965  0.4949
 1596TIP3   OH226202   5.532   4.449   2.386  0.2492  0.2423 -0.0213
 1596TIP3    H126203   5.584   4.527   2.404  0.4944  0.4128 -1.4208
 1596TIP3    H226204   5.445   4.483   2.361  0.2179  0.0542 -0.1715
 1597TIP3   OH226205   1.549   0.347   5.318  0.1646  0.2027  0.2088
 1597TIP3    H126206   1.526   0.400   5.241 -0.4747 -0.1557  0.1478
 1597TIP3    H226207   1.465   0.311   5.348  0.5979 -0.8176  0.2118
 1598TIP3   OH226208   1.983   2.809  12.544  0.2732  0.3683  0.0840
 1598TIP3    H126209   1.959   2.863  12.619 -0.1737  1.0097 -0.4985
 1598TIP3    H226210   1.910   2.822  12.482  0.4282 -0.4815 -0.2755
 1599TIP3   OH226211   5.531   0.555   1.585  0.1355 -0.1069  0.1475
 1599TIP3    H126212   5.442   0.561   1.549 -1.2402 -1.5072  3.1579
 1599TIP3    H226213   5.536   0.627   1.648  1.0203 -0.2368  0.2241
 1600TIP3   OH226214   0.920   5.594  12.129  0.2294 -0.4043  0.1844
 1600TIP3    H126215   0.922   5.672  12.184  0.2314  1.1314 -1.9073
 1600TIP3    H226216   0.843   5.606  12.073  1.7580 -0.5062 -2.0239
 1601TIP3   OH226217   2.300   2.607  14.450 -0.1945  0.0158 -0.0450
 1601TIP3    H126218   2.251   2.619  14.368 -1.5106  0.7373  0.8406
 1601TIP3    H226219   2.239   2.564  14.509  0.1974  1.0067  1.1065
 1602TIP3   OH226220   4.081   5.824  15.359  0.1819  0.4066  0.4355
 1602TIP3    H126221   4.153   5.821  15.296  0.2267 -3.5983  0.5230
 1602TIP3    H226222   4.005   5.849  15.308  0.8989  0.7386 -0.4802
 1603TIP3   OH226223   1.285   0.919  14.541 -0.0265  0.2191  0.3190
 1603TIP3    H126224   1.334   0.839  14.557 -1.6796 -0.4993  1.8756
 1603TIP3    H226225   1.326   0.957  14.463  0.5244 -2.3086 -0.6536
 1604TIP3   OH226226   4.026   4.783   2.369 -0.0205 -0.0216 -0.2765
 1604TIP3    H126227   4.045   4.847   2.300 -0.0750  0.3819  0.0815
 1604TIP3    H226228   3.931   4.768   2.361  0.2186 -1.0975 -1.2510
 1605TIP3   OH226229   4.925   1.073   3.661 -0.7936 -0.3167 -0.1359
 1605TIP3    H126230   5.007   1.042   3.698 -1.4850  0.5626  2.2395
 1605TIP3    H226231   4.921   1.165   3.684 -2.1550 -0.2019 -0.7448
 1606TIP3   OH226232   2.231   0.432  14.865  0.6262  0.4244 -0.0708
 1606TIP3    H126233   2.162   0.376  14.829  0.7116  0.6255 -0.5536
 1606TIP3    H226234   2.262   0.386  14.942  0.0482  0.2607  0.0641
 1607TIP3   OH226235   5.189   0.124  12.294 -0.6815 -0.0115  0.3543
 1607TIP3    H126236   5.284   0.129  12.282 -0.7958  1.1535 -0.1624
 1607TIP3    H226237   5.169   0.031  12.288  0.4082 -0.2450  0.2516
 1608TIP3   OH226238   1.928   3.435  14.045 -0.3882  0.0883  0.3195
 1608TIP3    H126239   1.895   3.513  14.089 -0.8476  0.0843 -0.0128
 1608TIP3    H226240   2.023   3.441  14.053 -0.5172 -0.7935  2.7642
 1609TIP3   OH226241   1.045   0.838   0.761 -0.1213 -0.3218 -0.1045
 1609TIP3    H126242   1.020   0.897   0.689 -1.1203  1.7412  1.8514
 1609TIP3    H226243   0.988   0.762   0.751 -0.1391 -0.1300 -1.5861
 1610TIP3   OH226244   2.930   5.655   0.032 -0.8264  0.1736 -0.3695
 1610TIP3    H126245   2.875   5.705  -0.027  0.4581  0.8990 -0.9662
 1610TIP3    H226246   3.019   5.667  -0.000 -0.2040 -0.2441  1.1087
 1611TIP3   OH226247   1.425   1.647  10.560  0.1159  0.3096 -0.3387
 1611TIP3    H126248   1.429   1.555  10.588 -0.1142  0.1819 -0.7206
 1611TIP3    H226249   1.476   1.649  10.479  3.2888  1.2521  1.5899
 1612TIP3   OH226250   3.378   6.631   3.346  0.4380 -0.1043  0.5240
 1612TIP3    H126251   3.392   6.721   3.315  2.0484 -0.0610  1.3326
 1612TIP3    H226252   3.428   6.625   3.427  1.5123 -2.1370 -0.2262
 1613TIP3   OH226253   1.750   1.612   1.592 -0.6516  0.5030 -0.3002
 1613TIP3    H126254   1.789   1.661   1.520  0.0102 -0.5199 -0.6437
 1613TIP3    H226255   1.820   1.604   1.656 -0.0424 -1.9633 -1.2314
 1614TIP3   OH226256   0.315   5.877  10.393  0.3264 -0.3726  0.3964
 1614TIP3    H126257   0.381   5.871  10.323  1.4695  0.1040  1.4224
 1614TIP3    H226258   0.362   5.850  10.472 -0.9484 -0.8335  1.0010
 1615TIP3   OH226259   2.536   2.937   5.260  0.2624 -0.3506 -0.9911
 1615TIP3    H126260   2.445   2.921   5.286  0.7939 -2.0588 -0.1258
 1615TIP3    H226261   2.570   2.998   5.326 -0.9479  2.3073 -2.7188
 1616TIP3   OH226262   5.182   4.601  13.953  0.5543 -0.3709  0.2816
 1616TIP3    H126263   5.158   4.691  13.978 -0.3692 -0.3633 -0.5719
 1616TIP3    H226264   5.120   4.579  13.884  0.4700 -1.8466  0.8137
 1617TIP3   OH226265   2.174   1.483   4.449 -0.0410 -0.0670  0.9613
 1617TIP3    H126266   2.218   1.398   4.444 -0.7412 -0.2806 -3.2869
 1617TIP3    H226267   2.081   1.462   4.451 -0.1870  0.5872  1.0947
 1618TIP3   OH226268   2.625   6.116   6.243 -0.1603 -0.7469  0.0804
 1618TIP3    H126269   2.660   6.168   6.316  0.1243 -0.9345  0.0787
 1618TIP3    H226270   2.675   6.034   6.246 -1.3320 -1.4357  0.7217
 1619TIP3   OH226271   1.704   1.207   0.640  0.1349 -0.9086  0.2204
 1619TIP3    H126272   1.648   1.280   0.613  2.2345  0.2073 -1.2350
 1619TIP3    H226273   1.709   1.215   0.735  0.1794  0.7204  0.0919
 1620TIP3   OH226274   1.246   6.775   0.284  0.3047  0.4008  0.6527
 1620TIP3    H126275   1.217   6.859   0.318  0.1125  0.3173  0.6978
 1620TIP3    H226276   1.332   6.761   0.324  2.6953  2.9452 -3.2640
 1621TIP3   OH226277   0.566   5.360   5.754  0.1364 -0.5808 -0.2205
 1621TIP3    H126278   0.654   5.333   5.728  0.3565 -0.7984  0.7402
 1621TIP3    H226279   0.563   5.344   5.848  0.3783  2.9882  0.4588
 1622TIP3   OH226280   0.731   6.285   1.677  0.1217  0.3846  0.4556
 1622TIP3    H126281   0.638   6.295   1.696  0.0156  0.5786 -0.1538
 1622TIP3    H226282   0.756   6.204   1.722 -0.2094  0.6284  1.0845
 1623TIP3   OH226283   3.169   1.293   0.271  0.0440 -0.3387 -0.1202
 1623TIP3    H126284   3.239   1.287   0.335 -1.6239 -1.4935  1.6266
 1623TIP3    H226285   3.105   1.228   0.298 -1.7292  0.6952 -1.6653
 1624TIP3   OH226286   1.647   0.655  16.890 -0.4223 -0.5098  0.2555
 1624TIP3    H126287   1.644   0.712  16.966 -1.5820 -1.3212  0.8339
 1624TIP3    H226288   1.599   0.576  16.917 -2.3868 -0.1037 -1.8903
 1625TIP3   OH226289   5.631   3.521   4.116 -1.1820  0.3971  0.8026
 1625TIP3    H126290   5.581   3.441   4.134 -1.3134  0.7479  2.0599
 1625TIP3    H226291   5.641   3.522   4.021 -0.2108 -1.7041  0.8598
 1626TIP3   OH226292   1.300   2.090   4.218 -0.4999 -0.4330  0.2927
 1626TIP3    H126293   1.242   2.080   4.143 -1.7226  1.4103  0.9490
 1626TIP3    H226294   1.295   2.006   4.263  0.0357 -1.4565 -1.5306
 1627TIP3   OH226295   0.618   0.527  16.326 -0.4630  0.1529  0.3237
 1627TIP3    H126296   0.632   0.432  16.325 -2.0867 -0.1027 -0.2557
 1627TIP3    H226297   0.623   0.553  16.233 -1.4488  0.3840  0.3204
 1628TIP3   OH226298   4.356   4.675   1.288 -0.2981 -0.0141 -0.0717
 1628TIP3    H126299   4.335   4.663   1.195 -1.1819  2.2747 -0.2065
 1628TIP3    H226300   4.310   4.756   1.312  0.2454 -0.3814  2.2630
 1629TIP3   OH226301   3.445   1.980   0.519  0.1355 -0.2208  0.5848
 1629TIP3    H126302   3.356   1.994   0.488  0.1372 -0.8446  0.2915
 1629TIP3    H226303   3.489   1.934   0.447  1.0329  1.1481  0.2314
 1630TIP3   OH226304   6.505   4.701   0.735 -0.2661  0.3320  0.5076
 1630TIP3    H126305   6.593   4.705   0.773 -0.1574  1.2877  0.1628
 1630TIP3    H226306   6.494   4.785   0.690 -0.2513 -0.8592 -1.8482
 1631TIP3   OH226307   4.513   0.522   5.369  0.5620 -0.2278  0.2046
 1631TIP3    H126308   4.501   0.598   5.312  1.7781  0.8384  1.3133
 1631TIP3    H226309   4.466   0.545   5.449 -0.0547 -1.1598  0.1159
 1632TIP3   OH226310   1.598   0.289  15.523  0.3768  0.6037  0.5827
 1632TIP3    H126311   1.574   0.226  15.592  1.4113 -0.3034  0.1338
 1632TIP3    H226312   1.545   0.264  15.448  0.1376  0.8321  0.6747
 1633TIP3   OH226313   3.029   0.007  12.477  0.0862 -0.3507  0.1625
 1633TIP3    H126314   2.959  -0.007  12.540  2.2941 -3.7918  2.0509
 1633TIP3    H226315   2.995  -0.027  12.394 -1.5896  0.9937  0.2734
 1634TIP3   OH226316   6.675   1.881  14.310  0.0197 -0.6795  0.6806
 1634TIP3    H126317   6.673   1.902  14.217 -1.1914 -1.5697  0.4923
 1634TIP3    H226318   6.620   1.803  14.318 -0.0525 -0.4874  2.1645
 1635TIP3   OH226319   5.105   5.034   0.993  0.6967  0.4345  0.4506
 1635TIP3    H126320   5.017   5.046   0.958  1.0910  0.2804 -0.6183
 1635TIP3    H226321   5.145   5.121   0.989 -0.0614  0.9380  2.8238
 1636TIP3   OH226322   5.092   3.461  16.691  0.3365  0.1797  0.4355
 1636TIP3    H126323   5.004   3.472  16.726  0.1252 -0.0249 -0.0296
 1636TIP3    H226324   5.098   3.525  16.620  0.3387 -0.2478  0.0508
 1637TIP3   OH226325   5.751   3.654  14.856  0.4019  0.3034 -0.0069
 1637TIP3    H126326   5.826   3.652  14.797  0.4921  0.2431  0.1095
 1637TIP3    H226327   5.681   3.697  14.806  0.7664  1.1127  0.1704
 1638TIP3   OH226328   2.043   1.498  12.512 -0.0185  0.2610 -0.1190
 1638TIP3    H126329   1.978   1.445  12.559  0.4843  0.6862  1.0844
 1638TIP3    H226330   2.100   1.533  12.581 -0.4137  2.4885 -0.8614
 1639TIP3   OH226331   1.933   3.891   4.978  0.8689 -0.1193 -0.7488
 1639TIP3    H126332   1.945   3.939   4.896  2.2642  0.7105 -0.0857
 1639TIP3    H226333   1.964   3.951   5.046 -1.2309 -0.3804  0.5128
 1640TIP3   OH226334   5.851   2.794   1.397 -0.3230  0.0160 -0.6015
 1640TIP3    H126335   5.880   2.873   1.442 -0.7140 -0.0322 -0.2599
 1640TIP3    H226336   5.932   2.755   1.362 -0.2650  1.1406 -1.7342
 1641TIP3   OH226337   6.569   0.021  14.071 -0.1895 -0.0033  0.0746
 1641TIP3    H126338   6.563   0.080  13.995  0.1248  0.8297  0.6787
 1641TIP3    H226339   6.583   0.080  14.145  0.6022 -0.8796  0.6338
 1642TIP3   OH226340   4.166   2.221   1.915 -0.1310 -0.2717  0.0876
 1642TIP3    H126341   4.115   2.280   1.970  0.9390  1.8335 -1.1076
 1642TIP3    H226342   4.153   2.253   1.826  1.3438 -1.1822 -0.4811
 1643TIP3   OH226343   3.771   2.389  16.501  0.1592 -0.7739  0.3181
 1643TIP3    H126344   3.760   2.483  16.515  2.1036 -0.6941  1.5411
 1643TIP3    H226345   3.714   2.348  16.566 -0.9944 -0.4424 -0.4833
 1644TIP3   OH226346   6.174   3.218   5.070  0.6439  0.0606 -0.0088
 1644TIP3    H126347   6.100   3.195   5.013 -0.0954  2.2156  0.0617
 1644TIP3    H226348   6.249   3.217   5.011 -0.2039  2.8567 -1.1995
 1645TIP3   OH226349   1.442   3.837   0.984 -0.2916 -0.0570 -0.2884
 1645TIP3    H126350   1.443   3.779   0.908 -0.5647 -0.0011 -0.3373
 1645TIP3    H226351   1.393   3.788   1.050 -0.6218  0.1604 -0.3677
 1646TIP3   OH226352   0.274   4.174  17.157 -0.4658  0.1255  0.1745
 1646TIP3    H126353   0.216   4.165  17.081 -0.2783  1.6799 -0.1602
 1646TIP3    H226354   0.291   4.268  17.164 -2.5629  0.3040  3.7508
 1647TIP3   OH226355   4.363   6.685  10.677 -0.1178  0.4255 -0.4095
 1647TIP3    H126356   4.270   6.709  10.687 -0.1296  0.7536 -1.2786
 1647TIP3    H226357   4.398   6.750  10.616  0.7325  0.4030  0.0461
 1648TIP3   OH226358   2.862   5.972   4.832  0.1698  0.1764  0.0282
 1648TIP3    H126359   2.873   5.935   4.919  1.6584  0.6405  0.0458
 1648TIP3    H226360   2.871   6.066   4.845  0.6262  0.2291 -0.6584
 1649TIP3   OH226361   1.862   2.164   2.847 -0.5286  0.3094 -0.4535
 1649TIP3    H126362   1.813   2.178   2.766 -0.8954  0.4728 -0.2036
 1649TIP3    H226363   1.858   2.069   2.862 -1.5018  0.4121  0.0216
 1650TIP3   OH226364   2.256   2.564  14.838  0.7679  0.3789  0.2433
 1650TIP3    H126365   2.328   2.554  14.776  0.7877  0.2340  0.2898
 1650TIP3    H226366   2.285   2.519  14.917  1.6082  2.3535  1.0820
 1651TIP3   OH226367   3.400   0.702  11.484 -0.2306  0.3304 -0.0585
 1651TIP3    H126368   3.491   0.691  11.458 -0.1850 -0.1736  0.3044
 1651TIP3    H226369   3.402   0.768  11.553 -0.0715 -0.1079  0.3571
 1652TIP3   OH226370   3.144   5.504   2.430  0.0015 -0.2155 -0.2205
 1652TIP3    H126371   3.113   5.434   2.373  1.1793 -0.4480 -0.5777
 1652TIP3    H226372   3.077   5.573   2.423 -0.6108 -0.8616 -0.6939
 1653TIP3   OH226373   1.666   6.041  15.803 -0.4393 -0.0282  0.0687
 1653TIP3    H126374   1.631   6.113  15.856 -0.5699  1.1982 -1.6523
 1653TIP3    H226375   1.753   6.072  15.776 -0.5210 -0.4887 -0.7322
 1654TIP3   OH226376   2.215   0.493  11.948 -0.4901  0.4267  0.3085
 1654TIP3    H126377   2.296   0.451  11.919  0.2538  0.4453  2.2750
 1654TIP3    H226378   2.178   0.432  12.012  0.0236  2.1867  2.3587
 1655TIP3   OH226379   1.996   4.459   4.212  0.0837 -0.1097  0.6559
 1655TIP3    H126380   1.975   4.458   4.119 -1.9605 -0.9320  1.0981
 1655TIP3    H226381   2.048   4.380   4.226  0.1084 -0.1634  0.2680
 1656TIP3   OH226382   1.645   1.092   5.262  0.9154 -0.3153  0.4106
 1656TIP3    H126383   1.606   1.047   5.336  0.7211 -1.2465 -0.2427
 1656TIP3    H226384   1.582   1.160   5.239  0.9723 -0.0314  1.0851
 1657TIP3   OH226385   0.085   4.614  16.489 -0.1792  0.3139 -0.1248
 1657TIP3    H126386   0.140   4.652  16.420 -1.4584  1.1014 -0.7287
 1657TIP3    H226387   0.067   4.525  16.458  1.9183 -0.4590  0.7701
 1658TIP3   OH226388   5.348   0.538  11.070 -0.1600 -0.0036  0.3114
 1658TIP3    H126389   5.323   0.471  11.007  1.5021 -2.3071  1.9820
 1658TIP3    H226390   5.442   0.526  11.083  0.1150  2.4216  0.9596
 1659TIP3   OH226391   2.539   1.264  15.768 -0.6470 -0.7176  0.2606
 1659TIP3    H126392   2.469   1.329  15.774 -1.2124 -1.3009  0.1559
 1659TIP3    H226393   2.607   1.306  15.715  0.3148  0.9173  2.6927
 1660TIP3   OH226394   3.426   3.677   2.183  0.0584  0.6751 -0.0945
 1660TIP3    H126395   3.406   3.592   2.145  0.4152  0.6721 -0.2836
 1660TIP3    H226396   3.440   3.734   2.107  2.0515  0.3688  0.0053
 1661TIP3   OH226397   0.684   0.563   3.977 -0.1318  0.3472 -0.0970
 1661TIP3    H126398   0.641   0.643   4.009 -2.6430 -0.4202 -1.4554
 1661TIP3    H226399   0.769   0.593   3.945 -0.2526  2.1566  1.1752
 1662TIP3   OH226400   2.550   1.128   5.856  0.0044 -0.5884 -0.0653
 1662TIP3    H126401   2.510   1.211   5.882  0.4848 -0.3767  0.0114
 1662TIP3    H226402   2.604   1.103   5.931  1.5977  0.1554 -0.9515
 1663TIP3   OH226403   1.327   1.640  14.211  0.2894  0.2292  0.2214
 1663TIP3    H126404   1.265   1.708  14.235  0.7041  0.8663 -0.5005
 1663TIP3    H226405   1.376   1.623  14.291  0.4433  1.0417  0.3007
 1664TIP3   OH226406   6.528   2.422  14.430  0.3909  0.3408  0.0919
 1664TIP3    H126407   6.440   2.456  14.418  0.3472  0.0947 -0.3013
 1664TIP3    H226408   6.574   2.491  14.478 -0.4632 -0.2281  1.7482
 1665TIP3   OH226409   1.747   2.086  10.588 -0.3563 -0.5650 -0.2759
 1665TIP3    H126410   1.824   2.044  10.626  0.0773  1.7270  1.5388
 1665TIP3    H226411   1.776   2.112  10.500  1.0457  0.4190  0.4419
 1666TIP3   OH226412   6.119   0.262  16.757 -0.3549  0.6861  0.2383
 1666TIP3    H126413   6.193   0.317  16.730 -1.5414  2.0077 -0.3553
 1666TIP3    H226414   6.153   0.173  16.751  0.7652  1.1926 -1.4058
 1667TIP3   OH226415   0.197   0.816  14.853  0.1463  0.2402 -1.1483
 1667TIP3    H126416   0.287   0.802  14.822  1.2370  1.8125  1.1600
 1667TIP3    H226417   0.161   0.882  14.793  1.4226  1.5035 -0.5548
 1668TIP3   OH226418   4.079   2.624  14.745 -0.0113  0.5898  0.1695
 1668TIP3    H126419   4.142   2.665  14.804 -1.1220  0.4623  1.4984
 1668TIP3    H226420   4.126   2.550  14.707  0.9794  1.1507  0.2864
 1669TIP3   OH226421   0.937   0.574  16.007 -0.6742 -0.0759 -0.0142
 1669TIP3    H126422   0.925   0.666  15.981  1.7338  0.1305 -0.5512
 1669TIP3    H226423   0.926   0.525  15.925  2.6837  0.2056 -0.7387
 1670TIP3   OH226424   3.941   6.509  11.583 -0.1705 -0.1135  0.3683
 1670TIP3    H126425   3.975   6.598  11.594  3.0101 -1.4252  1.7936
 1670TIP3    H226426   3.851   6.522  11.554  0.4667  3.5613 -0.2858
 1671TIP3   OH226427   0.796   4.186   0.273  0.0212 -0.5293  0.0395
 1671TIP3    H126428   0.762   4.109   0.318 -0.7241 -0.2244  0.0043
 1671TIP3    H226429   0.825   4.154   0.187 -0.2512 -0.7737  0.0420
 1672TIP3   OH226430   3.288   6.016   4.096 -0.2489 -0.0368 -0.3126
 1672TIP3    H126431   3.308   5.952   4.027  0.6791  0.8196 -0.8406
 1672TIP3    H226432   3.367   6.070   4.102 -0.6566  0.4291  0.8288
 1673TIP3   OH226433   4.143   6.213   5.468 -0.3647  1.3043 -0.4384
 1673TIP3    H126434   4.223   6.186   5.512 -1.1713 -2.2008 -1.0135
 1673TIP3    H226435   4.171   6.281   5.406  2.2703 -0.3325 -1.1090
 1674TIP3   OH226436   2.622   3.545   1.199  1.0437 -0.2611  0.3866
 1674TIP3    H126437   2.651   3.552   1.108  0.3591 -1.2187  0.0819
 1674TIP3    H226438   2.590   3.633   1.221  1.3992  0.0257 -0.2294
 1675TIP3   OH226439   3.300   0.943  10.924 -0.2956  0.4860  0.3051
 1675TIP3    H126440   3.230   1.004  10.901 -0.1803  1.1065  1.5552
 1675TIP3    H226441   3.307   0.949  11.019 -2.0940 -3.4193  0.7912
 1676TIP3   OH226442   5.357   2.008   2.403 -0.3560 -0.3216 -0.0536
 1676TIP3    H126443   5.351   1.921   2.363  2.5508 -0.1676 -0.9734
 1676TIP3    H226444   5.377   2.066   2.330  0.4948  0.6878  0.9717
 1677TIP3   OH226445   4.212   4.257  14.780 -0.1787 -0.4831  0.1955
 1677TIP3    H126446   4.155   4.297  14.714  2.6533  1.2157 -1.3076
 1677TIP3    H226447   4.290   4.231  14.732  1.4296 -0.3815  2.6823
 1678TIP3   OH226448   5.007   5.443  14.993  0.2761  0.1862 -0.5741
 1678TIP3    H126449   5.028   5.392  14.915 -0.1913 -0.8335 -0.0326
 1678TIP3    H226450   4.966   5.523  14.959  0.6003  0.0141 -1.3892
 1679TIP3   OH226451   3.100   1.067  15.828 -0.2315  0.2188  0.4548
 1679TIP3    H126452   3.089   1.042  15.736  0.6690 -0.1126  0.4307
 1679TIP3    H226453   3.169   1.133  15.827 -1.1987  1.2570  0.7478
 1680TIP3   OH226454   1.515   1.429   1.595 -0.0742  0.4198  0.3133
 1680TIP3    H126455   1.604   1.465   1.595 -0.2674  0.9100  0.7333
 1680TIP3    H226456   1.459   1.505   1.612 -0.4954 -0.0766  1.1635
 1681TIP3   OH226457   3.035   5.439   5.111  0.0910 -0.4276 -0.1126
 1681TIP3    H126458   3.048   5.408   5.200  0.2687  1.0731  0.4018
 1681TIP3    H226459   3.117   5.485   5.089  0.5766 -1.9136 -1.5335
 1682TIP3   OH226460   1.071   1.191   0.062 -0.0076 -0.3868 -0.3590
 1682TIP3    H126461   1.065   1.194   0.157 -0.1008  0.5162 -0.3872
 1682TIP3    H226462   0.983   1.216   0.032  0.1443 -0.2361 -0.6821
 1683TIP3   OH226463   5.378   0.849   1.492 -0.2794  0.4241  0.3486
 1683TIP3    H126464   5.327   0.773   1.463 -0.2685  0.6963 -0.3895
 1683TIP3    H226465   5.317   0.899   1.547 -0.1370 -0.3616  1.2446
 1684TIP3   OH226466   4.501   3.417   0.784  0.1568  0.1122  0.4202
 1684TIP3    H126467   4.590   3.400   0.753  0.4982  0.2956  1.2945
 1684TIP3    H226468   4.459   3.463   0.712  0.2835 -1.3493 -0.6179
 1685TIP3   OH226469   2.937   4.653   2.041  0.0029  0.4845  0.1087
 1685TIP3    H126470   2.991   4.596   1.986  1.0495  2.0177 -0.4968
 1685TIP3    H226471   2.991   4.669   2.118 -0.3840  0.4722  0.3812
 1686TIP3   OH226472   6.426   3.041  13.811  0.0688  0.5830 -0.6671
 1686TIP3    H126473   6.484   3.092  13.753  1.3349 -0.8179 -0.6641
 1686TIP3    H226474   6.401   2.965  13.759  0.7819 -0.4166  0.4264
 1687TIP3   OH226475   0.209   6.786  16.206  0.7277  0.6107 -0.2545
 1687TIP3    H126476   0.172   6.795  16.118  0.5350  0.0844 -0.2250
 1687TIP3    H226477   0.227   6.876  16.233  0.4489  0.8002 -0.6858
 1688TIP3   OH226478   4.890   4.700   1.592 -0.1745  0.2578 -0.3319
 1688TIP3    H126479   4.939   4.781   1.579 -0.7807  0.3757 -2.0143
 1688TIP3    H226480   4.817   4.706   1.530  0.4538 -2.1077 -1.3677
 1689TIP3   OH226481   5.971   5.002  12.299  0.2781  1.2651 -0.0468
 1689TIP3    H126482   6.020   4.991  12.380  1.3307 -0.8103 -0.9209
 1689TIP3    H226483   5.884   4.966  12.319 -0.5698  3.9150  1.1649
 1690TIP3   OH226484   6.260   2.864  14.816  0.2145  0.1594  0.7050
 1690TIP3    H126485   6.280   2.955  14.839 -0.4872  0.8580 -1.3171
 1690TIP3    H226486   6.320   2.845  14.744  0.4717 -1.0489  1.2334
 1691TIP3   OH226487   1.532   0.833  17.223 -0.5823 -0.3132  0.6757
 1691TIP3    H126488   1.459   0.860  17.167  0.7781  2.2931  0.0803
 1691TIP3    H226489   1.581   0.914  17.238  2.6755 -2.1604  0.3422
 1692TIP3   OH226490   0.826   3.749   2.294 -0.4918 -0.3624  0.3471
 1692TIP3    H126491   0.754   3.807   2.267 -1.7000 -2.6815 -1.5266
 1692TIP3    H226492   0.902   3.781   2.245 -0.4071  1.5194  1.6326
 1693TIP3   OH226493   5.184   2.832  15.883  0.1757 -0.0678 -0.1072
 1693TIP3    H126494   5.269   2.876  15.891 -0.0160  0.2693  0.0966
 1693TIP3    H226495   5.203   2.751  15.836  0.9031 -0.8432  1.4660
 1694TIP3   OH226496   0.758   5.774   1.617  0.1806  0.2571  0.1745
 1694TIP3    H126497   0.709   5.760   1.536  1.2697  0.1489 -0.4816
 1694TIP3    H226498   0.694   5.764   1.687 -0.7514  0.2562 -0.6778
 1695TIP3   OH226499   3.732   3.366   2.801  0.1022  0.0024  0.1761
 1695TIP3    H126500   3.758   3.275   2.814 -0.5736 -0.4294 -1.3173
 1695TIP3    H226501   3.761   3.411   2.879  1.3459 -1.3143  0.4886
 1696TIP3   OH226502   1.815   4.577  11.737 -0.5996  0.2842 -0.2059
 1696TIP3    H126503   1.849   4.625  11.812  0.2271  1.0772 -1.0694
 1696TIP3    H226504   1.765   4.505  11.775 -2.3628  2.1530  1.1139
 1697TIP3   OH226505   1.161   3.933  12.783 -0.3955 -0.9747  0.1139
 1697TIP3    H126506   1.247   3.895  12.762 -0.2910 -0.8758  0.3681
 1697TIP3    H226507   1.122   3.872  12.845 -0.2493 -0.6912  0.4811
 1698TIP3   OH226508   1.763   1.398  10.988  0.5078 -0.0100 -0.0115
 1698TIP3    H126509   1.776   1.379  11.081  1.7887  1.1505  0.0606
 1698TIP3    H226510   1.841   1.361  10.945  0.4891  0.4855 -0.4773
 1699TIP3   OH226511   5.101   5.513  14.402  0.0157 -0.3937 -0.8679
 1699TIP3    H126512   5.150   5.538  14.324 -0.0850  1.6194 -0.3058
 1699TIP3    H226513   5.098   5.417  14.399  3.1518 -0.5146 -1.4066
 1700TIP3   OH226514   6.176   4.328   3.458  0.1226 -0.3914  0.0331
 1700TIP3    H126515   6.213   4.289   3.537  1.1464 -0.4476 -0.4702
 1700TIP3    H226516   6.243   4.390   3.428 -0.3084 -0.2891 -0.7331
 1701TIP3   OH226517   6.280   3.308  15.129 -0.5727 -0.3577  0.4679
 1701TIP3    H126518   6.324   3.318  15.044 -0.5332  1.5064  0.6983
 1701TIP3    H226519   6.257   3.215  15.133  0.8190 -0.7820 -0.9003
 1702TIP3   OH226520   3.370   1.703  12.479  0.5919 -0.1093  0.2135
 1702TIP3    H126521   3.462   1.709  12.505  0.4568  1.0808  0.4384
 1702TIP3    H226522   3.324   1.671  12.557  0.6103  0.6776  0.5511
 1703TIP3   OH226523   3.203   4.490  13.125  0.0948  0.0451  0.3788
 1703TIP3    H126524   3.210   4.447  13.210 -1.2605 -0.2601  0.3393
 1703TIP3    H226525   3.233   4.424  13.062 -0.7138 -0.3923  0.4465
 1704TIP3   OH226526   3.573   2.610   5.126  0.0604  0.2112 -0.2425
 1704TIP3    H126527   3.569   2.621   5.031 -2.8540  0.2127 -0.1623
 1704TIP3    H226528   3.482   2.619   5.155  0.9171  0.2524  2.5596
 1705TIP3   OH226529   4.404   1.648  12.608  0.1406  0.2372 -0.7796
 1705TIP3    H126530   4.375   1.738  12.618 -1.0815 -0.1662 -0.5785
 1705TIP3    H226531   4.471   1.651  12.540 -1.7512  0.9160 -2.6632
 1706TIP3   OH226532   6.579   3.548  13.870  0.0578 -0.5778 -0.4616
 1706TIP3    H126533   6.602   3.615  13.935 -1.8756  1.2486 -1.5853
 1706TIP3    H226534   6.535   3.480  13.920  0.4443 -0.1640  0.4548
 1707TIP3   OH226535   6.466   1.075   6.045 -0.1347 -0.0066 -0.6605
 1707TIP3    H126536   6.542   1.067   6.103 -1.6468 -0.0798  1.3720
 1707TIP3    H226537   6.441   0.984   6.026 -0.3226  0.0131 -0.5072
 1708TIP3   OH226538   3.736   0.640  13.293 -0.1285 -0.0869 -0.2958
 1708TIP3    H126539   3.824   0.618  13.321  0.5457  0.0415 -2.2364
 1708TIP3    H226540   3.690   0.556  13.288 -0.1812 -0.1335  0.9039
 1709TIP3   OH226541   4.603   2.953   4.288  0.0732  1.0439  0.3554
 1709TIP3    H126542   4.684   3.001   4.303  1.0295 -0.8662  1.4481
 1709TIP3    H226543   4.585   2.908   4.371 -0.9998 -0.1596 -0.4987
 1710TIP3   OH226544   2.718   0.217   3.650 -0.4478  0.5009  0.2591
 1710TIP3    H126545   2.772   0.244   3.724 -0.0566  0.0470  0.1401
 1710TIP3    H226546   2.724   0.290   3.588 -0.4180  0.6866  0.4792
 1711TIP3   OH226547   2.558   2.156   0.044 -0.3246 -0.2343  0.1899
 1711TIP3    H126548   2.488   2.099   0.014 -1.0668 -0.3319  2.0291
 1711TIP3    H226549   2.564   2.138   0.138  0.5471  1.5207  0.4793
 1712TIP3   OH226550   4.069   6.705  14.754 -0.4482  0.9539  0.7037
 1712TIP3    H126551   4.122   6.692  14.675 -0.4376  1.8379  0.5588
 1712TIP3    H226552   4.115   6.773  14.803 -1.0747  1.2308  0.9112
 1713TIP3   OH226553   5.877   0.971   4.448  0.1193 -0.5823  0.1958
 1713TIP3    H126554   5.865   1.035   4.378  0.7441 -0.4073  0.2499
 1713TIP3    H226555   5.967   0.984   4.478  0.7169 -2.4003 -0.7248
 1714TIP3   OH226556   3.456   3.296   0.093  0.3280  0.4134 -0.6844
 1714TIP3    H126557   3.480   3.205   0.079 -1.2665  0.0268 -1.0354
 1714TIP3    H226558   3.487   3.316   0.181  0.5667 -0.5158 -0.5533
 1715TIP3   OH226559   0.856   2.911   3.470 -0.2282  0.4870  0.2165
 1715TIP3    H126560   0.938   2.958   3.453 -0.4117  0.6372 -0.2716
 1715TIP3    H226561   0.843   2.857   3.392 -0.1892 -0.1316  0.6339
 1716TIP3   OH226562   4.046   4.606   4.584  0.3381 -0.5292 -0.1329
 1716TIP3    H126563   4.004   4.638   4.664  1.2584 -0.3953  0.3026
 1716TIP3    H226564   3.990   4.535   4.554 -0.3512 -0.1690  0.2890
 1717TIP3   OH226565   5.677   3.643   1.694 -0.4211  0.2774 -0.3747
 1717TIP3    H126566   5.630   3.589   1.631  0.3436 -0.0298 -0.6858
 1717TIP3    H226567   5.727   3.581   1.748 -1.6543  0.4776  1.0345
 1718TIP3   OH226568   1.571   5.011   3.127 -0.2499 -0.2606 -0.1313
 1718TIP3    H126569   1.506   5.055   3.182 -1.2535 -1.1070 -0.6014
 1718TIP3    H226570   1.648   5.068   3.129  0.1769 -0.8594  3.1036
 1719TIP3   OH226571   0.280   6.734  11.929  0.1367  0.3773 -0.4006
 1719TIP3    H126572   0.199   6.775  11.959 -0.3494 -0.6044 -0.3578
 1719TIP3    H226573   0.253   6.673  11.860  0.6922 -0.7370  0.3436
 1720TIP3   OH226574   6.745   4.007   1.576 -0.2944  0.1067 -0.3129
 1720TIP3    H126575   6.834   4.006   1.611 -0.6236 -0.3193  0.5194
 1720TIP3    H226576   6.739   4.089   1.527  0.1783  0.7107  0.6251
 1721TIP3   OH226577   1.583   0.368  16.631  0.4808 -0.2929 -0.0246
 1721TIP3    H126578   1.515   0.430  16.604  0.6799  0.0422  0.2495
 1721TIP3    H226579   1.665   0.417  16.624  0.5665 -0.3005  0.8789
 1722TIP3   OH226580   4.443   6.282  16.288 -0.7740 -0.1364 -0.3969
 1722TIP3    H126581   4.396   6.340  16.348 -0.8422  0.8593 -1.4021
 1722TIP3    H226582   4.533   6.282  16.321 -0.8664  0.1964 -0.1407
 1723TIP3   OH226583   6.696   0.572   5.057 -0.5678 -0.1310  0.2203
 1723TIP3    H126584   6.728   0.581   4.967 -0.1315 -0.0290  0.3885
 1723TIP3    H226585   6.720   0.484   5.083  1.7587  0.7724  1.2110
 1724TIP3   OH226586   6.154   3.681   2.331 -0.1702 -0.4119 -0.3482
 1724TIP3    H126587   6.072   3.688   2.379  0.6820  0.2271  1.0115
 1724TIP3    H226588   6.149   3.749   2.264 -0.4840  0.0385  0.1342
 1725TIP3   OH226589   1.807   0.328  14.941 -0.0148  0.2908  0.3437
 1725TIP3    H126590   1.713   0.309  14.942  0.3293 -1.5175  1.2722
 1725TIP3    H226591   1.842   0.277  15.014  1.9897 -0.5618 -1.1851
 1726TIP3   OH226592   2.623   0.829   6.192 -0.4638 -0.0981 -0.5450
 1726TIP3    H126593   2.678   0.762   6.234 -1.0692 -1.2444 -1.5512
 1726TIP3    H226594   2.594   0.885   6.264  2.1170  0.5959 -0.0202
 1727TIP3   OH226595   5.985   3.922  13.927 -0.3237  0.1273 -0.0694
 1727TIP3    H126596   6.007   3.980  14.000 -1.2905 -0.8371  1.0010
 1727TIP3    H226597   5.986   3.834  13.964 -1.5359 -0.3175 -1.0452
 1728TIP3   OH226598   6.489   3.864  14.546 -0.1186 -0.4172  0.1502
 1728TIP3    H126599   6.500   3.958  14.533 -1.2572 -0.3574 -0.4894
 1728TIP3    H226600   6.567   3.825  14.507 -0.2971  0.1930 -0.8388
 1729TIP3   OH226601   0.086   3.203  13.377 -0.7818 -0.3046 -0.5032
 1729TIP3    H126602   0.044   3.287  13.398 -1.5651 -0.7129 -0.4039
 1729TIP3    H226603   0.095   3.160  13.462 -1.5519 -0.8522 -0.6871
 1730TIP3   OH226604   5.339   0.601  16.361  0.0750 -0.2153 -0.0098
 1730TIP3    H126605   5.283   0.539  16.407  0.0132 -0.4168 -0.3514
 1730TIP3    H226606   5.284   0.634  16.290  0.0282  0.4107  0.3160
 1731TIP3   OH226607   2.238   6.335  13.191  0.0937  0.7675 -0.1057
 1731TIP3    H126608   2.212   6.409  13.245  1.3554  0.6282  0.7013
 1731TIP3    H226609   2.164   6.321  13.132 -0.0698  2.8030 -0.4169
 1732TIP3   OH226610   0.236   0.560  15.418  0.2099 -0.4847  0.4557
 1732TIP3    H126611   0.247   0.652  15.392 -0.0807 -0.5303  0.1719
 1732TIP3    H226612   0.218   0.565  15.512  0.1728 -0.2494  0.4370
 1733TIP3   OH226613   5.105   0.492   5.789 -0.2291 -0.0851 -0.3643
 1733TIP3    H126614   5.162   0.430   5.835 -0.4760 -0.9971 -1.2639
 1733TIP3    H226615   5.077   0.553   5.857  0.0984 -0.9097  0.5283
 1734TIP3   OH226616   3.032   0.571  11.593  0.0804 -0.0657  0.0007
 1734TIP3    H126617   3.118   0.573  11.552  0.0627  1.1359 -0.0029
 1734TIP3    H226618   2.973   0.603  11.525 -0.6522 -2.5969 -0.6129
 1735TIP3   OH226619   3.824   6.138  14.090 -0.1243 -0.6335 -0.3749
 1735TIP3    H126620   3.915   6.147  14.117  0.0362 -0.9672 -0.7850
 1735TIP3    H226621   3.829   6.110  13.999 -0.6401 -0.5124 -0.4434
 1736TIP3   OH226622   3.382   4.232   4.533 -0.1783  0.0074 -0.0344
 1736TIP3    H126623   3.318   4.278   4.588 -0.3219 -1.2252  0.8605
 1736TIP3    H226624   3.340   4.227   4.447 -0.7755  0.2690  0.2365
 1737TIP3   OH226625   5.740   3.766   5.425 -0.0644  0.3695 -0.0953
 1737TIP3    H126626   5.648   3.741   5.423  0.1016 -0.1657 -2.0017
 1737TIP3    H226627   5.770   3.739   5.512 -1.4935 -0.2311  0.2267
 1738TIP3   OH226628   6.580   6.562  11.582 -0.3499 -0.6330 -0.1086
 1738TIP3    H126629   6.595   6.496  11.649 -0.8941 -0.7240 -0.0769
 1738TIP3    H226630   6.662   6.565  11.533  0.0337 -0.5954  0.5302
 1739TIP3   OH226631   5.466   3.357   4.860 -0.2416  0.0679  0.0300
 1739TIP3    H126632   5.375   3.381   4.880 -0.4542 -0.3962 -0.3566
 1739TIP3    H226633   5.510   3.358   4.945 -0.8800 -0.8417  0.3874
 1740TIP3   OH226634   0.726   6.606  16.866 -0.1101 -0.1306  0.4409
 1740TIP3    H126635   0.713   6.680  16.806  0.9794  0.5235  0.9966
 1740TIP3    H226636   0.775   6.542  16.816  0.7882  0.4102  0.6104
 1741TIP3   OH226637   0.142   0.591  13.670  0.1849  0.0367 -0.8737
 1741TIP3    H126638   0.126   0.499  13.649  0.8903 -0.2495 -0.1783
 1741TIP3    H226639   0.135   0.636  13.586 -0.8674 -0.5500 -1.1048
 1742TIP3   OH226640   1.070   0.246  15.414  0.0580 -0.1804  0.1711
 1742TIP3    H126641   1.015   0.205  15.348  0.5083 -0.0690 -0.2766
 1742TIP3    H226642   1.055   0.340  15.404 -1.0804 -0.2272  1.2914
 1743TIP3   OH226643   3.457   4.499   3.273 -0.3352 -0.3051 -0.2826
 1743TIP3    H126644   3.479   4.554   3.197 -0.0355 -0.3727 -0.2487
 1743TIP3    H226645   3.364   4.515   3.288  0.0847  1.3931  0.6901
 1744TIP3   OH226646   2.782   1.903   2.668  0.1294 -0.1139  0.1913
 1744TIP3    H126647   2.850   1.921   2.603  0.3654  0.9745  0.7170
 1744TIP3    H226648   2.789   1.976   2.730 -1.4485 -0.0438  0.3068
 1745TIP3   OH226649   2.707   4.042  13.242  0.5804  0.1986 -0.3014
 1745TIP3    H126650   2.644   3.999  13.300  1.7070 -0.4324  0.4762
 1745TIP3    H226651   2.722   3.979  13.171 -0.6295  0.8787 -1.1701
 1746TIP3   OH226652   5.985   0.138   2.277  0.2903 -0.1271  0.3027
 1746TIP3    H126653   6.045   0.073   2.240  0.2204 -0.4947  0.8316
 1746TIP3    H226654   5.995   0.214   2.220  1.1827 -0.2270  0.3189
 1747TIP3   OH226655   1.239   0.659  15.826 -0.0224 -0.2914 -0.1923
 1747TIP3    H126656   1.240   0.615  15.911 -2.6754 -0.9527 -0.4618
 1747TIP3    H226657   1.154   0.636  15.788  1.0848  0.0490 -3.0076
 1748TIP3   OH226658   0.971   3.549  10.658 -0.1787  0.4050  0.2201
 1748TIP3    H126659   1.039   3.482  10.671  0.9970  1.2043 -1.6315
 1748TIP3    H226660   0.913   3.512  10.593  0.2435  1.0089 -0.5041
 1749TIP3   OH226661   4.676   0.249   2.042  0.0709 -0.0404  0.4639
 1749TIP3    H126662   4.596   0.299   2.059 -0.4454 -0.8903  0.5756
 1749TIP3    H226663   4.747   0.312   2.052 -0.4939  0.4087  1.7555
 1750TIP3   OH226664   0.212   2.177  11.460 -0.1606  0.3001 -0.1440
 1750TIP3    H126665   0.215   2.225  11.377  0.0682  0.5206 -0.0120
 1750TIP3    H226666   0.157   2.101  11.443 -1.2228  1.0576 -0.1319
 1751TIP3   OH226667   2.103   6.551   3.298 -0.9015 -0.4448  0.2689
 1751TIP3    H126668   2.110   6.627   3.241 -1.4973 -0.1467  0.5941
 1751TIP3    H226669   2.145   6.578   3.380 -1.2276 -0.4244  0.4280
 1752TIP3   OH226670   6.640   3.455   0.771 -0.1540 -0.2753 -0.0300
 1752TIP3    H126671   6.623   3.363   0.753 -0.7143 -0.1294 -0.2713
 1752TIP3    H226672   6.726   3.472   0.732  0.3081 -0.8917  0.7226
 1753TIP3   OH226673   5.613   4.581  16.111  0.1850 -0.2680  0.3288
 1753TIP3    H126674   5.697   4.616  16.142 -0.2039 -0.1530  1.2873
 1753TIP3    H226675   5.571   4.548  16.191 -0.9011  0.1476 -0.0647
 1754TIP3   OH226676   3.102   3.382   2.848  0.2570  0.2511  0.2922
 1754TIP3    H126677   3.197   3.371   2.852  0.5057  1.5686 -1.3529
 1754TIP3    H226678   3.088   3.477   2.848 -1.0966  0.0649  1.1680
 1755TIP3   OH226679   6.621   1.725  13.833 -0.1363  0.4715  0.2408
 1755TIP3    H126680   6.615   1.654  13.897 -1.0451  0.0150 -0.3379
 1755TIP3    H226681   6.531   1.738  13.803  0.0478  1.7698  0.2311
 1756TIP3   OH226682   2.095   4.098  13.008 -0.1720 -0.5013 -0.3771
 1756TIP3    H126683   2.002   4.108  13.028 -0.0940 -0.5359  0.0100
 1756TIP3    H226684   2.108   4.003  13.005 -0.0870 -0.4981 -0.1304
 1757TIP3   OH226685   3.140   3.546  15.872  0.8141  0.0900 -0.1337
 1757TIP3    H126686   3.228   3.517  15.897  1.4881 -0.9995 -3.4916
 1757TIP3    H226687   3.153   3.593  15.790 -1.9337 -1.7493 -1.6803
 1758TIP3   OH226688   5.173   6.677   2.764 -0.1723 -0.4200  0.1582
 1758TIP3    H126689   5.176   6.679   2.669  0.2895  0.4168  0.1938
 1758TIP3    H226690   5.080   6.677   2.785 -0.2716  0.3833 -0.2692
 1759TIP3   OH226691   1.516   2.421  15.249 -0.5005  0.2443 -0.4434
 1759TIP3    H126692   1.545   2.384  15.166 -0.6915  0.7115 -0.7255
 1759TIP3    H226693   1.462   2.353  15.289  0.1257 -0.2275 -0.4028
 1760TIP3   OH226694   5.372   5.711  16.107 -0.3597  0.4280 -0.3562
 1760TIP3    H126695   5.332   5.628  16.134  1.0318 -0.2543 -0.3115
 1760TIP3    H226696   5.435   5.686  16.040  1.3060  1.2322  0.8708
 1761TIP3   OH226697   3.726   5.840   3.403  0.3413 -0.0127 -0.2964
 1761TIP3    H126698   3.757   5.826   3.493  1.0091  1.7781 -0.2131
 1761TIP3    H226699   3.731   5.754   3.362  0.8689 -0.6838  1.1409
 1762TIP3   OH226700   0.146   0.887   4.592 -0.2844 -0.3163 -0.2241
 1762TIP3    H126701   0.146   0.833   4.513  0.2334  0.4986 -0.7923
 1762TIP3    H226702   0.211   0.846   4.649  1.8396  1.0462 -1.6042
 1763TIP3   OH226703   2.941   4.094   4.925  0.2531  0.2808  0.6132
 1763TIP3    H126704   3.015   4.072   4.869 -0.0651  1.3458 -0.2291
 1763TIP3    H226705   2.877   4.136   4.867 -1.2306 -1.0643  1.2275
 1764TIP3   OH226706   6.133   2.441  14.074  0.2038  0.1517 -0.5019
 1764TIP3    H126707   6.118   2.393  14.155 -0.7143 -1.4491 -1.6068
 1764TIP3    H226708   6.050   2.484  14.055  0.0084 -0.5517 -1.2839
 1765TIP3   OH226709   4.415   1.941   3.319 -0.0551 -0.1692  0.1810
 1765TIP3    H126710   4.431   1.889   3.398 -0.2679  0.2456  0.4955
 1765TIP3    H226711   4.320   1.945   3.312 -0.0521 -2.1401 -1.3676
 1766TIP3   OH226712   3.099   3.628  12.864  0.2366  0.1981  0.1350
 1766TIP3    H126713   3.072   3.720  12.859 -0.5347 -0.0441 -0.2363
 1766TIP3    H226714   3.177   3.629  12.919 -1.5259  0.6944  2.7161
 1767TIP3   OH226715   1.273   4.139  12.935 -0.2384 -0.3194 -0.3709
 1767TIP3    H126716   1.219   4.118  13.011 -3.2397  2.4386 -1.6518
 1767TIP3    H226717   1.233   4.090  12.863 -1.5803  2.2729 -1.4677
 1768TIP3   OH226718   1.766   4.878  11.631  0.1642 -0.5946  0.1587
 1768TIP3    H126719   1.811   4.956  11.600 -1.9059  0.5566 -0.0360
 1768TIP3    H226720   1.737   4.834  11.551 -0.5641 -0.4147  0.3227
 1769TIP3   OH226721   2.070   4.793  17.048  0.1544  0.0085 -0.3672
 1769TIP3    H126722   1.993   4.783  16.992  0.2120 -0.8363 -0.3064
 1769TIP3    H226723   2.051   4.740  17.125  0.3864  0.5846  0.0899
 1770TIP3   OH226724   1.332   4.724  11.170  0.3330 -0.2308 -0.0410
 1770TIP3    H126725   1.240   4.735  11.147  0.1091 -0.0012  0.9530
 1770TIP3    H226726   1.338   4.635  11.204  1.2556 -1.6712 -3.7701
 1771TIP3   OH226727   6.517   3.831   2.301  0.5175 -0.1812 -0.5370
 1771TIP3    H126728   6.520   3.758   2.364  0.9899 -0.1438 -0.5096
 1771TIP3    H226729   6.603   3.872   2.309 -0.4016  1.5657  0.8170
 1772TIP3   OH226730   2.423   1.956  16.906  0.1997 -0.1268  0.3220
 1772TIP3    H126731   2.387   2.034  16.864 -0.7050  0.5232  2.2266
 1772TIP3    H226732   2.501   1.934  16.855 -0.3031  1.2065 -1.0506
 1773TIP3   OH226733   2.840   2.308   3.633 -0.0121 -0.5109 -0.4068
 1773TIP3    H126734   2.746   2.290   3.632  0.1606 -1.7631  2.2037
 1773TIP3    H226735   2.873   2.259   3.558 -1.1661 -1.7921 -0.1095
 1774TIP3   OH226736   4.549   3.034  16.436  0.4186  0.6240  0.3677
 1774TIP3    H126737   4.600   2.956  16.415  0.4538  0.7831 -0.1307
 1774TIP3    H226738   4.476   3.001  16.488  0.0085  0.1596 -0.5046
 1775TIP3   OH226739   6.006   0.191  12.873 -0.2062  0.2945  0.1045
 1775TIP3    H126740   6.039   0.225  12.790  2.2576  0.7786  1.2283
 1775TIP3    H226741   6.073   0.128  12.901  0.0723  1.6863  2.7223
 1776TIP3   OH226742   6.243   5.129   5.275 -0.3657 -0.2418  0.5351
 1776TIP3    H126743   6.229   5.059   5.339  0.0561 -0.0828  0.8006
 1776TIP3    H226744   6.281   5.201   5.326 -0.5538  0.0867  0.2133
 1777TIP3   OH226745   1.389   3.766   3.032  0.1573 -0.2028  0.3773
 1777TIP3    H126746   1.448   3.723   3.094 -1.4062 -2.6039  0.2500
 1777TIP3    H226747   1.307   3.778   3.080 -0.5363 -0.5471 -0.7004
 1778TIP3   OH226748   5.070   5.862  13.164  0.8016  0.3412 -0.7602
 1778TIP3    H126749   5.136   5.827  13.106  0.4631 -2.2930  0.3697
 1778TIP3    H226750   5.105   5.847  13.252  0.7903  3.1970 -0.2147
 1779TIP3   OH226751   3.252   1.822  14.977 -0.0840 -0.3869 -0.9034
 1779TIP3    H126752   3.198   1.798  15.052 -0.0286 -2.1343 -1.4063
 1779TIP3    H226753   3.258   1.918  14.981 -2.5944 -0.2168 -0.4111
 1780TIP3   OH226754   4.861   2.282   3.334 -0.1738  0.5571 -0.1144
 1780TIP3    H126755   4.882   2.367   3.373  1.1541  0.4510 -0.5754
 1780TIP3    H226756   4.886   2.291   3.242 -0.7344 -0.0866 -0.3335
 1781TIP3   OH226757   0.256   2.374  15.926  0.1998 -0.3781 -0.6426
 1781TIP3    H126758   0.168   2.405  15.946  0.6231  0.0250  0.5967
 1781TIP3    H226759   0.269   2.397  15.834 -0.5125  0.6816 -0.4846
 1782TIP3   OH226760   5.141   4.792   5.786  0.2718 -0.1111 -0.5214
 1782TIP3    H126761   5.203   4.849   5.740 -1.2788  1.9664 -0.1207
 1782TIP3    H226762   5.141   4.824   5.876 -2.1671  0.6589 -0.7580
 1783TIP3   OH226763   2.974   3.820  13.522 -0.3586 -0.7872  0.1843
 1783TIP3    H126764   2.979   3.825  13.427 -0.8976 -2.1327  0.0630
 1783TIP3    H226765   2.951   3.728  13.540 -0.5705 -0.4767  1.5936
 1784TIP3   OH226766   2.428   6.165   3.151  0.5342  0.1617  0.0617
 1784TIP3    H126767   2.415   6.079   3.112 -2.6953  0.9501 -0.7524
 1784TIP3    H226768   2.499   6.152   3.214  0.8592 -2.8195 -0.8425
 1785TIP3   OH226769   4.218   5.158  16.135 -0.1140 -0.0832  0.1928
 1785TIP3    H126770   4.130   5.134  16.106 -0.4768  0.2001  1.0092
 1785TIP3    H226771   4.220   5.254  16.128  0.8073 -0.2262 -1.6582
 1786TIP3   OH226772   2.934   3.310   3.048  0.1810 -0.1114  0.1903
 1786TIP3    H126773   2.980   3.291   2.966 -1.2456 -0.2303 -0.6144
 1786TIP3    H226774   2.930   3.406   3.051  0.1423 -0.1092  0.0672
 1787TIP3   OH226775   5.119   4.838   3.807  0.5802 -0.0707 -0.7049
 1787TIP3    H126776   5.088   4.924   3.833  0.9746  0.3444 -1.5977
 1787TIP3    H226777   5.170   4.807   3.882 -2.7072 -1.1722  1.1892
 1788TIP3   OH226778   2.308   1.081  15.666  0.3628  0.5033  0.4743
 1788TIP3    H126779   2.375   1.017  15.644  1.6560  1.4437  1.5263
 1788TIP3    H226780   2.278   1.115  15.582 -0.9874 -2.0715 -0.1489
 1789TIP3   OH226781   1.439   3.428   0.568  0.1358  0.1596  0.3529
 1789TIP3    H126782   1.365   3.468   0.523  0.0763  0.9899  1.1816
 1789TIP3    H226783   1.471   3.362   0.506 -0.8019  0.3303 -0.3320
 1790TIP3   OH226784   4.447   1.175  11.377 -0.0225  0.7277 -0.1197
 1790TIP3    H126785   4.468   1.088  11.412 -1.9455  0.1434 -0.3545
 1790TIP3    H226786   4.416   1.158  11.288 -0.4417  1.6644 -0.1592
 1791TIP3   OH226787   3.869   0.359  11.708 -0.6990 -0.2283 -0.5629
 1791TIP3    H126788   3.927   0.347  11.784 -0.9538  2.6573  0.1094
 1791TIP3    H226789   3.925   0.338  11.633  0.6184  0.4544  0.2022
 1792TIP3   OH226790   2.309   6.254  15.549 -0.4913 -0.1095 -0.2858
 1792TIP3    H126791   2.223   6.223  15.523 -0.9336  2.0526 -1.5003
 1792TIP3    H226792   2.307   6.348  15.533  2.2957 -0.1076 -0.8818
 1793TIP3   OH226793   5.785   5.350  12.555  0.5291 -0.0175  0.1980
 1793TIP3    H126794   5.694   5.368  12.578  0.5526 -0.9016  1.0170
 1793TIP3    H226795   5.780   5.309  12.469  0.2890  1.4798 -0.5197
 1794TIP3   OH226796   6.740   0.824  15.020  0.4012  0.2538 -0.2686
 1794TIP3    H126797   6.680   0.854  14.952 -0.2375  2.1757  1.0868
 1794TIP3    H226798   6.824   0.812  14.976 -0.5117 -0.6322 -1.7992
 1795TIP3   OH226799   1.258   6.077   5.323  0.1260 -0.2928 -0.1831
 1795TIP3    H126800   1.189   6.034   5.373 -0.9664  0.0871 -1.3329
 1795TIP3    H226801   1.336   6.023   5.337 -0.8084 -1.6658 -0.2122
 1796TIP3   OH226802   2.176   6.051  16.232 -0.5809  0.5608  0.5480
 1796TIP3    H126803   2.152   6.020  16.145 -1.2081  1.3425  0.4345
 1796TIP3    H226804   2.173   5.973  16.287 -2.5129  0.4572  0.3471
 1797TIP3   OH226805   2.599   2.375  12.998 -0.0637 -0.2329 -0.1636
 1797TIP3    H126806   2.566   2.290  12.967 -0.2928 -0.4602  0.6762
 1797TIP3    H226807   2.589   2.434  12.923 -0.0700 -0.9063 -0.6937
 1798TIP3   OH226808   3.293   1.020   0.701 -0.3413  0.0035 -0.1327
 1798TIP3    H126809   3.248   1.087   0.753  0.9783 -0.8929  2.2359
 1798TIP3    H226810   3.225   0.955   0.682  0.1243 -2.3329  5.0736
 1799TIP3   OH226811   4.031   1.490  10.811 -0.1849 -0.0857 -0.2793
 1799TIP3    H126812   3.987   1.545  10.746 -0.9980 -2.3275 -1.7264
 1799TIP3    H226813   3.964   1.426  10.837  0.0472  0.9085  3.0227
 1800TIP3   OH226814   5.458   6.549   2.018  0.4836 -0.1326  0.1081
 1800TIP3    H126815   5.418   6.620   2.069  0.5489  0.5251 -0.7449
 1800TIP3    H226816   5.519   6.508   2.078  2.6872  2.4510 -0.2860
 1801TIP3   OH226817   4.659   1.395  11.406  0.4828 -0.1240  0.6995
 1801TIP3    H126818   4.592   1.416  11.471 -2.1322  1.7913 -2.4632
 1801TIP3    H226819   4.617   1.331  11.349  1.9453 -0.1155 -0.4215
 1802TIP3   OH226820   4.015   6.377  13.242 -0.3370 -0.3649  0.0667
 1802TIP3    H126821   4.092   6.411  13.289 -0.1634 -0.1490 -0.3664
 1802TIP3    H226822   4.004   6.288  13.274 -0.2219 -0.2173  0.5209
 1803TIP3   OH226823   3.584   0.000   2.017 -0.4643  0.8493  0.4090
 1803TIP3    H126824   3.676  -0.025   2.022 -0.3337  1.4838  1.3117
 1803TIP3    H226825   3.540  -0.075   1.977  0.8665  1.5862 -2.6051
 1804TIP3   OH226826   6.439   1.364   5.341 -0.1092  0.2356  0.1871
 1804TIP3    H126827   6.519   1.312   5.334 -0.4184 -0.1450 -0.5596
 1804TIP3    H226828   6.384   1.333   5.269 -0.6760  0.9355  0.3171
 1805TIP3   OH226829   6.199   1.010   2.061 -0.3114 -0.7087  0.4671
 1805TIP3    H126830   6.202   0.919   2.088  0.2087  0.0095  2.9545
 1805TIP3    H226831   6.289   1.042   2.071 -0.2025 -0.2416 -1.6571
 1806TIP3   OH226832   1.826   5.537   1.504  0.2798  0.2609 -0.5541
 1806TIP3    H126833   1.824   5.442   1.494 -1.6000  0.0319  1.3660
 1806TIP3    H226834   1.757   5.569   1.445 -1.2384  0.1192  1.0905
 1807TIP3   OH226835   1.708   2.421   5.066  0.1836 -0.1486 -0.0456
 1807TIP3    H126836   1.636   2.461   5.019  0.1919 -0.6674 -0.5050
 1807TIP3    H226837   1.718   2.474   5.145  0.6876  1.1901 -1.0037
 1808TIP3   OH226838   5.823   1.555   5.570 -0.5072  0.3153 -0.0145
 1808TIP3    H126839   5.752   1.548   5.507 -1.2848  0.4520  0.8361
 1808TIP3    H226840   5.854   1.465   5.582 -1.6351  0.0381  0.8585
 1809TIP3   OH226841   0.311   3.294  15.779  0.2236  0.4919 -0.0379
 1809TIP3    H126842   0.247   3.360  15.804  1.5174  1.7591 -0.0506
 1809TIP3    H226843   0.262   3.234  15.723 -1.0279  1.2650  0.2070
 1810TIP3   OH226844   1.926   5.636  15.104 -0.2728 -0.6169  0.3334
 1810TIP3    H126845   1.872   5.708  15.072  0.3268  0.1179  0.9427
 1810TIP3    H226846   1.906   5.630  15.197 -0.7629 -1.6351  0.1600
 1811TIP3   OH226847   4.538   6.225  13.813 -0.2800  0.3293  0.4719
 1811TIP3    H126848   4.627   6.218  13.779 -1.0463  1.8545 -1.9592
 1811TIP3    H226849   4.529   6.316  13.840 -0.8678 -0.0098  1.4541
 1812TIP3   OH226850   6.066   1.698   6.261 -0.5417  1.2422  0.2064
 1812TIP3    H126851   5.988   1.663   6.304  0.1795  2.6432  2.7610
 1812TIP3    H226852   6.036   1.775   6.214 -0.9290  1.0355  0.1176
 1813TIP3   OH226853   1.447   2.419  16.347 -0.1895 -0.1551  0.4815
 1813TIP3    H126854   1.362   2.400  16.388  0.6077 -0.9409  1.8052
 1813TIP3    H226855   1.447   2.514  16.336 -2.0500 -0.3406 -1.3645
 1814TIP3   OH226856   6.686   1.732  16.809 -0.7807 -0.5132  0.0179
 1814TIP3    H126857   6.744   1.660  16.784 -1.6383 -0.6531 -1.6253
 1814TIP3    H226858   6.741   1.790  16.861  0.9946 -0.3651 -1.9511
 1815TIP3   OH226859   0.175   4.520   2.103 -0.9255 -0.5395 -0.2068
 1815TIP3    H126860   0.169   4.510   2.008 -0.5125  0.7005 -0.3681
 1815TIP3    H226861   0.203   4.434   2.134  0.4061 -0.5402 -1.3486
 1816TIP3   OH226862   1.295   5.327  14.745 -0.1382  0.1962 -0.2226
 1816TIP3    H126863   1.349   5.258  14.705  1.2871  0.5219  1.1321
 1816TIP3    H226864   1.252   5.283  14.818 -0.8301  0.2375 -0.5996
 1817TIP3   OH226865   0.859   0.400  12.584 -0.4231 -0.0306 -0.7361
 1817TIP3    H126866   0.897   0.450  12.512 -0.4088  0.7754 -0.1829
 1817TIP3    H226867   0.771   0.377  12.554 -0.4822  0.4567 -0.9397
 1818TIP3   OH226868   2.257   5.474  12.422  0.3903  0.1126  0.2029
 1818TIP3    H126869   2.325   5.537  12.397  1.0959 -0.7696 -0.1583
 1818TIP3    H226870   2.305   5.392  12.436 -0.6606 -0.6181 -0.4336
 1819TIP3   OH226871   1.832   5.240  11.943 -0.3017  0.3492 -0.3145
 1819TIP3    H126872   1.888   5.256  12.018 -0.6982 -0.7796  0.2450
 1819TIP3    H226873   1.843   5.317  11.887  1.7760  0.1524 -0.2118
 1820TIP3   OH226874   1.455   4.924   0.207 -0.1529 -0.2445 -0.2452
 1820TIP3    H126875   1.478   4.899   0.118 -1.0685  0.5542 -0.7178
 1820TIP3    H226876   1.523   4.985   0.234  0.5578 -1.0942 -0.1037
 1821TIP3   OH226877   4.686   3.148   4.068 -0.6008 -0.4761 -0.0690
 1821TIP3    H126878   4.702   3.141   4.162  0.3615 -0.5542 -0.2237
 1821TIP3    H226879   4.593   3.169   4.060 -1.0179 -1.9006  0.8402
 1822TIP3   OH226880   0.882   3.618  13.129  0.0917  0.4105 -0.2038
 1822TIP3    H126881   0.859   3.529  13.102 -0.0508  0.2640  0.3973
 1822TIP3    H226882   0.860   3.622  13.222 -1.8385  1.7115 -0.6760
 1823TIP3   OH226883   2.193   3.806   1.354  0.0716 -0.0377 -1.3792
 1823TIP3    H126884   2.157   3.879   1.302 -2.5548 -0.2458  0.0863
 1823TIP3    H226885   2.195   3.839   1.443  1.8862 -0.6851 -1.1624
 1824TIP3   OH226886   4.769   3.670  14.884  0.1675  0.0508  0.3291
 1824TIP3    H126887   4.750   3.616  14.807  0.8747 -0.6789  0.6661
 1824TIP3    H226888   4.689   3.721  14.897 -0.2029 -0.3086 -0.4886
 1825TIP3   OH226889   1.054   5.054  12.528  0.3549  0.2011  0.0034
 1825TIP3    H126890   1.021   4.965  12.522  0.5658  0.0086  1.6462
 1825TIP3    H226891   1.126   5.050  12.591  0.3134  1.5470  0.1623
 1826TIP3   OH226892   3.566   0.438  13.244 -0.2168  0.1956  0.6101
 1826TIP3    H126893   3.545   0.412  13.155 -0.0342 -2.1068  1.2087
 1826TIP3    H226894   3.482   0.455  13.286 -0.5134 -1.7194  0.8522
 1827TIP3   OH226895   0.850   1.808   2.262 -0.2197  0.1717 -0.2211
 1827TIP3    H126896   0.787   1.781   2.329  0.1865 -0.0825  0.0619
 1827TIP3    H226897   0.860   1.903   2.275  0.2801  0.0255  0.4347
 1828TIP3   OH226898   3.331   2.793  15.126 -0.1995 -0.4186 -0.5418
 1828TIP3    H126899   3.377   2.709  15.118 -0.8251 -0.9755  1.3350
 1828TIP3    H226900   3.398   2.859  15.106  0.3048 -1.3572 -2.0091
 1829TIP3   OH226901   5.506   5.245   1.011  0.2998 -0.0257  0.6299
 1829TIP3    H126902   5.417   5.266   0.986 -0.6906 -2.3511  1.9534
 1829TIP3    H226903   5.555   5.244   0.929 -0.7529  1.8344 -0.0380
 1830TIP3   OH226904   2.716   0.829  15.876 -0.1715  0.3126  0.1514
 1830TIP3    H126905   2.809   0.804  15.881 -0.4671 -0.7140  0.6882
 1830TIP3    H226906   2.669   0.746  15.877 -1.0783  0.8127 -0.8688
 1831TIP3   OH226907   1.790   0.302  14.277 -0.3358 -0.0707  0.0136
 1831TIP3    H126908   1.790   0.370  14.344 -1.2321 -0.0663  0.0119
 1831TIP3    H226909   1.707   0.313  14.231 -0.3865 -1.0137 -0.1372
 1832TIP3   OH226910   0.349   5.562  11.000 -0.1187 -0.3684 -0.1060
 1832TIP3    H126911   0.354   5.481  10.949 -1.8618 -0.3267 -0.3588
 1832TIP3    H226912   0.391   5.627  10.944 -1.4648 -0.4539 -1.2388
 1833TIP3   OH226913   4.701   0.727   2.445  0.2486 -0.2302 -0.2410
 1833TIP3    H126914   4.607   0.709   2.445 -0.0959  1.4559  0.1760
 1833TIP3    H226915   4.732   0.695   2.530 -0.4272  1.4143  0.6573
 1834TIP3   OH226916   1.182   2.654  16.999  0.4997  0.1892  0.1444
 1834TIP3    H126917   1.252   2.593  17.024 -0.3286 -0.9663 -0.2998
 1834TIP3    H226918   1.202   2.678  16.909  0.1476 -0.3989 -0.0925
 1835TIP3   OH226919   1.121   3.878   2.743  0.3356  0.6373  0.5525
 1835TIP3    H126920   1.176   3.887   2.665  1.3001 -1.8614  0.9029
 1835TIP3    H226921   1.156   3.942   2.805  1.0169  1.0292 -0.2269
 1836TIP3   OH226922   4.186   5.461  10.721 -0.2263  0.3418  0.0156
 1836TIP3    H126923   4.122   5.460  10.792  0.0425 -1.1448  0.2545
 1836TIP3    H226924   4.203   5.369  10.703  1.9424  0.7160  0.0385
 1837TIP3   OH226925   3.000   1.299   5.498  0.5756  0.2860 -0.0479
 1837TIP3    H126926   3.069   1.286   5.563 -0.2813 -0.1296  0.8054
 1837TIP3    H226927   3.025   1.244   5.424  0.6575 -0.6408  0.6585
 1838TIP3   OH226928   6.437   0.775  16.745  0.5733  0.5119 -0.5009
 1838TIP3    H126929   6.439   0.763  16.840  0.8731  1.2618 -0.4140
 1838TIP3    H226930   6.350   0.745  16.720  0.6919 -0.2360 -0.0672
 1839TIP3   OH226931   5.370   0.425   0.080 -0.3777  0.2502 -0.3994
 1839TIP3    H126932   5.426   0.395   0.152 -1.1350 -1.2422 -0.4187
 1839TIP3    H226933   5.285   0.385   0.098 -0.8284  0.6477 -1.6253
 1840TIP3   OH226934   5.203   1.254   0.934  0.1892 -0.6879  0.4554
 1840TIP3    H126935   5.267   1.182   0.938 -1.1779 -1.9161  0.5383
 1840TIP3    H226936   5.126   1.214   0.894 -0.1607  1.0646 -0.6405
 1841TIP3   OH226937   1.851   3.158  13.420  0.2901 -0.0414 -0.1733
 1841TIP3    H126938   1.933   3.208  13.414 -0.2157  0.6892 -1.0837
 1841TIP3    H226939   1.874   3.080  13.471  0.8788  1.5744  2.1434
 1842TIP3   OH226940   4.105   0.375   1.970 -0.3928  0.1871  0.6540
 1842TIP3    H126941   4.049   0.436   1.923  0.9688  0.6778 -0.3620
 1842TIP3    H226942   4.134   0.312   1.904  0.3765  0.0276  1.1366
 1843TIP3   OH226943   1.096   4.732  16.571 -0.4737  0.0918 -0.1349
 1843TIP3    H126944   1.019   4.772  16.612 -0.3555  0.5748 -0.3701
 1843TIP3    H226945   1.169   4.787  16.601 -0.5034  1.0663 -1.7763
 1844TIP3   OH226946   2.266   5.832   4.204  0.4882  0.0132  0.3340
 1844TIP3    H126947   2.265   5.804   4.295  0.3795  0.9183  0.6127
 1844TIP3    H226948   2.246   5.926   4.207 -0.1391 -0.0826 -0.6635
 1845TIP3   OH226949   3.237   1.731  16.284  0.4405 -0.3932  0.1821
 1845TIP3    H126950   3.271   1.668  16.348  0.5680 -0.4241  0.0828
 1845TIP3    H226951   3.188   1.678  16.222 -1.0214 -0.1853  1.1378
 1846TIP3   OH226952   6.695   5.725  12.358  0.3202  0.4544  0.3555
 1846TIP3    H126953   6.670   5.761  12.443 -1.8143 -0.2117  0.0336
 1846TIP3    H226954   6.616   5.682  12.325  0.2053  3.1003 -3.2187
 1847TIP3   OH226955   1.117   5.501   5.085 -0.7196 -0.1152  0.4605
 1847TIP3    H126956   1.083   5.452   5.160  0.1684  0.1656  1.0598
 1847TIP3    H226957   1.042   5.509   5.026 -1.7220  0.5492  1.7688
 1848TIP3   OH226958   0.685   3.970  14.921  0.2637 -0.9456  0.3248
 1848TIP3    H126959   0.779   3.984  14.937  0.5499 -1.2973 -1.0012
 1848TIP3    H226960   0.675   3.875  14.922  0.2372 -0.9665 -1.2481
 1849TIP3   OH226961   5.156   4.588   5.976 -0.0350 -0.6031  0.3160
 1849TIP3    H126962   5.064   4.600   6.001  0.5983  2.4883  1.4821
 1849TIP3    H226963   5.161   4.620   5.886 -0.5962 -3.3528 -0.7242
 1850TIP3   OH226964   5.091   3.583   2.015  0.0072 -0.5784 -0.1007
 1850TIP3    H126965   5.023   3.571   1.949 -0.0165  0.8511 -0.3540
 1850TIP3    H226966   5.076   3.512   2.078 -2.8309  0.7609  0.8124
 1851TIP3   OH226967   0.202   1.427   0.263  0.0329 -0.4147  0.0287
 1851TIP3    H126968   0.222   1.417   0.356 -1.8154  0.4131  0.5428
 1851TIP3    H226969   0.286   1.417   0.219  0.9829 -0.4868  1.8098
 1852TIP3   OH226970   6.610   3.392  15.430 -0.4150  0.6436  0.4553
 1852TIP3    H126971   6.637   3.306  15.462  0.2659  0.2710 -1.0517
 1852TIP3    H226972   6.688   3.447  15.441  0.2648  0.1713 -1.7211
 1853TIP3   OH226973   5.242   5.016  10.825  0.3965  0.6167  0.3960
 1853TIP3    H126974   5.248   4.947  10.758 -0.3767 -0.6758  1.6225
 1853TIP3    H226975   5.283   4.978  10.903 -2.2844  0.5467  1.8485
 1854TIP3   OH226976   3.669   0.899   3.482  0.0393  0.2784  0.1627
 1854TIP3    H126977   3.672   0.902   3.386  1.3163 -0.6469  0.1640
 1854TIP3    H226978   3.761   0.897   3.509 -0.3094  0.6816  1.4243
 1855TIP3   OH226979   0.705   3.637  11.089  0.8066 -0.6264 -0.1840
 1855TIP3    H126980   0.612   3.645  11.069  0.6480 -2.1269 -0.1289
 1855TIP3    H226981   0.749   3.675  11.014  0.1627 -1.8230 -1.1856
 1856TIP3   OH226982   5.638   5.400   5.165 -0.3285  0.1260  0.1209
 1856TIP3    H126983   5.677   5.433   5.246  0.6269  0.4821 -0.4795
 1856TIP3    H226984   5.675   5.312   5.155  1.0244  0.7965 -0.9099
 1857TIP3   OH226985   1.458   3.360   2.245 -0.0477  0.1608 -0.5528
 1857TIP3    H126986   1.426   3.361   2.336  0.4585  1.5478 -0.3799
 1857TIP3    H226987   1.477   3.268   2.228 -1.9403 -0.3914  0.1121
 1858TIP3   OH226988   3.943   2.150  12.410 -0.2924 -0.2592 -0.0761
 1858TIP3    H126989   3.887   2.159  12.487  0.6995  2.0133  0.4297
 1858TIP3    H226990   3.915   2.220  12.352 -0.0011 -1.0089 -1.1315
 1859TIP3   OH226991   0.451   4.162   2.497  0.3573 -0.0267 -0.1120
 1859TIP3    H126992   0.409   4.186   2.414  0.5372 -2.2608 -0.9039
 1859TIP3    H226993   0.539   4.136   2.472  1.2402  1.6973  1.1478
 1860TIP3   OH226994   4.526   5.578  16.219  0.2128 -0.2527  0.5794
 1860TIP3    H126995   4.609   5.583  16.266  1.6566 -0.7621 -1.7961
 1860TIP3    H226996   4.524   5.658  16.166 -2.0135  0.9827  2.4607
 1861TIP3   OH226997   4.344   0.797   2.949 -0.2129  0.3839  0.3869
 1861TIP3    H126998   4.338   0.842   3.033  0.2630  0.4055  0.4098
 1861TIP3    H226999   4.377   0.863   2.888  1.2758 -0.1479  0.5990
 1862TIP3   OH227000   3.599   0.572   2.989  0.5257  0.2168  0.3611
 1862TIP3    H127001   3.615   0.490   2.942 -1.1422 -0.2121  0.4963
 1862TIP3    H227002   3.648   0.638   2.941  1.1867 -0.7188 -0.2542
 1863TIP3   OH227003   5.402   0.211  15.888  0.1338 -0.4402 -0.0240
 1863TIP3    H127004   5.386   0.300  15.920  0.7565 -0.3675  0.0835
 1863TIP3    H227005   5.421   0.221  15.795 -1.1315 -0.5990 -0.3166
 1864TIP3   OH227006   3.252   6.617  15.686  0.6224 -0.2354 -0.2480
 1864TIP3    H127007   3.267   6.559  15.612  0.7807  0.1692 -0.5362
 1864TIP3    H227008   3.283   6.703  15.656  2.5047 -0.4579  0.9556
 1865TIP3   OH227009   0.157   6.405   5.270  0.3877 -0.3269 -0.1245
 1865TIP3    H127010   0.230   6.382   5.212  0.3616  0.2829 -0.4063
 1865TIP3    H227011   0.115   6.322   5.290  1.3799 -0.7234  0.3273
 1866TIP3   OH227012   4.647   5.180   1.221 -0.0321 -0.3040 -0.2383
 1866TIP3    H127013   4.713   5.115   1.200 -0.5283 -1.6884  2.2341
 1866TIP3    H227014   4.696   5.261   1.233  0.8198 -0.6146 -1.5351
 1867TIP3   OH227015   5.885   1.129   5.116  0.0796  0.2374  0.4803
 1867TIP3    H127016   5.803   1.102   5.075  0.1917  0.4029  0.1504
 1867TIP3    H227017   5.937   1.049   5.120 -1.1956 -0.5036  3.2984
 1868TIP3   OH227018   2.395   4.824   4.262 -0.5225  0.1752 -0.1266
 1868TIP3    H127019   2.357   4.889   4.322  0.1672 -0.5760  1.1510
 1868TIP3    H227020   2.329   4.755   4.256 -0.7215  0.3962 -0.4779
 1869TIP3   OH227021   3.694   5.193  14.249 -0.2049  0.1228 -0.6668
 1869TIP3    H127022   3.722   5.254  14.317  0.0294 -0.9372  0.1989
 1869TIP3    H227023   3.754   5.119  14.257 -2.1396 -1.4135  0.0724
 1870TIP3   OH227024   3.051   1.191   3.078  0.3855 -0.0314 -0.5196
 1870TIP3    H127025   2.995   1.114   3.084  1.5200 -1.0178 -2.0914
 1870TIP3    H227026   3.132   1.165   3.121 -0.3094  1.3771  1.7213
 1871TIP3   OH227027   1.829   6.623   3.320  0.4529  0.1833  0.0895
 1871TIP3    H127028   1.915   6.588   3.342  0.0229 -0.6693  0.4134
 1871TIP3    H227029   1.811   6.589   3.232  0.3159  0.1211  0.1425
 1872TIP3   OH227030   0.866   2.518   5.149  0.8901 -0.6756 -0.1598
 1872TIP3    H127031   0.841   2.477   5.066  1.3422 -0.3572 -0.4571
 1872TIP3    H227032   0.791   2.504   5.207  0.1923 -0.0833 -0.9124
 1873TIP3   OH227033   2.621   2.126   1.951  0.1818  0.0945  0.1520
 1873TIP3    H127034   2.685   2.189   1.985  0.2224 -0.2747  0.7858
 1873TIP3    H227035   2.542   2.176   1.937  1.1662  0.9664 -2.4900
 1874TIP3   OH227036   0.317   4.266  12.039 -0.0197  0.1890  0.0468
 1874TIP3    H127037   0.407   4.246  12.066  0.1834  1.1721  0.0881
 1874TIP3    H227038   0.278   4.180  12.022  0.9292 -0.2375  0.0113
 1875TIP3   OH227039   0.570   1.342  13.689 -0.2054 -0.3798  0.2353
 1875TIP3    H127040   0.661   1.332  13.660 -0.3704 -1.4763  0.0827
 1875TIP3    H227041   0.559   1.437  13.700  0.1173  0.0256 -2.4948
 1876TIP3   OH227042   3.789   4.000  16.216 -0.2746  0.2417 -0.0161
 1876TIP3    H127043   3.789   4.093  16.195  0.6850  0.8096  2.3574
 1876TIP3    H227044   3.697   3.973  16.206 -0.2620  0.9628 -2.5131
 1877TIP3   OH227045   4.339   1.102  11.860 -0.5435  0.0316 -0.3257
 1877TIP3    H127046   4.310   1.012  11.845 -1.8541  0.4206 -0.2032
 1877TIP3    H227047   4.266   1.142  11.908  0.1656  1.0659 -0.1205
 1878TIP3   OH227048   1.706   4.658   4.774 -0.8594 -0.7310  0.4712
 1878TIP3    H127049   1.746   4.602   4.707  0.1117 -0.4298  0.8043
 1878TIP3    H227050   1.758   4.644   4.852  0.5465  2.0339  0.0895
 1879TIP3   OH227051   4.480   1.262  10.853  0.1994 -0.2204 -0.1771
 1879TIP3    H127052   4.476   1.354  10.828 -1.0997 -0.6280 -1.5770
 1879TIP3    H227053   4.509   1.216  10.774  2.3927 -0.8516  0.9746
 1880TIP3   OH227054   1.639   4.452  16.060 -0.2365  0.2303  0.0542
 1880TIP3    H127055   1.544   4.442  16.064 -0.1426 -0.4096  0.8401
 1880TIP3    H227056   1.673   4.371  16.098  0.6278  0.2380 -0.6789
 1881TIP3   OH227057   4.366   3.392   5.764 -0.7299 -0.1744  0.4434
 1881TIP3    H127058   4.327   3.307   5.787  0.3425 -0.5022  1.1063
 1881TIP3    H227059   4.307   3.457   5.801 -1.0527 -0.6508  0.7666
 1882TIP3   OH227060   3.317   1.302  16.025  0.2214  0.0035 -0.0531
 1882TIP3    H127061   3.340   1.252  15.948 -1.1690 -1.3435  0.3782
 1882TIP3    H227062   3.368   1.263  16.096  0.1273  0.0481  0.0419
 1883TIP3   OH227063   2.863   0.520  16.792  0.0144 -0.4283  0.0515
 1883TIP3    H127064   2.940   0.557  16.837  0.2548 -1.0535  0.1725
 1883TIP3    H227065   2.793   0.526  16.857  0.1453 -0.5176  0.2044
 1884TIP3   OH227066   3.465   0.224   0.588  0.2479 -0.4361 -0.1231
 1884TIP3    H127067   3.560   0.227   0.603  0.1369  0.9798  0.3995
 1884TIP3    H227068   3.428   0.272   0.662 -1.0205 -2.5459  0.6488
 1885TIP3   OH227069   1.118   1.996  14.020 -0.0521 -0.3521 -0.1065
 1885TIP3    H127070   1.143   1.990  13.928 -0.2783 -0.9148 -0.1328
 1885TIP3    H227071   1.196   1.967  14.068  0.5892  1.3632 -0.0591
 1886TIP3   OH227072   5.631   1.691   0.434 -0.0289 -0.2687  0.2496
 1886TIP3    H127073   5.622   1.784   0.414 -0.1570 -0.8410 -2.5579
 1886TIP3    H227074   5.716   1.684   0.477  1.2962  0.8162 -2.0769
 1887TIP3   OH227075   2.632   3.059  13.780  0.0462  0.3870  0.7007
 1887TIP3    H127076   2.640   2.991  13.713  0.0187 -0.2067  1.2947
 1887TIP3    H227077   2.714   3.108  13.774 -1.7006  3.1398 -2.7678
 1888TIP3   OH227078   6.165   2.712   4.690 -0.8297 -0.6441 -0.6263
 1888TIP3    H127079   6.090   2.726   4.632 -0.2049  1.7452 -0.9145
 1888TIP3    H227080   6.227   2.662   4.637 -0.9858 -0.0040 -1.4200
 1889TIP3   OH227081   1.861   6.786  15.985 -0.6310 -0.3164 -0.2842
 1889TIP3    H127082   1.863   6.691  15.996  2.7181 -0.3575 -0.6245
 1889TIP3    H227083   1.919   6.819  16.054 -0.0633  1.2920 -1.4990
 1890TIP3   OH227084   6.249   4.433  15.395 -0.0673  0.1130  0.1594
 1890TIP3    H127085   6.186   4.381  15.345  0.5900 -1.5604  1.0098
 1890TIP3    H227086   6.294   4.487  15.330  0.2533 -1.4734 -0.9613
 1891TIP3   OH227087   4.624   1.664   5.786 -0.7333 -0.2267  0.1837
 1891TIP3    H127088   4.596   1.713   5.863 -0.4805 -0.1980  0.2575
 1891TIP3    H227089   4.543   1.628   5.749 -0.9692  0.5817 -0.0967
 1892TIP3   OH227090   5.679   2.827  11.505 -0.1176  0.3055  0.1824
 1892TIP3    H127091   5.751   2.885  11.531  0.1431  0.2410 -0.3809
 1892TIP3    H227092   5.609   2.846  11.568  0.0090  1.1463  0.0816
 1893TIP3   OH227093   1.460   5.523   3.992 -0.4768 -0.9863 -0.3134
 1893TIP3    H127094   1.383   5.502   4.044  0.7724 -1.5684  1.3480
 1893TIP3    H227095   1.508   5.440   3.987  0.5024 -0.4118 -0.5413
 1894TIP3   OH227096   3.572   5.474  14.109 -0.1864 -0.0516  0.1866
 1894TIP3    H127097   3.612   5.442  14.029 -1.1094  0.1591 -0.3693
 1894TIP3    H227098   3.642   5.471  14.174  0.2180 -1.4622 -0.3002
 1895TIP3   OH227099   4.166   0.188   2.678 -0.4494 -0.0001  0.4179
 1895TIP3    H127100   4.204   0.239   2.749  0.6398  0.2896 -0.3544
 1895TIP3    H227101   4.144   0.104   2.718 -0.7814  0.5074  1.3217
 1896TIP3   OH227102   5.404   4.543   0.341  0.6963 -0.2740 -0.7261
 1896TIP3    H127103   5.395   4.514   0.250 -0.2140 -0.6185 -0.5310
 1896TIP3    H227104   5.425   4.636   0.334 -1.7535  0.2856 -1.2596
 1897TIP3   OH227105   3.287   0.733  15.841 -0.4066 -0.1870 -0.1779
 1897TIP3    H127106   3.277   0.668  15.771 -1.9268 -1.3001  1.0467
 1897TIP3    H227107   3.281   0.683  15.922  3.3079  0.8274  0.7938
 1898TIP3   OH227108   3.051   5.099   5.578 -0.8194 -0.2990  0.3945
 1898TIP3    H127109   3.023   5.022   5.627  3.2924 -1.4655  1.0793
 1898TIP3    H227110   3.067   5.165   5.644 -0.9580  0.0432  0.0865
 1899TIP3   OH227111   3.540   3.302  15.198 -0.0203 -0.0639  0.3002
 1899TIP3    H127112   3.504   3.233  15.253  0.1445 -0.0799  0.3891
 1899TIP3    H227113   3.579   3.256  15.123  0.6689 -0.1160  0.6852
 1900TIP3   OH227114   3.985   3.585   2.840 -0.0576  0.5115 -0.0400
 1900TIP3    H127115   4.015   3.498   2.865 -0.7552  0.4489  0.5781
 1900TIP3    H227116   4.065   3.630   2.811 -0.0370 -1.1231 -2.7453
 1901TIP3   OH227117   0.275   4.064  12.718 -0.3335 -0.3798 -0.1246
 1901TIP3    H127118   0.276   4.160  12.720  0.7566 -0.3764 -0.3579
 1901TIP3    H227119   0.205   4.039  12.778  0.3803  0.5359  1.1068
 1902TIP3   OH227120   6.395   6.586  16.416 -0.3387 -0.1186 -0.4396
 1902TIP3    H127121   6.409   6.494  16.440  2.0133  0.4030  0.3862
 1902TIP3    H227122   6.445   6.635  16.481  0.0869  1.6554 -2.0487
 1903TIP3   OH227123   4.568   3.579   2.808 -0.1505  0.2614 -0.2310
 1903TIP3    H127124   4.505   3.548   2.743  1.3159 -1.3170 -0.9629
 1903TIP3    H227125   4.609   3.656   2.768 -1.1188  0.8872 -0.0336
 1904TIP3   OH227126   3.578   2.950   2.428 -0.0779  0.3164 -0.6119
 1904TIP3    H127127   3.540   2.972   2.343 -2.6520 -1.6571 -0.0320
 1904TIP3    H227128   3.601   3.035   2.467 -1.6255  1.4199 -2.0297
 1905TIP3   OH227129   1.719   5.053   2.100 -0.0548 -0.1577  0.2041
 1905TIP3    H127130   1.654   4.997   2.057  0.5135 -0.8357  0.2198
 1905TIP3    H227131   1.768   5.092   2.028 -0.2509  0.0789  0.1994
 1906TIP3   OH227132   5.657   1.319   5.971  0.0894  0.2713  0.3314
 1906TIP3    H127133   5.649   1.268   6.052 -1.1400  0.3308  0.2559
 1906TIP3    H227134   5.574   1.306   5.927  0.0670  1.7418 -0.0588
 1907TIP3   OH227135   6.638   1.265  14.491  0.0071  0.7220  0.2653
 1907TIP3    H127136   6.646   1.240  14.584  0.9554  3.3487  0.9449
 1907TIP3    H227137   6.544   1.258  14.472 -0.4746  2.0292  2.0133
 1908TIP3   OH227138   2.825   5.094  12.157 -0.2336 -0.0297  0.6488
 1908TIP3    H127139   2.864   5.069  12.240  1.6370 -1.7575 -0.6925
 1908TIP3    H227140   2.896   5.137  12.109 -0.0290 -2.7590 -1.6217
 1909TIP3   OH227141   5.372   2.274   5.020  0.3532  0.1045 -0.0190
 1909TIP3    H127142   5.326   2.213   4.963 -1.3675  2.1318 -0.8394
 1909TIP3    H227143   5.434   2.319   4.962 -2.1041  2.8918 -0.5807
 1910TIP3   OH227144   3.757   2.489   7.096 -0.2817 -0.0425 -0.1501
 1910TIP3    H127145   3.806   2.547   7.037 -0.7855  1.3103  0.7322
 1910TIP3    H227146   3.671   2.532   7.105 -0.2054 -0.2129  1.5856
 1911TIP3   OH227147   4.967   0.604   1.226 -0.1680 -0.2003 -0.2071
 1911TIP3    H127148   4.964   0.515   1.262  1.1219  0.1253  0.7091
 1911TIP3    H227149   5.056   0.613   1.192 -0.1744  0.8831  0.0622
 1912TIP3   OH227150   5.998   5.608  13.130  0.3089  0.5597  0.0179
 1912TIP3    H127151   5.907   5.584  13.147  0.3536 -0.0330 -0.5747
 1912TIP3    H227152   6.035   5.531  13.088  1.9011 -0.3525  2.9362
 1913TIP3   OH227153   3.413   5.969  14.022  0.3928  1.1923 -0.4519
 1913TIP3    H127154   3.462   6.038  14.067 -1.6029  0.9120  2.2509
 1913TIP3    H227155   3.366   6.015  13.952 -0.2240  2.4471  0.7572
 1914TIP3   OH227156   3.214   1.205  13.771 -0.6089 -0.5107 -0.3865
 1914TIP3    H127157   3.249   1.118  13.792 -0.2671 -0.5194 -0.9745
 1914TIP3    H227158   3.286   1.265  13.788 -0.7274 -0.3823 -0.3332
 1915TIP3   OH227159   1.444   4.313   0.644  0.1893  0.4317 -0.3117
 1915TIP3    H127160   1.360   4.282   0.680  0.6052  0.1772  0.4604
 1915TIP3    H227161   1.467   4.388   0.699 -0.2531  1.4204 -1.4606
 1916TIP3   OH227162   1.771   6.633  15.332 -0.3009 -0.2342 -0.1133
 1916TIP3    H127163   1.725   6.706  15.374  1.6723  2.4908 -2.4199
 1916TIP3    H227164   1.708   6.598  15.269 -0.6832  0.7360 -0.2886
 1917TIP3   OH227165   1.091   4.000  14.088 -0.1066 -0.2201  0.1399
 1917TIP3    H127166   1.163   3.942  14.117 -1.0850 -0.7653  1.5186
 1917TIP3    H227167   1.086   3.985  13.993  1.1444 -0.6843  0.1267
 1918TIP3   OH227168   6.615   5.589   5.210 -0.3479  0.0797 -0.3777
 1918TIP3    H127169   6.670   5.656   5.249 -1.4887  1.9527 -1.8839
 1918TIP3    H227170   6.672   5.542   5.149  0.6862 -0.9293  1.3617
 1919TIP3   OH227171   5.272   5.134  13.523  0.1813 -0.1289  0.4213
 1919TIP3    H127172   5.310   5.170  13.603  0.9933 -0.6843  0.2842
 1919TIP3    H227173   5.179   5.156  13.529  0.6992  2.3604  0.1605
 1920TIP3   OH227174   0.921   5.810   5.070 -0.1755 -0.1666  0.0764
 1920TIP3    H127175   0.920   5.898   5.032  0.4719  0.3157  1.1338
 1920TIP3    H227176   1.009   5.778   5.052 -0.1951 -0.3320  0.2781
 1921TIP3   OH227177   5.803   6.139  13.845 -0.0051  0.2436  0.4207
 1921TIP3    H127178   5.756   6.149  13.928 -0.9829  3.0105 -0.4137
 1921TIP3    H227179   5.782   6.050  13.816 -2.4113  0.4303  1.4936
 1922TIP3   OH227180   5.420   2.226  17.105 -0.2067 -0.5870  0.0867
 1922TIP3    H127181   5.463   2.250  17.187 -1.4552 -0.0064  0.5919
 1922TIP3    H227182   5.429   2.131  17.099 -0.1528 -0.6330  0.9169
 1923TIP3   OH227183   0.008   2.005  11.449 -0.0678 -0.0019 -0.4259
 1923TIP3    H127184  -0.014   1.915  11.426 -0.7487 -0.0920  0.5456
 1923TIP3    H227185  -0.055   2.058  11.401 -0.8604 -0.1436  0.4355
 1924TIP3   OH227186   6.445   5.613   0.038 -0.3385  0.0884  0.6538
 1924TIP3    H127187   6.385   5.631   0.111  0.8459 -0.4615  1.7650
 1924TIP3    H227188   6.447   5.518   0.031 -1.5972  0.1591 -1.0779
 1925TIP3   OH227189   2.288   2.573   5.717  0.4012  0.2735 -0.4649
 1925TIP3    H127190   2.223   2.575   5.787  2.6647 -0.5573  1.6983
 1925TIP3    H227191   2.319   2.482   5.714  0.1611  0.2224 -2.7399
 1926TIP3   OH227192   3.238   6.288  11.394 -0.6881  0.2646 -0.1957
 1926TIP3    H127193   3.260   6.292  11.487 -1.2822  0.0504 -0.0421
 1926TIP3    H227194   3.317   6.253  11.352 -0.6563 -0.2918  0.3143
 1927TIP3   OH227195   2.805   4.568  15.157  0.1494 -0.0830 -0.3495
 1927TIP3    H127196   2.850   4.602  15.080  0.5967  2.6599  1.0736
 1927TIP3    H227197   2.720   4.610  15.156  0.9855  1.7836  1.8455
 1928TIP3   OH227198   0.816   2.051  13.491  0.1286 -0.2477  0.0548
 1928TIP3    H127199   0.728   2.075  13.520  0.3770 -0.8109  1.3187
 1928TIP3    H227200   0.833   2.106  13.415 -0.4830  1.3888  1.0902
 1929TIP3   OH227201   3.825   5.761   3.629  0.4953 -0.3237 -0.5893
 1929TIP3    H127202   3.912   5.726   3.650  0.3359  0.5515  1.7411
 1929TIP3    H227203   3.768   5.722   3.695 -0.4877  0.7595 -0.7871
 1930TIP3   OH227204   0.991   5.424   3.842 -0.7432  0.8934  0.2944
 1930TIP3    H127205   1.061   5.481   3.811  0.7334 -0.4037  1.1669
 1930TIP3    H227206   0.949   5.392   3.761  2.6895 -1.9884 -0.4956
 1931TIP3   OH227207   5.666   0.355  13.349  0.8458 -0.0279 -0.3559
 1931TIP3    H127208   5.683   0.269  13.310  0.7320 -1.3912  2.4695
 1931TIP3    H227209   5.571   0.357  13.363  0.7834  0.7668 -0.8503
 1932TIP3   OH227210   2.258   2.643  13.756  0.3273 -0.0541  0.9651
 1932TIP3    H127211   2.335   2.589  13.740 -0.1058 -0.4460  0.1995
 1932TIP3    H227212   2.205   2.592  13.817  0.0428 -0.3751  0.4484
 1933TIP3   OH227213   0.063   6.615  13.699 -0.1350 -0.0426  0.0929
 1933TIP3    H127214   0.048   6.649  13.787 -0.4480  0.1565 -0.0355
 1933TIP3    H227215   0.030   6.526  13.701 -0.3623  0.0399  0.1135
 1934TIP3   OH227216   0.342   1.456  12.076  0.1160 -0.3020 -0.3877
 1934TIP3    H127217   0.408   1.505  12.126  0.3816 -0.9915 -0.0569
 1934TIP3    H227218   0.264   1.511  12.079 -0.1924 -0.8510  1.7071
 1935TIP3   OH227219   6.138   3.781   1.040  0.0983 -0.2825  0.4153
 1935TIP3    H127220   6.073   3.729   1.087  0.0436 -1.3762 -0.8409
 1935TIP3    H227221   6.171   3.722   0.972  0.8335  0.9800 -0.3387
 1936TIP3   OH227222   3.544   3.849   1.955 -0.0736 -0.1542 -0.5053
 1936TIP3    H127223   3.455   3.865   1.924 -0.9027 -3.2989  0.0554
 1936TIP3    H227224   3.588   3.808   1.880  0.6562  0.6450 -0.5153
 1937TIP3   OH227225   0.285   3.709   2.985 -0.1347  0.6219 -0.7504
 1937TIP3    H127226   0.355   3.767   3.016  1.8262 -1.9605 -0.2829
 1937TIP3    H227227   0.204   3.754   3.013  1.3344  2.9153 -0.0102
 1938TIP3   OH227228   4.773   5.757  15.110 -0.6521  0.1297  0.3598
 1938TIP3    H127229   4.868   5.757  15.101 -0.7516 -0.4758 -0.7976
 1938TIP3    H227230   4.747   5.849  15.098 -0.0652  0.6233  2.6163
 1939TIP3   OH227231   3.528   2.460   3.078 -0.3542  0.0073 -0.0406
 1939TIP3    H127232   3.517   2.517   3.003 -0.9794  0.5655  0.4600
 1939TIP3    H227233   3.584   2.509   3.138  0.6393 -0.6846 -0.3868
 1940TIP3   OH227234   5.730   3.105   5.229 -0.1488 -0.2187 -0.3937
 1940TIP3    H127235   5.797   3.154   5.275  0.0552 -0.0025 -0.9195
 1940TIP3    H227236   5.660   3.092   5.294  0.2653 -0.1832  0.0596
 1941TIP3   OH227237   4.194   2.676  11.640  0.3334  0.2299  0.1034
 1941TIP3    H127238   4.150   2.602  11.683 -0.5971  0.9788  0.4488
 1941TIP3    H227239   4.123   2.733  11.612  1.0512  0.9434 -0.2646
 1942TIP3   OH227240   0.150   2.660  10.701  0.0927  0.6854 -0.1849
 1942TIP3    H127241   0.171   2.677  10.792 -2.3805 -0.2210  0.6076
 1942TIP3    H227242   0.148   2.564  10.694  0.4117  0.7500 -1.2077
 1943TIP3   OH227243   0.701   1.949  16.931 -0.2050  1.0462  0.5932
 1943TIP3    H127244   0.633   1.987  16.987  1.7512  2.7532  1.8997
 1943TIP3    H227245   0.669   1.963  16.842 -1.3909  2.1581  1.1728
 1944TIP3   OH227246   0.924   4.963  17.105 -0.2188 -0.0179  0.0771
 1944TIP3    H127247   0.901   4.876  17.136 -1.0027  0.5480  1.1070
 1944TIP3    H227248   0.993   4.948  17.040  0.9053 -1.2811  1.5266
 1945TIP3   OH227249   4.488   2.693   2.141 -0.7243  0.4662  0.3687
 1945TIP3    H127250   4.427   2.738   2.200 -0.1213  0.1861  1.2085
 1945TIP3    H227251   4.524   2.622   2.193  0.7314  0.9537  0.0508
 1946TIP3   OH227252   4.633   4.902   1.661 -0.4172  0.1378 -0.2189
 1946TIP3    H127253   4.685   4.908   1.581  2.9260 -2.6186  1.5907
 1946TIP3    H227254   4.598   4.813   1.661 -0.5096  0.1612  1.2720
 1947TIP3   OH227255   1.325   4.210  15.292  0.0089 -0.4136 -0.5100
 1947TIP3    H127256   1.375   4.276  15.244 -3.7352  0.4490 -3.4630
 1947TIP3    H227257   1.349   4.127  15.252 -0.1446 -0.1054 -1.2468
 1948TIP3   OH227258   2.026   2.572  13.560 -0.3822  0.1759  0.1043
 1948TIP3    H127259   2.064   2.655  13.588  1.3258 -0.3222 -0.7362
 1948TIP3    H227260   2.015   2.581  13.466 -1.9127  0.1226  0.2598
 1949TIP3   OH227261   0.573   1.860  12.293  0.4439  0.3748  0.0873
 1949TIP3    H127262   0.557   1.954  12.282 -1.0054  0.2289  0.8330
 1949TIP3    H227263   0.640   1.855  12.362 -1.8611  0.7938  2.4529
 1950TIP3   OH227264   0.252   2.631   0.194 -0.2292  0.0727  0.1740
 1950TIP3    H127265   0.194   2.695   0.153 -0.1413  0.0239 -0.0265
 1950TIP3    H227266   0.335   2.640   0.147 -0.8479 -1.6878 -1.3065
 1951TIP3   OH227267   2.653   0.328   0.053  0.7313 -0.0426  0.4187
 1951TIP3    H127268   2.611   0.268  -0.010 -0.0850  0.7812  0.1606
 1951TIP3    H227269   2.724   0.277   0.091  1.1275 -0.6222 -1.0518
 1952TIP3   OH227270   5.268   1.174  16.282 -0.5829  0.0770 -0.0405
 1952TIP3    H127271   5.240   1.176  16.374 -0.9777 -0.9281 -0.1406
 1952TIP3    H227272   5.307   1.261  16.268 -0.4506  0.2187  1.0969
 1953TIP3   OH227273   1.907   2.940  13.632 -0.0446 -0.2463  0.0671
 1953TIP3    H127274   1.986   2.887  13.618  0.3527  0.6660 -1.2146
 1953TIP3    H227275   1.937   3.014  13.685  0.1463  0.5308 -1.1092
 1954TIP3   OH227276   1.278   4.011   4.400 -0.2034 -0.3922 -0.2413
 1954TIP3    H127277   1.281   4.098   4.440 -0.5208 -0.4782 -0.0324
 1954TIP3    H227278   1.236   3.955   4.465 -2.8198 -0.0400 -1.5551
 1955TIP3   OH227279   2.419   4.466  10.668 -0.2463  0.1018  0.1377
 1955TIP3    H127280   2.431   4.470  10.763  0.8045  2.2773 -0.0815
 1955TIP3    H227281   2.393   4.554  10.643 -0.4641 -0.4429 -1.6202
 1956TIP3   OH227282   2.642   1.834   2.243  0.2148 -0.0756 -0.0008
 1956TIP3    H127283   2.644   1.923   2.279  0.8295  0.4334 -1.2830
 1956TIP3    H227284   2.605   1.843   2.155  1.7548 -0.8664 -0.7474
 1957TIP3   OH227285   6.776   4.949  16.164  0.1556 -0.2605  0.2314
 1957TIP3    H127286   6.698   4.999  16.139  0.3386  0.1177  0.4076
 1957TIP3    H227287   6.741   4.870  16.204 -0.1391 -0.8038 -1.0736
 1958TIP3   OH227288   1.893   3.499   6.210  0.0766 -0.5939  0.8882
 1958TIP3    H127289   1.952   3.529   6.279 -0.7112 -1.2206  1.8292
 1958TIP3    H227290   1.922   3.547   6.132 -0.1562  1.4453  2.0247
 1959TIP3   OH227291   1.466   6.706  16.265 -0.0069 -0.0939  0.5564
 1959TIP3    H127292   1.425   6.723  16.350  1.2949  0.9254  0.9775
 1959TIP3    H227293   1.560   6.707  16.282  0.2602 -0.4884 -0.7923
 1960TIP3   OH227294   0.617   5.473   0.954 -0.0028 -0.0252  0.1122
 1960TIP3    H127295   0.703   5.516   0.959 -1.0037  2.0021  0.1778
 1960TIP3    H227296   0.638   5.379   0.951  2.1726  0.3768  1.3805
 1961TIP3   OH227297   5.493   2.962   1.611 -0.5689 -0.3860 -0.1876
 1961TIP3    H127298   5.503   2.916   1.694 -1.0886 -1.4511 -0.7101
 1961TIP3    H227299   5.421   3.024   1.627 -0.4837 -0.3942  0.2319
 1962TIP3   OH227300   1.593   0.675   5.245 -0.3274  0.2237 -0.4935
 1962TIP3    H127301   1.639   0.698   5.326  0.8731  0.5666 -1.2749
 1962TIP3    H227302   1.503   0.656   5.274 -0.2461  1.6068  0.7516
 1963TIP3   OH227303   4.289   3.378   4.300 -0.3043 -0.4215  0.4098
 1963TIP3    H127304   4.322   3.326   4.373  0.4558  0.4731  0.7262
 1963TIP3    H227305   4.239   3.317   4.247  1.8373 -1.8159 -0.0564
 1964TIP3   OH227306   1.229   4.501   5.392 -0.6326 -0.4468 -0.0446
 1964TIP3    H127307   1.257   4.415   5.423 -0.0017  0.0486  0.7907
 1964TIP3    H227308   1.273   4.512   5.308 -1.7022 -1.4558 -0.7572
 1965TIP3   OH227309   1.075   6.577   4.189  0.0578 -0.3747 -0.4179
 1965TIP3    H127310   1.157   6.592   4.142  0.7459 -1.5568  0.3513
 1965TIP3    H227311   1.014   6.546   4.123  1.3960 -3.3167 -0.3711
 1966TIP3   OH227312   3.791   5.586  15.887 -0.3905  0.1980 -0.3796
 1966TIP3    H127313   3.807   5.570  15.981 -0.4112  1.0284 -0.2367
 1966TIP3    H227314   3.743   5.668  15.884  1.1829  1.1162 -1.2298
 1967TIP3   OH227315   3.932   4.635   4.156 -0.2909  0.2805 -0.0856
 1967TIP3    H127316   3.850   4.603   4.194 -0.4079  0.6071 -0.0650
 1967TIP3    H227317   3.999   4.579   4.194 -0.5903 -0.5255 -0.7284
 1968TIP3   OH227318   1.839   3.144  16.713  0.1572  0.3314  0.3859
 1968TIP3    H127319   1.783   3.155  16.790  2.4755  2.9453  1.8203
 1968TIP3    H227320   1.919   3.104  16.748  0.4702 -0.2911 -1.0241
 1969TIP3   OH227321   3.441   6.779  15.260 -0.3246 -0.6876 -0.0741
 1969TIP3    H127322   3.353   6.777  15.222 -1.1595 -0.9961  1.8591
 1969TIP3    H227323   3.490   6.839  15.204 -2.2181  0.7691 -0.1864
 1970TIP3   OH227324   5.431   0.077   0.081  0.2685  0.1244  0.0215
 1970TIP3    H127325   5.341   0.106   0.061  0.2151 -0.9241 -1.3020
 1970TIP3    H227326   5.432   0.068   0.176 -1.3035 -0.6841 -0.0114
 1971TIP3   OH227327   0.014   1.240  10.884  0.0482  0.2599  0.3381
 1971TIP3    H127328   0.057   1.323  10.906 -1.3282  1.1106 -0.1104
 1971TIP3    H227329  -0.078   1.254  10.907 -0.2327 -1.0765  0.0494
 1972TIP3   OH227330   4.276   3.719  15.569  0.1272 -0.2882 -0.2192
 1972TIP3    H127331   4.297   3.764  15.487 -1.1664  0.9475  0.1115
 1972TIP3    H227332   4.310   3.630  15.556 -0.5114 -0.2701 -2.2934
 1973TIP3   OH227333   0.963   1.267  15.709  0.0760  0.1112  0.2685
 1973TIP3    H127334   0.932   1.348  15.748 -1.2753 -0.5090  0.5110
 1973TIP3    H227335   1.051   1.288  15.677  0.6447  1.0467  2.3152
 1974TIP3   OH227336   3.882   0.056   1.662 -0.2336 -0.0383 -0.1057
 1974TIP3    H127337   3.967   0.012   1.660 -0.8198 -1.1636 -1.8523
 1974TIP3    H227338   3.903   0.149   1.663  1.0207 -0.3234  0.3183
 1975TIP3   OH227339   2.417   1.286   1.339  0.8502  0.4091 -0.9536
 1975TIP3    H127340   2.434   1.210   1.283  0.0126 -1.0489  0.7130
 1975TIP3    H227341   2.451   1.261   1.425 -1.4035  1.0398  0.1612
 1976TIP3   OH227342   1.514   0.789   1.927  0.1064 -0.1835  0.1511
 1976TIP3    H127343   1.426   0.785   1.888 -0.7708  1.2205  1.8959
 1976TIP3    H227344   1.571   0.748   1.863 -1.6763 -0.1227 -1.5066
 1977TIP3   OH227345   5.526   4.063   1.803 -0.8314 -0.4731 -0.3713
 1977TIP3    H127346   5.465   4.120   1.850 -2.1969 -2.2971  0.1486
 1977TIP3    H227347   5.489   3.975   1.813  2.0041 -1.6711  0.1040
 1978TIP3   OH227348   1.532   4.110  16.575  0.2294 -0.6660  0.9310
 1978TIP3    H127349   1.524   4.180  16.641  0.4374  0.0250  0.2396
 1978TIP3    H227350   1.510   4.030  16.622 -2.2605  0.1209  1.1822
 1979TIP3   OH227351   0.412   4.449   0.610  0.0772 -0.2431  0.4179
 1979TIP3    H127352   0.449   4.484   0.530 -2.9590 -2.7821 -2.2323
 1979TIP3    H227353   0.451   4.362   0.619  0.9877  0.3218  2.1707
 1980TIP3   OH227354   4.454   1.836  10.856 -0.7802 -0.0203 -0.3761
 1980TIP3    H127355   4.471   1.927  10.881  0.7780 -0.2090 -0.6852
 1980TIP3    H227356   4.359   1.833  10.841 -0.8716  1.5267 -0.2535
 1981TIP3   OH227357   6.653   3.122   1.812 -0.1698  0.3216 -0.3484
 1981TIP3    H127358   6.725   3.137   1.874 -0.7174 -0.9835  0.6275
 1981TIP3    H227359   6.660   3.030   1.789 -0.9392  0.4245 -1.0073
 1982TIP3   OH227360   0.037   1.486   4.198 -0.5374  0.4107 -0.3136
 1982TIP3    H127361  -0.058   1.485   4.207 -0.5103 -1.3789  0.0951
 1982TIP3    H227362   0.057   1.413   4.139  0.6381  0.0032  0.5481
 1983TIP3   OH227363   0.890   5.378   0.457 -0.3425  0.0895  0.4885
 1983TIP3    H127364   0.926   5.336   0.378 -1.6390 -1.6595  0.8026
 1983TIP3    H227365   0.805   5.412   0.430  0.3058  1.7611  0.4856
 1984TIP3   OH227366   6.179   1.102  11.558  0.2288 -0.3657  0.1485
 1984TIP3    H127367   6.109   1.167  11.550  1.1070  0.7225  1.1748
 1984TIP3    H227368   6.143   1.035  11.617 -0.2277 -0.1949  0.0644
 1985TIP3   OH227369   2.330   2.114   3.704 -0.7454  0.5216  0.7587
 1985TIP3    H127370   2.262   2.072   3.651  1.1454 -1.1771 -0.4178
 1985TIP3    H227371   2.325   2.070   3.789 -0.2003 -0.5861  0.2244
 1986TIP3   OH227372   5.627   2.480   3.876  0.3804  0.3446 -0.3146
 1986TIP3    H127373   5.697   2.458   3.815  1.5504  0.4111  0.9681
 1986TIP3    H227374   5.606   2.398   3.920  1.0765  0.7118  0.7299
 1987TIP3   OH227375   5.680   2.722   1.079  0.5102 -0.2104 -0.2332
 1987TIP3    H127376   5.667   2.781   1.004  0.0474  0.1472  0.1199
 1987TIP3    H227377   5.772   2.697   1.075  1.1357  1.8231  0.5236
 1988TIP3   OH227378   0.868   1.594  14.955  0.3749 -0.3544 -0.1170
 1988TIP3    H127379   0.918   1.520  14.988 -2.8337 -2.9025 -0.7447
 1988TIP3    H227380   0.912   1.618  14.873  1.9295 -1.0180  0.5158
 1989TIP3   OH227381   0.729   6.583   4.320  0.5497  0.2468 -0.2928
 1989TIP3    H127382   0.690   6.525   4.385  0.1125  0.9490  0.0786
 1989TIP3    H227383   0.782   6.525   4.265  0.7449 -0.3807  0.5496
 1990TIP3   OH227384   6.325   5.359  11.194 -0.1386 -0.0776 -0.4662
 1990TIP3    H127385   6.368   5.291  11.142  2.2772  2.7356 -2.2647
 1990TIP3    H227386   6.238   5.368  11.156 -0.7932 -2.6690  0.3124
 1991TIP3   OH227387   3.045   4.420  17.146 -0.3145 -0.3153 -0.2433
 1991TIP3    H127388   3.081   4.336  17.116 -1.5299 -1.6782  2.0043
 1991TIP3    H227389   2.979   4.441  17.080 -0.9845 -1.8538 -0.0957
 1992TIP3   OH227390   5.914   6.666   2.558 -0.3849  0.0547 -0.1370
 1992TIP3    H127391   5.959   6.670   2.474  0.3054  1.8208  0.3024
 1992TIP3    H227392   5.886   6.756   2.575  0.8336  0.0169  2.2573
 1993TIP3   OH227393   0.522   4.119   0.229 -0.2753 -0.4128  0.1592
 1993TIP3    H127394   0.607   4.161   0.242  0.2954 -1.7060  0.7631
 1993TIP3    H227395   0.544   4.027   0.210 -1.5538 -0.8153  0.5899
 1994TIP3   OH227396   6.575   2.663   3.614 -0.1366 -0.3386  0.4830
 1994TIP3    H127397   6.505   2.727   3.602 -2.2825 -2.8685 -1.1436
 1994TIP3    H227398   6.652   2.704   3.574 -1.3295  1.4381 -0.0644
 1995TIP3   OH227399   3.869   4.281  13.128 -0.4758  0.6366  0.0739
 1995TIP3    H127400   3.904   4.221  13.061 -1.8732  0.6899 -0.7201
 1995TIP3    H227401   3.927   4.269  13.203 -1.2004 -2.2991  0.2168
 1996TIP3   OH227402   1.260   1.924  17.182 -0.6091 -0.4544 -0.0230
 1996TIP3    H127403   1.247   1.990  17.250  2.1224 -1.3736  1.4896
 1996TIP3    H227404   1.202   1.852  17.208 -1.5317  0.2417 -0.1413
 1997TIP3   OH227405   4.003   6.682   0.651 -0.6872  0.5528  0.5050
 1997TIP3    H127406   3.922   6.696   0.701 -0.4461  1.0558  0.7687
 1997TIP3    H227407   3.998   6.745   0.579 -0.3935  0.7955  0.6942
 1998TIP3   OH227408   1.830   1.655   2.029  0.5516  0.0329  0.2087
 1998TIP3    H127409   1.745   1.681   2.067  0.2655 -1.2550  0.4789
 1998TIP3    H227410   1.807   1.589   1.964  0.9089  3.1504 -3.2506
 1999TIP3   OH227411   6.548   2.353   1.061 -0.0031 -0.3651  0.6919
 1999TIP3    H127412   6.539   2.400   1.144  1.6838  0.2885  0.5273
 1999TIP3    H227413   6.624   2.393   1.019  0.8667 -2.5721  0.1001
 2000TIP3   OH227414   6.270   4.822  12.355 -0.3742 -1.1771  0.0258
 2000TIP3    H127415   6.363   4.837  12.336 -0.2367  0.4289  1.7985
 2000TIP3    H227416   6.229   4.908  12.341 -1.1372 -1.2423  1.7937
 2001TIP3   OH227417   1.210   6.469   3.607  0.0939  0.5574  0.3585
 2001TIP3    H127418   1.167   6.516   3.534  1.2496  0.7992 -0.1729
 2001TIP3    H227419   1.252   6.538   3.658 -1.1224  0.4402  1.5598
 2002TIP3   OH227420   0.358   5.902  11.733  0.6862  0.0712  0.7152
 2002TIP3    H127421   0.368   5.972  11.798 -1.1851 -0.5576  1.7198
 2002TIP3    H227422   0.266   5.875  11.742  0.7013 -0.7361 -1.4762
 2003TIP3   OH227423   6.219   3.804  10.965 -0.0666 -0.2184  0.1013
 2003TIP3    H127424   6.273   3.728  10.983  0.4260 -0.0274 -0.5554
 2003TIP3    H227425   6.169   3.780  10.887 -1.7822 -0.8320  1.3676
 2004TIP3   OH227426   3.692   0.769  11.966 -0.6042  0.0265 -0.0485
 2004TIP3    H127427   3.743   0.839  12.006  0.8087 -0.4989 -0.8779
 2004TIP3    H227428   3.689   0.792  11.873  0.6588 -1.4418 -0.4842
 2005TIP3   OH227429   0.397   6.497  12.936 -0.4593 -0.7254  0.4669
 2005TIP3    H127430   0.330   6.520  13.000 -0.2429  0.2415  0.3483
 2005TIP3    H227431   0.351   6.496  12.852  0.0998  2.1099  0.0779
 2006TIP3   OH227432   5.660   1.729   2.310 -0.0068  0.8740 -0.1537
 2006TIP3    H127433   5.689   1.690   2.393 -0.7106  1.1538  0.2239
 2006TIP3    H227434   5.686   1.821   2.318  2.2629  0.3849 -1.3181
 2007TIP3   OH227435   3.059   2.135   5.512 -0.5125  0.0619  0.2512
 2007TIP3    H127436   3.151   2.152   5.532 -0.2948  0.0659 -0.7212
 2007TIP3    H227437   3.047   2.042   5.531  0.0916 -0.2944 -1.1067
 2008TIP3   OH227438   3.459   1.140  12.826  0.4490 -0.3576  0.2237
 2008TIP3    H127439   3.519   1.142  12.901  0.4022 -0.0493  0.2534
 2008TIP3    H227440   3.416   1.055  12.832  0.4869 -0.3560  0.5161
 2009TIP3   OH227441   4.223   2.589   2.022  0.1267 -0.0575  0.3755
 2009TIP3    H127442   4.264   2.559   2.103  2.6090 -0.1745 -0.8527
 2009TIP3    H227443   4.270   2.541   1.953  0.5248  2.6663 -1.3095
 2010TIP3   OH227444   5.942   6.718   0.999 -0.5188  0.1230  0.1817
 2010TIP3    H127445   6.036   6.711   0.980 -0.2820 -0.5218  1.5264
 2010TIP3    H227446   5.900   6.679   0.923  0.2609  1.4777 -0.9742
 2011TIP3   OH227447   5.076   0.528   0.665 -0.0366  0.0338  0.0067
 2011TIP3    H127448   4.998   0.523   0.611 -0.3359 -0.4703  0.4732
 2011TIP3    H227449   5.139   0.578   0.613 -0.5089  0.0375 -0.5629
 2012TIP3   OH227450   3.553   3.905  11.562 -0.7251 -0.0718  0.5420
 2012TIP3    H127451   3.485   3.848  11.598 -1.4816 -1.5037 -2.9018
 2012TIP3    H227452   3.518   3.933  11.478  2.6476 -0.3196 -1.0335
 2013TIP3   OH227453   3.622   4.170  11.945 -0.5461 -0.8539  0.4526
 2013TIP3    H127454   3.581   4.089  11.975  1.2415 -2.4668 -1.3242
 2013TIP3    H227455   3.625   4.226  12.023 -4.1165 -1.4704  1.1192
 2014TIP3   OH227456   2.387   1.348  14.117 -0.1578 -0.2916  0.3386
 2014TIP3    H127457   2.464   1.399  14.093 -0.6954 -1.1582 -3.4999
 2014TIP3    H227458   2.397   1.265  14.070 -3.0691 -0.7059  0.3743
 2015TIP3   OH227459   0.392   3.017   0.385 -0.2976  0.2530 -0.4840
 2015TIP3    H127460   0.424   3.054   0.467 -0.9625  1.0548 -0.5836
 2015TIP3    H227461   0.310   2.973   0.409 -0.3771  0.2952 -0.6789
 2016TIP3   OH227462   5.982   5.665   5.372 -0.5754 -0.2000 -0.4673
 2016TIP3    H127463   5.897   5.621   5.367 -1.6298  1.8573 -1.0267
 2016TIP3    H227464   6.017   5.658   5.284 -1.6318  1.7751 -1.0667
 2017TIP3   OH227465   2.245   5.715   2.134  0.3375 -0.3208 -0.0119
 2017TIP3    H127466   2.312   5.739   2.070 -1.3447  3.5599 -0.5128
 2017TIP3    H227467   2.276   5.752   2.216 -0.6330  0.6159 -0.0454
 2018TIP3   OH227468   2.472   3.957  12.196  0.4222  0.3032  0.2189
 2018TIP3    H127469   2.445   3.922  12.111 -1.5241 -1.2580  1.4391
 2018TIP3    H227470   2.469   3.882  12.255 -0.8424  1.9062  2.2495
 2019TIP3   OH227471   3.538   6.168  13.243  0.6069  0.2786  0.4751
 2019TIP3    H127472   3.526   6.212  13.160 -2.0998 -0.3344  0.4990
 2019TIP3    H227473   3.556   6.239  13.306  1.9106  0.7983 -0.4691
 2020TIP3   OH227474   5.041   4.924   1.591  0.1925  0.0307 -0.3964
 2020TIP3    H127475   5.119   4.911   1.645  1.6694  0.2535 -2.4356
 2020TIP3    H227476   5.019   5.017   1.603 -0.3927 -0.2839  1.0035
 2021TIP3   OH227477   0.827   0.014   2.898  0.1053 -0.4397  0.4448
 2021TIP3    H127478   0.790   0.056   2.975 -0.9289 -0.3115 -0.1047
 2021TIP3    H227479   0.822   0.081   2.830 -0.2847 -1.0041 -0.0858
 2022TIP3   OH227480   4.537   5.501  12.578  0.0990  0.4166  0.3698
 2022TIP3    H127481   4.582   5.470  12.656 -0.1998  3.0626  1.6525
 2022TIP3    H227482   4.444   5.483  12.595  0.0297  1.0306  0.6383
 2023TIP3   OH227483   5.342   2.785  12.459 -0.0886  0.4813  0.2885
 2023TIP3    H127484   5.310   2.811  12.546 -1.4377  1.0907 -0.3739
 2023TIP3    H227485   5.297   2.845  12.399  0.2367 -0.4605 -0.8927
 2024TIP3   OH227486   3.903   6.729  15.001  0.3605  0.0955  0.3123
 2024TIP3    H127487   3.961   6.690  14.935  1.6441  1.9510  0.3164
 2024TIP3    H227488   3.921   6.822  14.997 -1.2365  0.4905  1.7031
 2025TIP3   OH227489   4.016   3.050  12.283  0.0078 -0.0238  0.1265
 2025TIP3    H127490   3.922   3.068  12.281  0.0528  0.1486 -0.7817
 2025TIP3    H227491   4.046   3.071  12.195  1.2286  1.6004  0.8996
 2026TIP3   OH227492   2.977   6.138  13.591  0.3878 -0.3728 -0.2516
 2026TIP3    H127493   3.064   6.099  13.580  0.0385 -0.9098 -1.1917
 2026TIP3    H227494   2.951   6.113  13.680  0.7309 -1.1691 -0.3659
 2027TIP3   OH227495   0.937   2.840   2.215  0.5762 -0.0707  0.1196
 2027TIP3    H127496   0.914   2.899   2.143  0.2325 -0.0426  0.2538
 2027TIP3    H227497   0.987   2.770   2.173  2.4560  1.1864  0.1995
 2028TIP3   OH227498   1.284   0.037   6.340 -0.1336 -0.2995  0.0285
 2028TIP3    H127499   1.190   0.051   6.331 -0.2359 -0.7844  0.3019
 2028TIP3    H227500   1.320   0.125   6.351 -0.4940 -0.0725 -0.5736
 2029TIP3   OH227501   6.490   5.757  14.529 -0.1998  0.1230 -0.9368
 2029TIP3    H127502   6.584   5.762  14.544 -0.4075 -0.0290  0.4602
 2029TIP3    H227503   6.481   5.759  14.434  1.1695  0.8466 -1.0621
 2030TIP3   OH227504   4.258   2.781   3.782 -0.2608  0.1915 -0.6038
 2030TIP3    H127505   4.322   2.805   3.715  0.8567 -1.2686 -0.0876
 2030TIP3    H227506   4.181   2.751   3.732 -0.7038  2.3121 -1.2204
 2031TIP3   OH227507   4.969   4.124  12.575 -0.0767  0.3281  0.9975
 2031TIP3    H127508   4.968   4.069  12.653  0.9349 -0.0540  0.7567
 2031TIP3    H227509   4.979   4.062  12.503  0.8703  0.8043  0.7061
 2032TIP3   OH227510   0.113   6.291  12.800 -0.0311 -0.3580  0.3193
 2032TIP3    H127511   0.179   6.357  12.778 -0.1495 -0.6882 -1.0631
 2032TIP3    H227512   0.117   6.284  12.896 -0.3683  2.0051  0.5184
 2033TIP3   OH227513   0.181   0.520   3.278  0.0199 -0.2879 -0.2331
 2033TIP3    H127514   0.090   0.519   3.310 -0.2740  0.5509 -1.0322
 2033TIP3    H227515   0.203   0.428   3.268 -1.5847 -0.4665 -2.3685
 2034TIP3   OH227516   3.591   6.577   4.122  0.0945  0.0634  0.1060
 2034TIP3    H127517   3.630   6.654   4.163  0.3853 -0.0049 -0.0392
 2034TIP3    H227518   3.618   6.503   4.178 -0.2273  0.0729  0.2752
 2035TIP3   OH227519   1.563   2.311  13.951  0.4863  0.4018 -0.0130
 2035TIP3    H127520   1.604   2.395  13.929  0.7603  0.3577  0.3145
 2035TIP3    H227521   1.557   2.312  14.047  0.2486  0.1596 -0.0261
 2036TIP3   OH227522   5.574   5.457   0.595 -0.4423 -0.4587 -0.9095
 2036TIP3    H127523   5.662   5.431   0.622 -0.4510 -0.4320 -0.8556
 2036TIP3    H227524   5.587   5.517   0.522 -0.3013  2.1762  1.2021
 2037TIP3   OH227525   1.756   1.542   5.808  0.0634 -0.2894  0.0625
 2037TIP3    H127526   1.671   1.499   5.812 -0.0669 -0.3968 -2.6852
 2037TIP3    H227527   1.785   1.547   5.899 -2.8759 -0.2174  1.0551
 2038TIP3   OH227528   1.458   6.205   2.786  0.6177 -0.2793 -0.0573
 2038TIP3    H127529   1.407   6.208   2.705 -0.5029  1.0259  0.6774
 2038TIP3    H227530   1.498   6.118   2.786 -0.1199 -0.6299 -1.5633
 2039TIP3   OH227531   4.419   1.837  16.051 -0.0515 -0.2154 -0.1846
 2039TIP3    H127532   4.488   1.859  15.989 -0.6665 -0.4847 -0.9795
 2039TIP3    H227533   4.351   1.902  16.035 -0.0525 -0.0446  0.4865
 2040TIP3   OH227534   3.873   5.854  10.995  0.1926  0.6885 -0.0690
 2040TIP3    H127535   3.966   5.833  10.986  0.4004  2.2563 -2.0304
 2040TIP3    H227536   3.827   5.773  10.971  1.0283  0.8666 -2.4767
 2041TIP3   OH227537   4.177   5.308   2.394 -0.4672  0.4046  0.3784
 2041TIP3    H127538   4.094   5.294   2.439 -1.5440  0.0845 -1.6726
 2041TIP3    H227539   4.186   5.404   2.391 -2.3517  0.5471 -2.1811
 2042TIP3   OH227540   2.810   1.680  11.556 -0.5661 -0.2500 -0.0804
 2042TIP3    H127541   2.889   1.657  11.605  0.0518 -0.1456 -1.0125
 2042TIP3    H227542   2.761   1.598  11.550  0.0926 -0.6169 -0.6081
 2043TIP3   OH227543   3.264   1.023   2.182 -0.2225 -0.8550 -0.2064
 2043TIP3    H127544   3.256   1.048   2.274 -0.9620 -0.4059 -0.3919
 2043TIP3    H227545   3.354   0.990   2.174  0.1053 -0.1382  0.4913
 2044TIP3   OH227546   5.491   2.340  15.611 -0.1821  0.5479  0.8234
 2044TIP3    H127547   5.566   2.355  15.668 -1.3350  1.8876  2.0301
 2044TIP3    H227548   5.459   2.253  15.635  1.6404 -0.5396 -0.5145
 2045TIP3   OH227549   4.798   4.593   5.180 -0.0361 -0.5269  0.2208
 2045TIP3    H127550   4.803   4.650   5.103 -2.8762  0.0734  0.4236
 2045TIP3    H227551   4.837   4.511   5.152  2.2165  0.8188 -0.7372
 2046TIP3   OH227552   3.085   3.973  16.871  0.6027 -0.1258 -0.2842
 2046TIP3    H127553   3.089   4.041  16.939  0.5391 -0.8939  0.4982
 2046TIP3    H227554   3.097   4.021  16.789  0.7590  0.8055  0.2738
 2047TIP3   OH227555   4.644   2.782   0.756  0.1641 -0.2416 -0.2391
 2047TIP3    H127556   4.707   2.741   0.697 -0.4291 -0.6232 -0.6133
 2047TIP3    H227557   4.630   2.870   0.720 -1.8644 -1.2365 -1.9429
 2048TIP3   OH227558   2.209   1.100   4.802 -0.9085 -0.6280 -0.5884
 2048TIP3    H127559   2.115   1.119   4.797 -0.7965 -0.2373 -1.2083
 2048TIP3    H227560   2.228   1.052   4.722 -0.7849 -1.6359  0.0335
 2049TIP3   OH227561   5.187   6.714  15.312 -0.3042 -0.7593 -0.9203
 2049TIP3    H127562   5.118   6.654  15.339 -1.2100  0.8856  0.5354
 2049TIP3    H227563   5.189   6.708  15.217 -2.5598 -0.7326 -0.9827
 2050TIP3   OH227564   0.527   3.796   2.444  0.9141 -0.0722  0.1696
 2050TIP3    H127565   0.453   3.741   2.418  1.7724 -1.3531  0.3881
 2050TIP3    H227566   0.546   3.849   2.367  0.8696 -0.9688 -0.4664
 2051TIP3   OH227567   6.660   4.689  15.294  0.1614  0.3437 -0.1489
 2051TIP3    H127568   6.641   4.680  15.201  0.6861  0.9802 -0.3277
 2051TIP3    H227569   6.577   4.672  15.338 -0.3494  1.1763 -0.7928
 2052TIP3   OH227570   1.196   4.749   2.171 -0.1685 -0.3025  0.0992
 2052TIP3    H127571   1.150   4.686   2.116 -0.7257  1.7932 -1.9407
 2052TIP3    H227572   1.221   4.819   2.111  2.3279  0.4240  1.8938
 2053TIP3   OH227573   4.044   2.056   6.441 -0.4917  0.9059 -0.3888
 2053TIP3    H127574   4.050   2.027   6.532  0.0507 -0.3893 -0.8181
 2053TIP3    H227575   3.955   2.032   6.414  0.1612 -1.0157 -0.9338
 2054TIP3   OH227576   3.937   4.436  12.151 -0.2100  0.1445  0.6045
 2054TIP3    H127577   4.006   4.463  12.212  0.3245 -1.3582  0.7065
 2054TIP3    H227578   3.932   4.507  12.087  1.1718  0.4559  0.8166
 2055TIP3   OH227579   4.438   3.235   2.202 -0.4917  0.0609 -0.0692
 2055TIP3    H127580   4.457   3.189   2.121 -0.5083  0.2470 -0.1806
 2055TIP3    H227581   4.351   3.205   2.227  0.4733 -1.8122  1.1556
 2056TIP3   OH227582   5.300   3.769   3.197 -0.1265 -0.4864  0.5510
 2056TIP3    H127583   5.318   3.741   3.107 -0.9286 -1.0744  0.5577
 2056TIP3    H227584   5.207   3.794   3.196  0.2407  0.9056  0.8729
 2057TIP3   OH227585   4.545   2.904   1.463 -0.3168  0.1830  0.0196
 2057TIP3    H127586   4.512   2.993   1.475  0.1723  0.5903 -1.5578
 2057TIP3    H227587   4.516   2.879   1.375 -0.1465 -1.0793  0.3100
 2058TIP3   OH227588   3.790   5.189  12.156  0.2890  0.6555  0.0768
 2058TIP3    H127589   3.734   5.126  12.112  0.7773  0.5400 -0.3845
 2058TIP3    H227590   3.809   5.255  12.089  2.1223 -0.2170 -0.2713
 2059TIP3   OH227591   6.597   0.791   5.986  0.8719 -0.3496 -0.1767
 2059TIP3    H127592   6.656   0.762   6.055  0.7414  0.4133  0.2602
 2059TIP3    H227593   6.633   0.875   5.957 -1.3654  1.4358  1.8760
 2060TIP3   OH227594   3.408   0.115  11.653  0.7313 -0.4778  0.0332
 2060TIP3    H127595   3.426   0.042  11.593  0.3595  0.8022 -1.6616
 2060TIP3    H227596   3.494   0.151  11.672  0.6787  0.5883 -1.6416
 2061TIP3   OH227597   1.485   5.102   1.404 -0.2329 -0.4314 -0.1655
 2061TIP3    H127598   1.410   5.160   1.406  0.9161  1.2001 -2.2024
 2061TIP3    H227599   1.551   5.145   1.458 -0.1327 -0.9243  0.1064
 2062TIP3   OH227600   0.951   5.979  11.258  0.2158  0.2407  0.2966
 2062TIP3    H127601   0.945   6.002  11.165 -0.5495  1.7888  0.7063
 2062TIP3    H227602   0.984   6.058  11.300 -0.3833 -0.1175  1.4661
 2063TIP3   OH227603   5.536   0.695   3.322 -0.2534 -0.6619  0.3874
 2063TIP3    H127604   5.452   0.708   3.278 -0.0118 -0.7557 -0.1124
 2063TIP3    H227605   5.591   0.766   3.290 -0.5430  0.1710  1.7387
 2064TIP3   OH227606   6.378   5.506   3.684 -0.4423  0.4670 -0.3116
 2064TIP3    H127607   6.447   5.461   3.733 -0.2097 -0.1180 -1.1750
 2064TIP3    H227608   6.299   5.456   3.702 -0.5553  0.8515  0.2825
 2065TIP3   OH227609   1.736   6.334   0.862  0.1194 -0.1086  0.5828
 2065TIP3    H127610   1.754   6.326   0.769  0.8552  1.9127  0.5089
 2065TIP3    H227611   1.644   6.309   0.871  0.0259 -0.2606 -0.6873
 2066TIP3   OH227612   3.387   5.609  16.854  0.1233  0.0172  0.0338
 2066TIP3    H127613   3.296   5.600  16.828  0.0327  1.0885 -0.0592
 2066TIP3    H227614   3.421   5.677  16.796  0.4466  1.0439  1.4119
 2067TIP3   OH227615   0.815   1.483  15.890  0.2620 -0.6659 -0.0564
 2067TIP3    H127616   0.850   1.562  15.849  0.7985 -0.5251  0.6683
 2067TIP3    H227617   0.867   1.472  15.970 -1.6146 -0.2180  1.2495
 2068TIP3   OH227618   5.933   5.812  15.608 -0.4082 -0.3050 -0.2678
 2068TIP3    H127619   5.845   5.848  15.614 -0.2778  0.6740 -3.1047
 2068TIP3    H227620   5.944   5.793  15.514  2.7472  0.5867 -0.1266
 2069TIP3   OH227621   4.085   1.292   0.305 -0.8463  0.2027  0.1576
 2069TIP3    H127622   4.132   1.357   0.253  0.1997 -0.2783  0.4776
 2069TIP3    H227623   4.012   1.340   0.344 -0.7349  0.9195 -0.5174
 2070TIP3   OH227624   6.094   2.015   3.688 -0.2421 -0.0908 -0.0349
 2070TIP3    H127625   6.124   2.105   3.693  1.1883 -0.5709  0.1685
 2070TIP3    H227626   6.169   1.962   3.716 -1.2295 -1.3186  0.3729
 2071TIP3   OH227627   1.003   0.013  12.982 -0.4733 -0.7505 -0.0421
 2071TIP3    H127628   0.955  -0.067  13.003  0.6533 -1.9782 -1.9748
 2071TIP3    H227629   0.968   0.041  12.897 -0.1162  0.2085  0.1191
 2072TIP3   OH227630   5.263   3.731   2.380 -0.0102  0.2297 -0.1892
 2072TIP3    H127631   5.203   3.656   2.384  0.1832  0.0410 -0.7214
 2072TIP3    H227632   5.334   3.708   2.439 -0.4898  0.4807  0.4946
 2073TIP3   OH227633   0.579   2.416   3.214  0.0631 -0.2791 -0.1448
 2073TIP3    H127634   0.632   2.463   3.277  0.5034 -0.6096 -0.2673
 2073TIP3    H227635   0.553   2.481   3.150 -0.7856  0.1671  0.6259
 2074TIP3   OH227636   3.770   2.846  16.686  0.1003 -0.1610  0.2489
 2074TIP3    H127637   3.738   2.936  16.674 -2.6215 -1.1733 -0.4430
 2074TIP3    H227638   3.791   2.840  16.779  2.2370  1.7555 -0.0596
 2075TIP3   OH227639   5.122   4.617   0.101  0.0882  0.3051 -0.1514
 2075TIP3    H127640   5.203   4.668   0.091 -0.0082  0.4811 -0.0457
 2075TIP3    H227641   5.151   4.527   0.112  0.2647  0.3420 -0.3077
 2076TIP3   OH227642   2.572   3.959  16.978 -0.1108 -0.2912  0.0904
 2076TIP3    H127643   2.599   3.950  16.887  0.3286  1.7612 -0.0160
 2076TIP3    H227644   2.504   4.027  16.976  0.7414  0.6292  1.4415
 2077TIP3   OH227645   4.407   6.186   5.061  0.3026 -1.0536  0.5383
 2077TIP3    H127646   4.402   6.196   5.156  2.2253  0.9647  0.4704
 2077TIP3    H227647   4.501   6.189   5.042 -0.0373 -1.8558 -1.4042
 2078TIP3   OH227648   2.852   6.245   2.256  0.3723 -0.4720 -0.3443
 2078TIP3    H127649   2.759   6.220   2.264 -0.7945  3.4662 -0.4731
 2078TIP3    H227650   2.885   6.193   2.183 -2.0842 -1.1067 -1.0555
 2079TIP3   OH227651   0.182   2.413  14.250  0.0067  0.1082  0.9368
 2079TIP3    H127652   0.119   2.394  14.320 -0.2514 -0.1278  0.6450
 2079TIP3    H227653   0.243   2.340  14.252 -2.0262 -1.7608 -1.3662
 2080TIP3   OH227654   4.919   4.168  16.785 -0.3638  0.4235 -0.0622
 2080TIP3    H127655   4.859   4.226  16.739 -1.3818  0.6723  1.5435
 2080TIP3    H227656   4.865   4.092  16.809  0.0910  0.4143  0.9401
 2081TIP3   OH227657   0.397   5.140  15.092 -0.2637  0.1753 -0.2209
 2081TIP3    H127658   0.407   5.138  14.997  1.9331  0.1408 -0.0079
 2081TIP3    H227659   0.325   5.079  15.109 -1.3225  0.8961 -1.9134
 2082TIP3   OH227660   5.110   3.706  12.641 -0.1014  0.3979 -0.0079
 2082TIP3    H127661   5.109   3.630  12.698  1.2434  0.9632  0.7892
 2082TIP3    H227662   5.073   3.675  12.558 -1.4472 -0.5847  0.9529
 2083TIP3   OH227663   6.726   4.314  11.780 -0.0052 -0.1212  0.7390
 2083TIP3    H127664   6.801   4.281  11.829  0.7881  0.4345 -0.0759
 2083TIP3    H227665   6.747   4.294  11.688  0.2024  2.0451  0.2874
 2084TIP3   OH227666   1.258   1.309   4.213 -0.3916  0.3990  0.2079
 2084TIP3    H127667   1.166   1.311   4.239 -0.7182  3.0569 -0.9896
 2084TIP3    H227668   1.261   1.359   4.131  2.3674  1.8258  1.1086
 2085TIP3   OH227669   4.334   3.074   3.338  0.4132 -0.0018  0.4347
 2085TIP3    H127670   4.309   3.115   3.421  1.3581 -1.0564  1.2711
 2085TIP3    H227671   4.329   2.980   3.356 -0.0699 -0.2427 -0.9294
 2086TIP3   OH227672   3.479   2.180   5.870 -0.1006 -0.2955 -0.0603
 2086TIP3    H127673   3.386   2.171   5.852 -0.3883 -0.8376  1.6824
 2086TIP3    H227674   3.508   2.092   5.895  0.7590 -0.0046 -0.0028
 2087TIP3   OH227675   2.269   2.699  16.527 -0.5187  0.7012 -0.2386
 2087TIP3    H127676   2.312   2.783  16.542 -0.2493  0.2651  1.5767
 2087TIP3    H227677   2.208   2.715  16.455 -3.5302  3.5567  2.7882
 2088TIP3   OH227678   4.293   3.333   1.797 -0.3018  0.1252 -0.4097
 2088TIP3    H127679   4.372   3.375   1.832 -1.8099  0.6146  2.5691
 2088TIP3    H227680   4.226   3.401   1.803 -1.0139 -0.3198 -2.8348
 2089TIP3   OH227681   4.236   5.164   5.359 -0.3132 -0.4225  0.0052
 2089TIP3    H127682   4.213   5.135   5.447 -0.2245  0.5753  0.3557
 2089TIP3    H227683   4.244   5.259   5.365 -1.4576 -0.2183 -1.3452
 2090TIP3   OH227684   3.368   2.926   4.413  0.2761  0.2342 -0.4493
 2090TIP3    H127685   3.292   2.966   4.455 -0.2314 -1.4557  0.2533
 2090TIP3    H227686   3.432   2.916   4.484  0.3107 -0.4394 -0.5785
 2091TIP3   OH227687   1.484   0.321  11.791 -0.6441 -0.3435  0.1025
 2091TIP3    H127688   1.465   0.412  11.811  0.9099  0.1676 -0.6568
 2091TIP3    H227689   1.405   0.288  11.749 -2.7010 -0.4885  3.8776
 2092TIP3   OH227690   2.774   0.481   4.015  0.0980  0.0930  0.0457
 2092TIP3    H127691   2.746   0.399   4.058  1.3501  0.5512  1.7617
 2092TIP3    H227692   2.789   0.542   4.087 -0.9987  1.9260 -1.2298
 2093TIP3   OH227693   5.176   4.745   3.393 -0.1658  0.0363 -0.3880
 2093TIP3    H127694   5.107   4.756   3.459 -0.0565  0.1023 -0.2844
 2093TIP3    H227695   5.131   4.756   3.309 -0.0481  1.3700 -0.2815
 2094TIP3   OH227696   0.078   6.565   2.674  0.6659  0.5334  0.8386
 2094TIP3    H127697   0.165   6.590   2.706  1.5035 -1.8121  0.4996
 2094TIP3    H227698   0.086   6.569   2.578  0.2052  0.8999  0.8113
 2095TIP3   OH227699   0.129   4.354   5.724 -0.5800  0.3721 -0.0331
 2095TIP3    H127700   0.088   4.416   5.663  1.5323  1.5370 -0.3425
 2095TIP3    H227701   0.148   4.277   5.670 -0.0149  0.8458 -0.5246
 2096TIP3   OH227702   3.506   0.693  13.446 -0.7221  0.7952 -0.0901
 2096TIP3    H127703   3.575   0.740  13.400 -0.6942  1.5151  0.6662
 2096TIP3    H227704   3.552   0.646  13.516 -0.9224  0.7943  0.0410
 2097TIP3   OH227705   3.241   5.626  14.885 -0.0727  0.2777 -0.6259
 2097TIP3    H127706   3.201   5.696  14.834  1.2072  0.0674 -1.9596
 2097TIP3    H227707   3.272   5.563  14.819  0.4233 -0.6401  0.4655
 2098TIP3   OH227708   4.741   2.304  13.249  0.2621 -0.0820 -0.4126
 2098TIP3    H127709   4.676   2.374  13.239  0.1568 -0.3728 -1.8142
 2098TIP3    H227710   4.767   2.310  13.341 -1.9871 -0.1734  0.2738
 2099TIP3   OH227711   6.578   2.913  11.819 -1.0579  0.1911  0.1586
 2099TIP3    H127712   6.547   2.844  11.877 -1.4276 -0.0571 -0.3333
 2099TIP3    H227713   6.505   2.931  11.761 -0.3050 -0.3706 -0.9852
 2100TIP3   OH227714   4.912   3.374   3.366  0.3385 -0.5141  0.0145
 2100TIP3    H127715   4.866   3.327   3.297 -0.1146  1.4434 -1.0630
 2100TIP3    H227716   4.945   3.453   3.323  2.7388 -0.7762  1.3121
 2101TIP3   OH227717   0.662   4.825  12.023 -0.1999  0.3273 -0.2017
 2101TIP3    H127718   0.609   4.746  12.011 -0.0643  0.5525 -2.4294
 2101TIP3    H227719   0.722   4.825  11.948  1.6101  1.1464  1.2040
 2102TIP3   OH227720   0.605   1.481   2.999  0.1956  0.2142  0.6137
 2102TIP3    H127721   0.620   1.567   3.039  1.5674  0.7083 -0.8960
 2102TIP3    H227722   0.519   1.454   3.031 -0.4560  2.3608  0.7491
 2103TIP3   OH227723   2.324   6.659  15.363  0.5581  0.4040 -0.4653
 2103TIP3    H127724   2.378   6.629  15.436 -2.0967 -1.8905  0.6351
 2103TIP3    H227725   2.323   6.585  15.302 -1.5963  0.2727 -0.2987
 2104TIP3   OH227726   5.585   2.672   5.784  0.2258  0.0413  0.1545
 2104TIP3    H127727   5.680   2.679   5.795  0.4673  0.2146 -1.8765
 2104TIP3    H227728   5.549   2.693   5.870  1.9792  1.3623  0.5918
 2105TIP3   OH227729   6.339   3.609  11.685 -0.2376 -0.2916  0.3262
 2105TIP3    H127730   6.406   3.674  11.703 -0.6535  1.1911 -3.0075
 2105TIP3    H227731   6.270   3.657  11.639 -1.4363 -2.6801 -0.4900
 2106TIP3   OH227732   2.938   6.672  10.805 -0.2294  0.6819 -0.1352
 2106TIP3    H127733   2.975   6.723  10.877  1.8452  1.4708 -1.7203
 2106TIP3    H227734   2.890   6.737  10.753  2.1570  1.0488 -1.9858
 2107TIP3   OH227735   5.770   1.159   6.438  0.2578 -0.4208 -0.2224
 2107TIP3    H127736   5.764   1.251   6.463 -0.1818 -0.6399  0.4924
 2107TIP3    H227737   5.855   1.130   6.472  0.9625  0.0492 -1.5606
 2108TIP3   OH227738   6.321   3.656  12.474  0.0944 -0.3805 -0.9635
 2108TIP3    H127739   6.303   3.719  12.404 -0.0664 -0.4542 -0.9876
 2108TIP3    H227740   6.410   3.624  12.455  1.1318  1.6379  0.4269
 2109TIP3   OH227741   3.567   1.378  17.013  0.0152  0.4054  0.1652
 2109TIP3    H127742   3.597   1.460  16.976  0.6893  0.4855  0.8820
 2109TIP3    H227743   3.535   1.327  16.938  2.5121  0.0487 -0.6876
 2110TIP3   OH227744   2.261   2.840  11.778  0.5353  0.2763  0.6542
 2110TIP3    H127745   2.279   2.933  11.769 -0.7353  0.5802  1.2047
 2110TIP3    H227746   2.263   2.824  11.873  0.6358 -0.2321  0.5712
 2111TIP3   OH227747   2.277   3.890   4.935  0.7428  0.0161 -0.1961
 2111TIP3    H127748   2.280   3.931   5.022 -1.5846  0.7718 -0.4426
 2111TIP3    H227749   2.279   3.796   4.953  0.4835  0.1678  0.6847
 2112TIP3   OH227750   2.382   6.120  11.931 -0.2307  0.0688 -0.4248
 2112TIP3    H127751   2.318   6.049  11.926 -0.1368 -0.1322  1.0538
 2112TIP3    H227752   2.451   6.095  11.871 -1.5056  0.2664 -2.0271
 2113TIP3   OH227753   0.779   1.926   1.555  0.3686 -0.3573  0.0093
 2113TIP3    H127754   0.839   1.919   1.630  1.2743  0.9778 -0.5689
 2113TIP3    H227755   0.815   1.997   1.502 -2.2496  1.0836  0.1083
 2114TIP3   OH227756   6.158   2.907   1.144  0.0955  0.4623  0.2602
 2114TIP3    H127757   6.097   2.981   1.139  0.0115  0.3644 -0.2551
 2114TIP3    H227758   6.111   2.840   1.193  0.2458  0.8239  0.8969
 2115TIP3   OH227759   1.034   4.551  15.589  0.3089 -0.5873  0.3482
 2115TIP3    H127760   1.007   4.477  15.643 -0.3745 -0.2580  0.4536
 2115TIP3    H227761   1.124   4.570  15.618  0.7852 -1.8899 -0.2424
 2116TIP3   OH227762   5.480   3.520   1.526 -0.7210 -0.3229 -0.0590
 2116TIP3    H127763   5.513   3.431   1.533 -2.9605 -1.3778 -1.9883
 2116TIP3    H227764   5.431   3.521   1.443  0.0583  2.9557 -0.5642
 2117TIP3   OH227765   4.355   0.151  14.634  0.3656  0.5444  0.1069
 2117TIP3    H127766   4.283   0.113  14.686  0.3787  0.9735  0.4402
 2117TIP3    H227767   4.431   0.144  14.691  0.4919  0.5375 -0.0633
 2118TIP3   OH227768   5.280   6.704   1.859  0.4964  0.3736 -0.1867
 2118TIP3    H127769   5.208   6.642   1.872  1.1126 -0.7054 -1.7261
 2118TIP3    H227770   5.358   6.649   1.858  1.1549  1.3086 -0.5886
 2119TIP3   OH227771   0.285   4.430  11.789 -0.1524  0.2318  0.4961
 2119TIP3    H127772   0.329   4.361  11.739  0.7567  1.4372 -0.4023
 2119TIP3    H227773   0.279   4.395  11.878 -0.1355 -1.1959 -0.0504
 2120TIP3   OH227774   5.587   2.000  11.372  0.5670  0.2030 -0.3471
 2120TIP3    H127775   5.501   2.015  11.413  0.4186 -2.2945  0.2844
 2120TIP3    H227776   5.578   2.038  11.285 -1.2740 -0.2318 -0.3732
 2121TIP3   OH227777   5.462   3.875  11.294 -0.1474  0.1644 -0.5097
 2121TIP3    H127778   5.456   3.879  11.199 -0.3427  0.4323 -0.4850
 2121TIP3    H227779   5.376   3.900  11.325 -0.7692 -2.0783 -0.2938
 2122TIP3   OH227780   6.229   6.014  10.836  0.0199 -0.3678  0.4345
 2122TIP3    H127781   6.152   5.961  10.813  0.5932 -1.3097  0.6711
 2122TIP3    H227782   6.290   6.000  10.764  0.1444  0.0429  0.4583
 2123TIP3   OH227783   1.882   3.627   2.394 -0.3280 -0.3077  0.0033
 2123TIP3    H127784   1.805   3.591   2.349 -1.4676  0.1852  1.5260
 2123TIP3    H227785   1.949   3.560   2.384 -0.8818 -0.6578 -1.5232
 2124TIP3   OH227786   4.205   5.936  11.251  0.4639  0.5259  0.3539
 2124TIP3    H127787   4.201   5.911  11.159 -0.5113 -0.0162  0.5386
 2124TIP3    H227788   4.156   6.018  11.256  0.5354  0.5672  0.3888
 2125TIP3   OH227789   6.692   5.953  14.699 -0.5220 -0.1491  0.3303
 2125TIP3    H127790   6.750   6.021  14.732  0.1422 -0.9973  0.9241
 2125TIP3    H227791   6.627   6.001  14.647  0.3794  0.8530  0.1070
 2126TIP3   OH227792   5.427   0.392  14.136 -0.3242  0.3973 -0.2199
 2126TIP3    H127793   5.386   0.343  14.065  0.5168  0.2718 -0.6310
 2126TIP3    H227794   5.357   0.446  14.172 -1.0929 -0.5903 -0.2186
 2127TIP3   OH227795   2.473   6.029  15.568 -0.1094 -0.2004 -0.4011
 2127TIP3    H127796   2.411   6.101  15.556 -2.5657 -2.4494 -2.0525
 2127TIP3    H227797   2.524   6.027  15.487  0.1399 -0.1056 -0.2439
 2128TIP3   OH227798   2.018   6.490  15.255 -0.1492  0.3995  0.4322
 2128TIP3    H127799   2.031   6.581  15.231 -3.2681  1.1201  1.2972
 2128TIP3    H227800   1.923   6.480  15.261  0.2099 -2.4153  2.2307
 2129TIP3   OH227801   2.265   3.452   1.842 -0.0045  0.1725  0.0267
 2129TIP3    H127802   2.307   3.528   1.882  0.3584 -0.3651  0.6824
 2129TIP3    H227803   2.173   3.477   1.833  0.0019  0.4715  0.7699
 2130TIP3   OH227804   3.443   0.458  11.980 -0.3228 -0.6123 -0.0861
 2130TIP3    H127805   3.534   0.427  11.977 -0.2447 -0.8622  3.2971
 2130TIP3    H227806   3.398   0.394  12.034 -1.8769  1.0793  0.6557
 2131TIP3   OH227807   4.453   1.317   0.549 -0.8233  0.0584 -0.2120
 2131TIP3    H127808   4.463   1.244   0.488 -3.0627  0.0842 -0.6405
 2131TIP3    H227809   4.541   1.354   0.556 -0.3718 -0.4182 -2.8390
 2132TIP3   OH227810   2.919   2.585   6.431  0.1841  0.1036 -0.7057
 2132TIP3    H127811   2.997   2.553   6.475 -0.1584  0.2585  0.0285
 2132TIP3    H227812   2.853   2.590   6.500 -0.9089 -1.4594 -1.5948
 2133TIP3   OH227813   2.719   0.412  12.983 -0.2163 -0.2883  0.3412
 2133TIP3    H127814   2.795   0.355  12.998 -0.3933 -0.8333 -0.8034
 2133TIP3    H227815   2.752   0.483  12.928  0.4599  1.7812  3.2807
 2134TIP3   OH227816   5.243   0.764   5.668 -0.1373 -0.0644 -0.0310
 2134TIP3    H127817   5.271   0.677   5.693 -1.3236 -0.0450  1.4563
 2134TIP3    H227818   5.299   0.788   5.594  1.8755 -1.0702  1.1374
 2135TIP3   OH227819   2.940   2.448   6.138  0.2084  0.0733  0.2978
 2135TIP3    H127820   2.958   2.358   6.111 -1.4711 -0.0116 -0.5737
 2135TIP3    H227821   3.019   2.497   6.113  0.2616 -0.7539 -1.1791
 2136TIP3   OH227822   2.347   5.951  11.261 -0.0714 -0.5240 -0.0351
 2136TIP3    H127823   2.417   5.898  11.223  0.8261  1.0547 -0.6481
 2136TIP3    H227824   2.274   5.942  11.200  0.2333 -0.6904 -0.3736
 2137TIP3   OH227825   0.381   0.441   2.485  0.0389 -0.0609 -0.3992
 2137TIP3    H127826   0.325   0.511   2.518 -1.1759  0.0777 -2.6702
 2137TIP3    H227827   0.323   0.366   2.474  0.4812 -0.2174 -1.8059
 2138TIP3   OH227828   0.665   5.349  14.873  0.3506 -0.4432 -0.5924
 2138TIP3    H127829   0.752   5.388  14.883  0.3579 -0.3047 -1.1889
 2138TIP3    H227830   0.620   5.370  14.955  0.6408  0.0832 -0.5667
 2139TIP3   OH227831   6.503   2.540   4.526  0.0686  0.7162  0.3268
 2139TIP3    H127832   6.531   2.486   4.600  0.5022  2.0031  1.1210
 2139TIP3    H227833   6.582   2.549   4.472 -0.1064  0.2292 -0.0114
 2140TIP3   OH227834   0.074   1.285   6.419  0.0622 -0.0948  0.0751
 2140TIP3    H127835   0.145   1.349   6.421 -0.3115  0.3069  2.6881
 2140TIP3    H227836   0.031   1.295   6.504 -1.0351 -2.6562 -0.1349
 2141TIP3   OH227837   1.936   0.262  12.435  0.2196 -0.1764 -0.3097
 2141TIP3    H127838   1.973   0.350  12.425 -1.0947  0.6587  1.7599
 2141TIP3    H227839   1.968   0.232  12.520 -1.0434 -0.8347 -0.0459
 2142TIP3   OH227840   0.759   0.919  16.804 -0.3614 -0.3341  0.3952
 2142TIP3    H127841   0.852   0.900  16.815 -0.3282 -0.5180 -0.1661
 2142TIP3    H227842   0.716   0.833  16.810 -0.3792 -0.3906 -0.4620
 2143TIP3   OH227843   6.493   6.159  14.665  0.4170  0.5256 -0.4920
 2143TIP3    H127844   6.525   6.186  14.751  1.2563 -0.4664 -0.4821
 2143TIP3    H227845   6.398   6.164  14.672  0.4004 -1.4553  1.1470
 2144TIP3   OH227846   5.191   6.645   0.144 -0.9913 -0.6749  0.1161
 2144TIP3    H127847   5.157   6.672   0.229  1.2821 -1.6098  1.3587
 2144TIP3    H227848   5.249   6.716   0.118  1.7333 -2.3528  1.4367
 2145TIP3   OH227849   0.466   6.203   5.992 -0.5444 -0.0767 -0.1448
 2145TIP3    H127850   0.474   6.137   6.060  1.3077 -0.3571 -0.6273
 2145TIP3    H227851   0.488   6.285   6.036  1.2415 -0.3379 -0.5458
 2146TIP3   OH227852   2.671   5.021  12.778 -0.8853  0.2886 -0.0219
 2146TIP3    H127853   2.657   4.971  12.859 -0.2383  0.6520  0.3191
 2146TIP3    H227854   2.737   4.971  12.730 -0.9119  0.3316 -0.1030
 2147TIP3   OH227855   6.151   2.690   0.514  0.2152  0.2015  0.0607
 2147TIP3    H127856   6.078   2.752   0.524  0.2949  0.0276  1.8140
 2147TIP3    H227857   6.153   2.672   0.420 -2.1568  0.0226 -0.0087
 2148TIP3   OH227858   6.551   5.456   3.253 -0.2159 -0.3434  0.3042
 2148TIP3    H127859   6.614   5.474   3.322  0.6828 -1.3091 -0.2438
 2148TIP3    H227860   6.475   5.510   3.274 -0.0077 -0.7414  2.1294
 2149TIP3   OH227861   4.270   3.916  12.164  0.4379  0.4664  0.1700
 2149TIP3    H127862   4.318   3.846  12.209  0.2491  1.1000  1.3829
 2149TIP3    H227863   4.337   3.965  12.117  0.4339 -1.2302 -1.6914
 2150TIP3   OH227864   1.994   4.658  14.358 -0.0038  0.6864 -0.0090
 2150TIP3    H127865   1.955   4.596  14.297 -1.7290  0.7639  1.0028
 2150TIP3    H227866   1.938   4.735  14.353 -1.8370 -0.2812  3.6624
 2151TIP3   OH227867   2.734   2.039  12.219  0.0168  0.3410  0.1028
 2151TIP3    H127868   2.725   1.967  12.281  0.8096 -0.7658 -1.0609
 2151TIP3    H227869   2.826   2.066  12.227  0.5740 -0.9526 -1.8490
 2152TIP3   OH227870   1.104   0.089  14.829  0.3070  0.4996  0.2695
 2152TIP3    H127871   1.089   0.182  14.844 -0.5010  0.4153  0.0341
 2152TIP3    H227872   1.155   0.085  14.748 -1.4784  0.6622 -0.8923
 2153TIP3   OH227873   5.381   0.227   1.253 -0.2013  0.2665 -0.7088
 2153TIP3    H127874   5.318   0.187   1.193  0.6723 -2.2186  0.0045
 2153TIP3    H227875   5.334   0.234   1.336  0.3803 -1.4406 -0.2193
 2154TIP3   OH227876   1.450   1.025  11.625  0.3580  0.5462 -0.3255
 2154TIP3    H127877   1.462   0.964  11.553  0.7098  0.2420 -0.0079
 2154TIP3    H227878   1.460   0.972  11.704 -0.4041  0.8025 -0.0499
 2155TIP3   OH227879   0.809   0.311   4.496  0.3421  0.6611 -0.0734
 2155TIP3    H127880   0.827   0.218   4.483  1.0454  0.6825  0.7133
 2155TIP3    H227881   0.820   0.350   4.410  0.9065  0.1550 -0.2289
 2156TIP3   OH227882   4.094   0.004   5.820 -0.2363 -0.0269  0.0300
 2156TIP3    H127883   4.064   0.049   5.741 -0.5113  0.7465  0.5780
 2156TIP3    H227884   4.014  -0.024   5.864 -0.0840 -0.3701  0.0942
 2157TIP3   OH227885   1.926   5.734  11.122  0.2728  0.4549  0.7545
 2157TIP3    H127886   1.897   5.669  11.057 -0.0951  0.4241  0.9431
 2157TIP3    H227887   1.922   5.687  11.206 -0.6047  0.9026  0.9708
 2158TIP3   OH227888   0.279   4.992  15.655 -0.3724 -0.2707 -0.2722
 2158TIP3    H127889   0.270   5.044  15.575 -1.8873 -1.1666 -0.6978
 2158TIP3    H227890   0.323   4.912  15.626 -0.4554 -0.3744 -0.1102
 2159TIP3   OH227891   4.523   6.000   2.299 -0.0532 -0.0008  0.2171
 2159TIP3    H127892   4.527   6.075   2.358  0.2577 -1.7023  2.4263
 2159TIP3    H227893   4.575   6.027   2.223 -2.1523  3.0045 -0.2478
 2160TIP3   OH227894   2.091   2.566   1.605 -0.1877  0.2951  0.1536
 2160TIP3    H127895   2.105   2.529   1.692  0.3924  0.5459  0.1680
 2160TIP3    H227896   2.080   2.489   1.548  3.2634  0.0062 -0.2030
 2161TIP3   OH227897   5.077   5.011  12.805  0.7832  0.3516  0.1926
 2161TIP3    H127898   5.076   4.920  12.778  0.6687  0.9306 -1.8269
 2161TIP3    H227899   4.991   5.026  12.845 -0.1113  0.2131 -1.6630
 2162TIP3   OH227900   2.055   2.452   5.126 -0.4479  0.4488 -0.2511
 2162TIP3    H127901   2.052   2.510   5.050 -1.3162  0.9634  0.1738
 2162TIP3    H227902   2.040   2.364   5.089  0.8567  0.4759 -0.8863
 2163TIP3   OH227903   0.160   3.584   6.534  0.7292 -0.2386 -0.0220
 2163TIP3    H127904   0.229   3.610   6.595  0.5184 -1.3228  0.7115
 2163TIP3    H227905   0.117   3.665   6.509  2.8362  0.5463 -1.1789
 2164TIP3   OH227906   2.998   1.014   3.961  0.3313  0.1821  0.4905
 2164TIP3    H127907   2.987   1.102   3.925 -0.2156 -0.5018 -1.0246
 2164TIP3    H227908   2.916   0.997   4.009  0.4462  0.4918  0.8028
 2165TIP3   OH227909   0.345   2.678  15.770 -0.5749  0.6179  0.1895
 2165TIP3    H127910   0.419   2.684  15.709 -0.4395  1.3077  0.4241
 2165TIP3    H227911   0.272   2.647  15.716 -0.1988  0.2519 -0.1121
 2166TIP3   OH227912   3.847   5.197   0.485 -0.1195 -0.1945  0.6034
 2166TIP3    H127913   3.775   5.164   0.432  1.3578  1.2293 -2.3938
 2166TIP3    H227914   3.876   5.277   0.440  1.8846  0.5100  2.9828
 2167TIP3   OH227915   4.951   3.063   2.782  0.0957 -0.2722  0.3147
 2167TIP3    H127916   4.860   3.090   2.777  0.2205  0.4660  1.9245
 2167TIP3    H227917   4.999   3.130   2.733 -0.0293  0.3206  1.0010
 2168TIP3   OH227918   6.120   5.593  10.990  0.0401 -0.3679  0.3832
 2168TIP3    H127919   6.103   5.619  10.900  1.0363  1.1091  0.5973
 2168TIP3    H227920   6.215   5.582  10.994 -0.2104 -2.6877  0.6838
 2169TIP3   OH227921   5.777   5.413  14.817 -0.4655  0.7202  0.5574
 2169TIP3    H127922   5.756   5.498  14.779 -0.9423 -0.0874 -1.0241
 2169TIP3    H227923   5.872   5.405  14.805 -0.6177  0.4621 -0.4723
 2170TIP3   OH227924   3.509   4.676  16.496 -0.2234 -0.0844  0.0654
 2170TIP3    H127925   3.536   4.661  16.586  0.2705  0.2129 -0.0312
 2170TIP3    H227926   3.503   4.771  16.488  0.1789 -0.0900 -0.3433
 2171TIP3   OH227927   1.102   3.801  10.655 -0.2939 -0.5063  0.3863
 2171TIP3    H127928   1.043   3.847  10.595  1.1041  0.8896  0.0577
 2171TIP3    H227929   1.050   3.728  10.688 -2.2497  0.7888  0.2325
 2172TIP3   OH227930   4.239   5.965   0.903  0.3657  0.3030  0.1079
 2172TIP3    H127931   4.171   5.913   0.946  0.7634 -0.1257  0.2241
 2172TIP3    H227932   4.272   5.909   0.832  1.6447 -0.1050  0.9974
 2173TIP3   OH227933   6.148   5.396  10.711 -0.1909  0.1986  0.4416
 2173TIP3    H127934   6.220   5.380  10.650  0.4541  0.0874  1.2402
 2173TIP3    H227935   6.140   5.491  10.715 -0.0281  0.2115  0.4358
 2174TIP3   OH227936   2.555   3.239  16.612  0.3787 -0.2078 -0.5777
 2174TIP3    H127937   2.473   3.288  16.619 -0.6577 -1.7593 -1.8064
 2174TIP3    H227938   2.623   3.304  16.632 -1.1330  1.0502  0.6114
 2175TIP3   OH227939   3.783   4.013   4.342  0.2654  0.1051  0.2029
 2175TIP3    H127940   3.768   3.926   4.306 -0.6470  1.2050 -2.1575
 2175TIP3    H227941   3.857   4.001   4.402 -1.2069 -2.6828  1.5731
 2176TIP3   OH227942   6.084   6.628   0.476  0.1887  0.1780  0.4612
 2176TIP3    H127943   6.098   6.711   0.430  0.2958 -0.9944 -1.6840
 2176TIP3    H227944   6.005   6.643   0.528 -0.5661  1.2342 -0.9342
 2177TIP3   OH227945   3.290   6.053  13.178  1.0817  0.1344 -0.2833
 2177TIP3    H127946   3.371   6.084  13.218 -0.0783  2.7000  0.1893
 2177TIP3    H227947   3.273   6.114  13.106 -0.0207 -0.8380 -0.8706
 2178TIP3   OH227948   3.163   6.480  11.927  0.1466  0.8454  0.2426
 2178TIP3    H127949   3.125   6.552  11.977 -2.0532  0.4851 -0.8331
 2178TIP3    H227950   3.139   6.401  11.975 -0.6331  0.6059 -0.5166
 2179TIP3   OH227951   1.080   0.715  16.929  0.1507  0.7896 -0.1512
 2179TIP3    H127952   1.167   0.690  16.895 -0.2216  2.3517 -2.3819
 2179TIP3    H227953   1.081   0.811  16.927 -1.4203  0.8172  0.3946
 2180TIP3   OH227954   3.144   6.125  16.665 -0.2603 -0.1737 -0.3507
 2180TIP3    H127955   3.131   6.219  16.676 -1.0757 -0.2448 -0.6368
 2180TIP3    H227956   3.183   6.116  16.578  1.4375  0.0217  0.3868
 2181TIP3   OH227957   4.639   1.999  14.768  0.0947  0.1431  0.1884
 2181TIP3    H127958   4.608   2.064  14.832  0.1159  0.4099 -0.0685
 2181TIP3    H227959   4.683   1.932  14.821  1.0059  0.8722  0.3696
 2182TIP3   OH227960   2.253   0.189   4.022  0.5351 -0.4103  0.3655
 2182TIP3    H127961   2.195   0.196   4.098 -1.0171 -0.3699 -0.7763
 2182TIP3    H227962   2.307   0.267   4.026 -0.3262  0.1767  0.8162
 2183TIP3   OH227963   4.789   3.797  16.712 -0.5830 -0.1840  0.6416
 2183TIP3    H127964   4.832   3.773  16.795 -0.1943  0.1981  0.5523
 2183TIP3    H227965   4.700   3.764  16.721  0.0362 -2.0007  0.3833
 2184TIP3   OH227966   3.726   1.018  15.079  0.3189 -0.5090 -0.4386
 2184TIP3    H127967   3.709   1.043  14.988  0.8140  0.4150 -0.2852
 2184TIP3    H227968   3.642   1.033  15.124  0.0239 -1.1462 -0.7815
 2185TIP3   OH227969   5.816   3.736  16.174  0.1962 -0.8612  0.0498
 2185TIP3    H127970   5.871   3.667  16.137  1.9734  0.0331  0.9511
 2185TIP3    H227971   5.730   3.722  16.136  1.3630 -1.5077 -2.4218
 2186TIP3   OH227972   2.610   1.191  13.320 -0.5983 -0.0808 -0.1114
 2186TIP3    H127973   2.546   1.262  13.319 -0.6107 -0.0933 -0.1873
 2186TIP3    H227974   2.674   1.217  13.387 -0.7734 -0.1472  0.0841
 2187TIP3   OH227975   2.770   1.705  11.278 -0.1462  0.4601 -0.2813
 2187TIP3    H127976   2.840   1.653  11.238 -0.1972  0.8418 -0.8633
 2187TIP3    H227977   2.793   1.707  11.371 -0.3499 -0.9274 -0.1904
 2188TIP3   OH227978   3.123   2.075   2.240  0.2289 -0.5692  0.0583
 2188TIP3    H127979   3.098   1.983   2.242  1.2660 -0.8737 -0.3420
 2188TIP3    H227980   3.148   2.091   2.149 -0.3318  0.2129  0.0396
 2189TIP3   OH227981   4.483   6.262  16.773 -0.1615 -0.5780  0.0856
 2189TIP3    H127982   4.501   6.193  16.709  0.7755  0.7757 -1.1281
 2189TIP3    H227983   4.561   6.317  16.773 -1.3998  1.2154  0.0938
 2190TIP3   OH227984   5.937   4.920  15.248 -0.5534 -0.2920  0.2446
 2190TIP3    H127985   5.942   4.825  15.238  0.4936 -0.1111 -1.0074
 2190TIP3    H227986   5.872   4.933  15.318 -1.7532 -1.8708 -0.5483
 2191TIP3   OH227987   0.593   6.454  16.195  0.1228  0.2703  0.4559
 2191TIP3    H127988   0.543   6.374  16.213 -0.9691  0.7748 -0.2560
 2191TIP3    H227989   0.629   6.479  16.280  1.1934 -1.4467  0.5312
 2192TIP3   OH227990   5.034   2.501   6.651 -0.2631 -0.0297 -0.2543
 2192TIP3    H127991   4.946   2.467   6.665  0.1626 -0.5569  1.2548
 2192TIP3    H227992   5.087   2.423   6.635  0.0372  0.2378 -0.5775
 2193TIP3   OH227993   6.530   2.154  15.540 -0.0370 -0.3777  0.0878
 2193TIP3    H127994   6.510   2.120  15.628 -1.2423 -0.1906 -0.1152
 2193TIP3    H227995   6.502   2.086  15.480  1.3211 -0.7542 -0.1486
 2194TIP3   OH227996   3.644   0.339   1.589  0.0609 -0.0655 -0.1157
 2194TIP3    H127997   3.730   0.348   1.629  0.1936 -1.9856  0.0654
 2194TIP3    H227998   3.595   0.281   1.647 -0.3142 -1.4933 -1.7950
 2195TIP3   OH227999   4.771   3.357   1.564  0.1902 -0.2445  0.9539
 2195TIP3    H128000   4.813   3.401   1.490  0.3097 -2.5348 -0.3906
 2195TIP3    H228001   4.833   3.366   1.636  0.4855  1.2206  0.5362
 2196TIP3   OH228002   0.153   5.594  13.218 -0.6830 -0.1347  0.4864
 2196TIP3    H128003   0.171   5.523  13.280 -0.4245 -0.7109 -0.2370
 2196TIP3    H228004   0.101   5.657  13.268 -1.4643 -1.1385  0.9539
 2197TIP3   OH228005   3.080   1.107  12.443  0.0156  0.2083  0.2570
 2197TIP3    H128006   3.106   1.078  12.356  0.2784  0.8451  0.1213
 2197TIP3    H228007   3.163   1.120  12.490 -0.0795  1.1454  0.1799
 2198TIP3   OH228008   3.107   3.808  14.874 -0.4472 -0.3418  0.1006
 2198TIP3    H128009   3.069   3.720  14.880  2.6175 -2.0892 -3.6050
 2198TIP3    H228010   3.076   3.841  14.789  2.8624 -0.1528 -1.0755
 2199TIP3   OH228011   2.305   0.871  11.462  0.2181 -0.9970 -0.2822
 2199TIP3    H128012   2.290   0.815  11.538  2.5622  1.0204  1.7508
 2199TIP3    H228013   2.217   0.892  11.430 -0.8749 -0.9963  2.5644
 2200TIP3   OH228014   1.074   4.218  15.444 -0.3241  0.2134 -0.4070
 2200TIP3    H128015   1.086   4.275  15.520 -1.1967 -0.3200  0.1331
 2200TIP3    H228016   1.161   4.213  15.404  0.1964  0.2941  0.6977
 2201TIP3   OH228017   3.596   3.193  13.609 -0.4265 -0.0505  0.5930
 2201TIP3    H128018   3.615   3.102  13.634  1.2464  0.3598  0.9007
 2201TIP3    H228019   3.502   3.195  13.596 -0.5025 -1.8120  0.7039
 2202TIP3   OH228020   5.570   4.393  11.954  0.3039  0.9578 -0.1030
 2202TIP3    H128021   5.647   4.340  11.934 -0.6288 -1.2256  1.8663
 2202TIP3    H228022   5.577   4.412  12.047 -1.8071  0.2751  0.2256
 2203TIP3   OH228023   4.621   2.409  11.269 -0.1469  0.1764  0.2902
 2203TIP3    H128024   4.658   2.433  11.184 -0.0676  0.8725  0.5223
 2203TIP3    H228025   4.684   2.441  11.333 -0.4256  0.0504  0.6311
 2204TIP3   OH228026   3.601   1.664   5.760  0.1560  0.4524 -0.2213
 2204TIP3    H128027   3.638   1.578   5.781  0.8289  0.8803  0.4047
 2204TIP3    H228028   3.595   1.708   5.844 -3.0453 -0.0710 -0.1487
 2205TIP3   OH228029   4.067   4.033   1.766  0.0894 -0.0250 -0.0054
 2205TIP3    H128030   4.007   3.958   1.769  1.5749 -1.2817 -1.0279
 2205TIP3    H228031   4.077   4.051   1.672 -0.6993  1.8279  0.2566
 2206TIP3   OH228032   0.776   0.547  15.137 -0.7378  0.2033 -0.0861
 2206TIP3    H128033   0.784   0.499  15.219 -0.0572  0.8838  0.2518
 2206TIP3    H228034   0.802   0.484  15.070 -2.5445 -0.7577  0.0861
 2207TIP3   OH228035   0.705   5.350  10.679  0.5731  0.0817 -1.1078
 2207TIP3    H128036   0.653   5.417  10.635 -1.0348 -0.3001  0.1950
 2207TIP3    H228037   0.673   5.267  10.643  0.9781 -0.1110 -1.0331
 2208TIP3   OH228038   6.666   6.260  16.261 -0.8320 -0.0054 -0.3569
 2208TIP3    H128039   6.739   6.310  16.296  0.1344 -2.1708  0.8371
 2208TIP3    H228040   6.686   6.249  16.168  1.1326 -1.8302  0.2507
 2209TIP3   OH228041   1.243   3.228   0.633 -0.2636  0.2632 -0.7749
 2209TIP3    H128042   1.311   3.295   0.621  0.8133 -0.9061 -1.4544
 2209TIP3    H228043   1.179   3.246   0.564 -0.5143  1.2110 -0.3027
 2210TIP3   OH228044   4.997   1.902  13.679  0.0110  0.1258 -0.3841
 2210TIP3    H128045   4.964   1.992  13.686  0.3099  0.1265  1.4605
 2210TIP3    H228046   4.930   1.849  13.723 -0.0058 -0.5105 -1.1742
 2211TIP3   OH228047   4.889   5.020  15.568  0.4041 -0.0457 -0.4043
 2211TIP3    H128048   4.868   4.992  15.479  0.8010 -1.4993 -0.0431
 2211TIP3    H228049   4.806   5.052  15.603  0.4101  1.2818 -1.5506
 2212TIP3   OH228050   5.630   2.220  16.906 -0.7080  0.1057 -0.3271
 2212TIP3    H128051   5.668   2.133  16.899 -2.4495 -0.5043 -2.8232
 2212TIP3    H228052   5.558   2.211  16.968 -1.1402 -0.3498 -0.8881
 2213TIP3   OH228053   1.982   2.764   0.218  0.0808  0.4736  0.6877
 2213TIP3    H128054   1.905   2.813   0.248  0.0402  1.7174 -1.3802
 2213TIP3    H228055   2.044   2.769   0.291 -0.6925  1.9223  1.2643
 2214TIP3   OH228056   1.393   1.991   5.976  0.0583  0.0351  0.0489
 2214TIP3    H128057   1.343   2.010   6.056  1.9961  0.3828  1.2264
 2214TIP3    H228058   1.457   2.062   5.971  0.2814 -0.2650 -1.5602
 2215TIP3   OH228059   1.633   0.796  13.008  0.1568 -0.7021  0.4011
 2215TIP3    H128060   1.576   0.830  12.939  3.4514  1.9454 -1.1682
 2215TIP3    H228061   1.659   0.709  12.977  1.0570  0.1867 -1.4046
 2216TIP3   OH228062   2.130   3.616   3.371 -0.3605  0.1985  0.0981
 2216TIP3    H128063   2.105   3.646   3.458  0.8746 -0.7815  0.7971
 2216TIP3    H228064   2.220   3.647   3.360 -0.3432 -0.1077 -0.6361
 2217TIP3   OH228065   1.594   4.846   2.702  0.7307 -0.3448 -0.4613
 2217TIP3    H128066   1.607   4.785   2.630  3.3793 -0.1877 -0.1570
 2217TIP3    H228067   1.586   4.931   2.659 -1.6370 -0.6923 -0.7927
 2218TIP3   OH228068   1.811   6.558  11.882 -0.3697  0.3377 -0.1542
 2218TIP3    H128069   1.728   6.604  11.894 -0.5532 -0.2086  0.6662
 2218TIP3    H228070   1.789   6.483  11.827 -0.4500  0.0793  0.2354
 2219TIP3   OH228071   2.648   4.384   4.376  0.1580 -0.1105  0.7294
 2219TIP3    H128072   2.741   4.386   4.357 -0.1493 -0.0776 -0.8623
 2219TIP3    H228073   2.610   4.448   4.316 -0.8313  0.2460  1.7119
 2220TIP3   OH228074   5.259   5.708   1.802  0.2050 -0.2223 -0.5250
 2220TIP3    H128075   5.244   5.658   1.722  0.6464  1.4990 -1.7116
 2220TIP3    H228076   5.349   5.740   1.795  0.5503 -0.7836  1.0722
 2221TIP3   OH228077   0.796   5.771   3.802  0.3607 -0.4347 -0.1367
 2221TIP3    H128078   0.888   5.769   3.778  0.4576  0.7635  0.1035
 2221TIP3    H228079   0.777   5.864   3.818 -0.4560 -0.8587  1.4633
 2222TIP3   OH228080   1.134   4.029   3.415  0.0167 -0.2430 -0.8823
 2222TIP3    H128081   1.149   3.962   3.482  1.9037  0.8020 -0.2465
 2222TIP3    H228082   1.174   3.993   3.336  3.0668  1.0928  0.0094
 2223TIP3   OH228083   0.473   2.684  12.548  0.0964 -0.2263 -0.3666
 2223TIP3    H128084   0.451   2.637  12.629 -0.1767  1.2919  0.4760
 2223TIP3    H228085   0.568   2.689  12.548  0.0715  0.3220  0.1994
 2224TIP3   OH228086   1.050   5.792  13.120  0.3177  0.3132 -0.0868
 2224TIP3    H128087   1.119   5.733  13.091 -0.1947 -0.4843  0.2736
 2224TIP3    H228088   1.088   5.841  13.192  0.1362 -0.9883  0.9142
 2225TIP3   OH228089   4.128   0.972  12.100 -0.5976 -0.3384 -0.1852
 2225TIP3    H128090   4.205   0.940  12.146  0.8511  0.8617 -1.7458
 2225TIP3    H228091   4.056   0.959  12.162  0.8525 -1.4240  1.2928
 2226TIP3   OH228092   3.927   0.002  11.636  0.2481  0.2806 -0.0970
 2226TIP3    H128093   3.954   0.059  11.564  0.5319  0.8468  0.4456
 2226TIP3    H228094   3.980   0.032  11.711  0.6724 -0.9563  0.1006
 2227TIP3   OH228095   3.915   1.665  12.411 -0.3066  0.4935 -0.1456
 2227TIP3    H128096   3.953   1.753  12.418  1.1903 -0.1328 -0.2071
 2227TIP3    H228097   3.973   1.610  12.464 -1.2020 -0.4666 -0.1578
 2228TIP3   OH228098   5.852   5.315  16.568  0.4303  0.1243  0.2936
 2228TIP3    H128099   5.919   5.350  16.626 -1.8208  0.6254  2.6648
 2228TIP3    H228100   5.789   5.386  16.558  0.7147  0.0446 -2.7748
 2229TIP3   OH228101   0.980   6.580  16.150  0.1030  0.3646 -0.0375
 2229TIP3    H128102   1.049   6.546  16.207  1.0064  1.2477 -0.5982
 2229TIP3    H228103   0.929   6.638  16.207  0.6438  0.7843  0.0137
 2230TIP3   OH228104   4.309   2.800   4.727 -0.1479 -0.0549 -0.2712
 2230TIP3    H128105   4.251   2.731   4.696  0.5010 -0.0238 -1.6026
 2230TIP3    H228106   4.266   2.881   4.698 -0.3398  0.0422  0.2946
 2231TIP3   OH228107   1.691   5.622  16.525  0.2669  0.0476 -0.6390
 2231TIP3    H128108   1.745   5.687  16.571 -0.4333  0.6618 -0.6829
 2231TIP3    H228109   1.690   5.546  16.583  0.8542  0.1770 -0.4557
 2232TIP3   OH228110   5.207   5.964   2.331  0.1783 -0.0913 -0.1051
 2232TIP3    H128111   5.292   5.991   2.297 -0.0377 -0.1893 -0.7312
 2232TIP3    H228112   5.216   5.871   2.349  0.0566 -0.2019 -0.6215
 2233TIP3   OH228113   1.359   4.825  16.032 -0.3261 -0.2344 -0.0853
 2233TIP3    H128114   1.370   4.874  16.113  0.9087 -0.5448 -0.0524
 2233TIP3    H228115   1.281   4.863  15.991 -1.2942 -0.4446  1.5062
 2234TIP3   OH228116   0.734   3.464  12.363 -0.0354 -0.2597  0.2293
 2234TIP3    H128117   0.734   3.384  12.416  1.6296  0.5804  1.5587
 2234TIP3    H228118   0.717   3.534  12.426 -1.1122  0.4743 -0.8617
 2235TIP3   OH228119   6.003   4.133   2.584 -0.7028 -0.2196 -0.0536
 2235TIP3    H128120   6.068   4.137   2.514  0.0164  0.2650  0.6362
 2235TIP3    H228121   5.919   4.123   2.538 -0.1343 -1.0434 -0.9389
 2236TIP3   OH228122   5.151   1.416  14.569  0.0191 -0.1511 -0.1427
 2236TIP3    H128123   5.158   1.498  14.617  0.9416 -1.5493  2.2171
 2236TIP3    H228124   5.229   1.413  14.514  0.4332  0.1643  0.4239
 2237TIP3   OH228125   3.537   1.856   2.139 -0.1348 -0.1678  0.0488
 2237TIP3    H128126   3.526   1.895   2.053 -1.0806 -0.7157 -0.0802
 2237TIP3    H228127   3.625   1.884   2.167  0.5860 -0.8283 -1.5153
 2238TIP3   OH228128   3.438   0.706   3.963 -0.6600 -0.1831 -0.1649
 2238TIP3    H128129   3.447   0.735   4.054  0.8709 -1.9482  0.2531
 2238TIP3    H228130   3.356   0.657   3.961 -1.4201  1.0628 -0.0714
 2239TIP3   OH228131   6.531   4.509   3.175  0.5244  0.0234  0.1705
 2239TIP3    H128132   6.572   4.450   3.112 -0.4622 -0.7382  0.2455
 2239TIP3    H228133   6.532   4.595   3.131 -1.9842 -0.8676 -1.7594
 2240TIP3   OH228134   1.870   4.344  13.523 -0.1673 -0.3357 -0.3982
 2240TIP3    H128135   1.898   4.256  13.548 -0.0063  0.2078  1.4336
 2240TIP3    H228136   1.813   4.372  13.595 -1.5125  0.4403 -1.7475
 2241TIP3   OH228137   3.180   1.790   6.236  0.1275  0.4160  0.2470
 2241TIP3    H128138   3.114   1.769   6.169  1.1272  0.2458 -0.6947
 2241TIP3    H228139   3.130   1.796   6.317 -1.3511  2.1255 -0.7420
 2242TIP3   OH228140   4.925   5.356  11.703  0.4461 -0.2974  0.3564
 2242TIP3    H128141   4.846   5.356  11.648 -0.4352 -0.9306  1.5761
 2242TIP3    H228142   4.993   5.317  11.648  0.0248  0.6713 -0.8685
 2243TIP3   OH228143   4.412   1.926   2.786 -0.1301  0.2492 -0.3514
 2243TIP3    H128144   4.420   1.843   2.740  1.1393  0.6814 -0.9338
 2243TIP3    H228145   4.450   1.909   2.873 -0.9426 -0.0914 -0.0575
 2244TIP3   OH228146   6.446   1.818  14.686  0.4655 -0.1721  0.1903
 2244TIP3    H128147   6.386   1.874  14.734 -0.6030 -0.9797 -0.1992
 2244TIP3    H228148   6.530   1.864  14.690 -0.1320  0.8708  0.8724
 2245TIP3   OH228149   3.391   2.967  12.121  0.3774 -0.2671  0.0311
 2245TIP3    H128150   3.478   3.006  12.128 -0.6758  2.0465  0.7081
 2245TIP3    H228151   3.357   2.998  12.037  0.5242 -1.8590 -0.6267
 2246TIP3   OH228152   5.513   6.278   3.613 -0.0635 -0.1822  0.2400
 2246TIP3    H128153   5.533   6.210   3.549  1.3758  0.6555 -0.2112
 2246TIP3    H228154   5.434   6.246   3.657 -0.6030 -1.1597 -1.3778
 2247TIP3   OH228155   6.316   4.171  11.446 -0.2311  0.4750 -0.0898
 2247TIP3    H128156   6.329   4.266  11.446 -0.1866  0.4832  1.9154
 2247TIP3    H228157   6.369   4.139  11.373 -1.1068  2.0917 -1.4647
 2248TIP3   OH228158   4.580   1.235   5.125 -0.1788  0.1380 -0.2661
 2248TIP3    H128159   4.553   1.187   5.203  1.1003  0.2047  0.2261
 2248TIP3    H228160   4.564   1.173   5.053 -1.3865  0.0878  0.0223
 2249TIP3   OH228161   0.688   6.064   1.038  0.2332  0.4637  0.3694
 2249TIP3    H128162   0.744   6.141   1.035  0.3314  0.3623 -0.5918
 2249TIP3    H228163   0.742   5.993   1.004 -0.5471  0.4199 -0.8218
 2250TIP3   OH228164   6.469   5.755   5.069 -0.0991 -0.2316  0.1011
 2250TIP3    H128165   6.509   5.698   5.135 -0.8144 -1.2421 -0.3338
 2250TIP3    H228166   6.464   5.702   4.990 -1.0159  0.3425 -0.2385
 2251TIP3   OH228167   1.895   0.710  11.602  0.2908 -0.0731 -0.4110
 2251TIP3    H128168   1.810   0.672  11.581  0.1870 -0.8594  1.3603
 2251TIP3    H228169   1.880   0.805  11.601 -0.7662 -0.2280  0.5551
 2252TIP3   OH228170   2.760   5.377   2.099  0.0046  0.0862  0.0418
 2252TIP3    H128171   2.768   5.422   2.015  2.2660  1.0131  0.7265
 2252TIP3    H228172   2.771   5.284   2.078 -0.1628  0.2465 -0.7677
 2253TIP3   OH228173   5.933   1.552  16.406 -0.0978 -0.2463  0.1880
 2253TIP3    H128174   5.905   1.467  16.439 -0.9717 -0.1609 -0.3223
 2253TIP3    H228175   5.883   1.616  16.457  0.7136 -0.0292  0.7183
 2254TIP3   OH228176   4.241   2.059  16.051 -0.5130  0.4736  0.6610
 2254TIP3    H128177   4.174   2.094  15.993 -0.5006 -1.0494 -0.3164
 2254TIP3    H228178   4.283   2.136  16.090 -0.5636  1.5271 -1.3152
 2255TIP3   OH228179   0.796   5.500   2.442 -0.0048  0.2201  0.0421
 2255TIP3    H128180   0.861   5.565   2.415 -0.4266  0.8014  0.4130
 2255TIP3    H228181   0.840   5.448   2.509  0.7053 -0.5826 -1.0325
 2256TIP3   OH228182   1.356   2.053   5.032 -0.1502 -0.2297  0.2205
 2256TIP3    H128183   1.352   2.109   4.955  2.2565  0.0220  0.2223
 2256TIP3    H228184   1.441   2.008   5.024  0.0316 -0.3601  2.5829
 2257TIP3   OH228185   0.665   4.910   0.801  0.1723 -0.2893  0.0826
 2257TIP3    H128186   0.625   4.878   0.882 -0.8335 -0.2134 -0.3732
 2257TIP3    H228187   0.591   4.924   0.742  0.8017  0.6598 -0.4990
 2258TIP3   OH228188   4.747   1.252   4.031  0.1524  0.4839 -0.1218
 2258TIP3    H128189   4.835   1.289   4.026 -0.4788  1.8242 -2.1360
 2258TIP3    H228190   4.747   1.182   3.966 -0.1297  0.2366  0.1478
 2259TIP3   OH228191   6.491   1.838  16.272  0.2754 -0.3938 -0.0647
 2259TIP3    H128192   6.524   1.895  16.342 -0.4197 -0.6806  0.4957
 2259TIP3    H228193   6.526   1.752  16.293  1.8146 -0.0776 -1.2400
 2260TIP3   OH228194   1.499   2.857  15.535 -0.5080 -0.3176 -0.0592
 2260TIP3    H128195   1.516   2.836  15.443  1.5031 -1.5005  0.5316
 2260TIP3    H228196   1.546   2.939  15.550  0.7718 -1.1063  0.3629
 2261TIP3   OH228197   3.835   4.046  13.904  0.3722 -0.0277  0.4006
 2261TIP3    H128198   3.856   4.034  13.811  1.0473  0.5502  0.4738
 2261TIP3    H228199   3.741   4.027  13.910 -0.0861  1.7577 -0.7424
 2262TIP3   OH228200   2.737   1.004  12.945  0.4945  0.0990  0.0305
 2262TIP3    H128201   2.798   0.931  12.947 -0.4808 -0.7446 -0.4167
 2262TIP3    H228202   2.725   1.023  12.852  0.3430  0.4920  0.1295
 2263TIP3   OH228203   2.814   3.171   3.595  0.0349 -0.2688 -0.1212
 2263TIP3    H128204   2.834   3.156   3.503 -1.4502  0.7864 -0.6523
 2263TIP3    H228205   2.718   3.169   3.598 -0.0233  2.4027  0.8982
 2264TIP3   OH228206   3.986   0.971  16.768 -0.4589  0.0426  0.8761
 2264TIP3    H128207   4.017   0.896  16.818  0.1907  1.4923  2.7173
 2264TIP3    H228208   4.022   1.047  16.814 -1.2643  1.4948 -0.8226
 2265TIP3   OH228209   4.053   6.631   1.614  0.1190  0.0190 -0.8929
 2265TIP3    H128210   4.048   6.583   1.531 -1.7043  0.1721 -0.9122
 2265TIP3    H228211   4.132   6.599   1.657 -0.8427 -2.7285 -1.0836
 2266TIP3   OH228212   0.956   5.107   3.493 -1.5508  0.8823 -0.1836
 2266TIP3    H128213   0.881   5.140   3.442 -2.5167 -1.0217 -0.0279
 2266TIP3    H228214   0.920   5.037   3.546 -0.1365  1.5890  1.7598
 2267TIP3   OH228215   2.722   5.682   5.784 -0.2846 -1.0633 -0.0072
 2267TIP3    H128216   2.808   5.695   5.744 -0.9751 -1.7507 -1.7114
 2267TIP3    H228217   2.704   5.589   5.774 -0.7014 -1.1563  1.4496
 2268TIP3   OH228218   4.595   0.815  12.909  0.1679 -0.9787 -0.1154
 2268TIP3    H128219   4.587   0.723  12.884 -1.4170 -0.9905  0.4005
 2268TIP3    H228220   4.536   0.861  12.849 -1.3922 -0.6742  1.6128
 2269TIP3   OH228221   0.773   3.245   6.008  0.0600 -0.5675 -0.7221
 2269TIP3    H128222   0.867   3.255   6.026  0.1332  2.7676 -2.6381
 2269TIP3    H228223   0.731   3.305   6.069 -0.6865 -0.5022 -1.2955
 2270TIP3   OH228224   6.315   4.270   0.521 -0.5873  0.5761 -0.3621
 2270TIP3    H128225   6.362   4.296   0.441 -0.4067  0.0304 -0.4359
 2270TIP3    H228226   6.341   4.335   0.586  1.5851 -0.6493  0.0528
 2271TIP3   OH228227   3.059   5.949   2.099 -0.4510  0.2948 -0.0529
 2271TIP3    H128228   3.118   5.876   2.119 -2.0502 -0.8671  0.5161
 2271TIP3    H228229   3.075   5.968   2.006 -0.7071 -1.4357 -0.4728
 2272TIP3   OH228230   3.947   5.636  12.792 -0.8454 -0.0572  0.1027
 2272TIP3    H128231   4.041   5.632  12.807 -0.6366 -1.0560 -1.3397
 2272TIP3    H228232   3.911   5.566  12.846 -0.6602 -0.2412 -0.0108
 2273TIP3   OH228233   0.176   4.415   5.166 -0.0903 -0.0091  0.2692
 2273TIP3    H128234   0.115   4.359   5.213  0.5010 -0.3635  0.6276
 2273TIP3    H228235   0.234   4.354   5.120 -1.9069  0.3238 -2.6058
 2274TIP3   OH228236   0.429   4.814  12.892  0.1491 -0.3160  0.0156
 2274TIP3    H128237   0.513   4.835  12.932 -1.0011  1.7330  1.4281
 2274TIP3    H228238   0.435   4.849  12.803 -0.0126  1.8909  0.8466
 2275TIP3   OH228239   0.165   6.622   1.243 -0.5547  0.3614  0.1007
 2275TIP3    H128240   0.087   6.588   1.286 -1.4167  0.7859 -1.1114
 2275TIP3    H228241   0.133   6.686   1.180  0.8776  1.6053  0.6045
 2276TIP3   OH228242   0.029   6.520   0.335  0.2976 -0.0108  0.9726
 2276TIP3    H128243   0.113   6.550   0.368  0.7527  1.6977 -1.5934
 2276TIP3    H228244  -0.030   6.595   0.344 -0.3948 -0.5240  0.8453
 2277TIP3   OH228245   1.930   0.889   2.453 -0.5784  0.2413 -0.3776
 2277TIP3    H128246   1.989   0.957   2.486  1.0469 -1.2481 -0.1512
 2277TIP3    H228247   1.863   0.881   2.522  1.0081 -0.5891  1.1240
 2278TIP3   OH228248   1.269   4.756   4.806  0.4046 -0.2510 -0.0096
 2278TIP3    H128249   1.319   4.675   4.809  0.2316 -0.4012 -0.9037
 2278TIP3    H228250   1.330   4.821   4.771 -0.2430 -0.6173 -1.8659
 2279TIP3   OH228251   5.862   0.334  16.614  0.1656 -0.5613  0.0628
 2279TIP3    H128252   5.935   0.280  16.644  1.6990  0.7962 -1.0808
 2279TIP3    H228253   5.819   0.281  16.547  0.0410 -1.4140  0.8122
 2280TIP3   OH228254   1.901   5.513   2.336 -0.3559 -0.7271  0.3897
 2280TIP3    H128255   1.861   5.600   2.327  2.5154  0.6073  0.0625
 2280TIP3    H228256   1.950   5.517   2.418 -1.8056 -2.7455  1.4076
 2281TIP3   OH228257   2.945   3.713   1.695 -0.5905 -0.6390 -0.2744
 2281TIP3    H128258   3.006   3.742   1.762 -0.5964 -0.3205 -0.4073
 2281TIP3    H228259   2.966   3.620   1.682  0.4758 -0.3150 -0.9688
 2282TIP3   OH228260   1.213   3.226  15.241  0.3095 -0.6567 -0.1183
 2282TIP3    H128261   1.233   3.189  15.327  0.7580 -0.4158 -0.1203
 2282TIP3    H228262   1.206   3.151  15.183  1.9261 -0.7047 -0.2723
 2283TIP3   OH228263   3.625   5.073   2.510 -0.3641  0.3664 -0.1102
 2283TIP3    H128264   3.584   4.996   2.470 -1.1232  1.8082 -2.2229
 2283TIP3    H228265   3.622   5.140   2.441  0.4298  2.2401  1.6222
 2284TIP3   OH228266   1.292   1.314   2.333  0.2318 -0.3687 -0.2473
 2284TIP3    H128267   1.265   1.400   2.367 -0.2570 -0.7279  0.2756
 2284TIP3    H228268   1.372   1.293   2.382  0.8325  0.1714 -0.9810
 2285TIP3   OH228269   3.486   5.544  11.725  0.4471  0.3592  0.4051
 2285TIP3    H128270   3.490   5.449  11.734 -0.8400  0.3345  0.9257
 2285TIP3    H228271   3.509   5.577  11.812  2.3339  0.5705 -0.1700
 2286TIP3   OH228272   0.644   2.166   4.236  0.1544 -0.4497  0.2838
 2286TIP3    H128273   0.569   2.134   4.187 -0.5332 -2.5340  2.5906
 2286TIP3    H228274   0.609   2.233   4.295  0.6102  0.5470 -0.5572
 2287TIP3   OH228275   1.777   2.952  13.955  0.2530 -0.3092 -0.0843
 2287TIP3    H128276   1.703   2.921  14.008 -1.4146  0.0408 -2.1294
 2287TIP3    H228277   1.799   3.037  13.993  0.4153 -0.9437  1.2900
 2288TIP3   OH228278   3.409   5.496  12.700 -0.1855 -0.4588  0.0826
 2288TIP3    H128279   3.384   5.564  12.763 -1.6053 -0.0994 -0.8513
 2288TIP3    H228280   3.493   5.464  12.732 -1.1390 -0.6741  2.5020
 2289TIP3   OH228281   6.228   3.812  13.679 -0.0199  0.0287 -0.4500
 2289TIP3    H128282   6.133   3.803  13.671 -0.2312  1.2540  0.4772
 2289TIP3    H228283   6.240   3.894  13.728  1.4536 -1.6601  2.1174
 2290TIP3   OH228284   4.106   4.012  10.964 -0.5411  0.4042 -0.4389
 2290TIP3    H128285   4.193   3.982  10.939 -0.5674 -2.1424  2.2559
 2290TIP3    H228286   4.047   3.976  10.898  0.1004 -0.5789 -0.4775
 2291TIP3   OH228287   2.099   2.549  13.197 -0.6516 -0.7185 -0.2045
 2291TIP3    H128288   2.018   2.500  13.212 -0.3184 -1.2683 -0.2158
 2291TIP3    H228289   2.165   2.483  13.178 -0.6013 -0.1423 -2.0777
 2292TIP3   OH228290   1.606   6.766  15.052 -0.0697  0.1555 -0.0602
 2292TIP3    H128291   1.655   6.754  14.970  0.7047 -1.4766  0.6219
 2292TIP3    H228292   1.515   6.752  15.027  0.3531 -2.4462 -0.2733
 2293TIP3   OH228293   4.581   4.306  14.149 -0.4566 -0.5691 -0.1463
 2293TIP3    H128294   4.540   4.392  14.165  1.9354  0.4381  0.8377
 2293TIP3    H228295   4.661   4.327  14.101 -0.3083 -2.3444 -0.6725
 2294TIP3   OH228296   1.208   6.037   1.677 -0.0830 -0.1517  0.9987
 2294TIP3    H128297   1.132   5.998   1.635  0.7951 -0.9322  0.0997
 2294TIP3    H228298   1.172   6.094   1.745 -1.6121  1.8593 -1.3981
 2295TIP3   OH228299   2.099   1.000   4.329  0.0014 -0.1521 -0.1504
 2295TIP3    H128300   2.159   0.932   4.299 -0.8872 -0.9845 -0.0995
 2295TIP3    H228301   2.017   0.953   4.346 -0.0041  0.5674  1.9689
 2296TIP3   OH228302   1.476   6.242  13.820  0.2764  0.3673 -0.3362
 2296TIP3    H128303   1.427   6.312  13.777 -0.6532 -1.1320 -1.7718
 2296TIP3    H228304   1.410   6.193  13.869  0.8267  0.1679  0.2076
 2297TIP3   OH228305   4.396   2.395   5.746  0.6776 -0.1317  0.3422
 2297TIP3    H128306   4.306   2.368   5.764  0.9813 -0.3416  1.6135
 2297TIP3    H228307   4.388   2.471   5.689 -0.2963 -0.4055  0.1125
 2298TIP3   OH228308   6.665   4.798  12.734  0.3454  0.1676  0.9774
 2298TIP3    H128309   6.748   4.755  12.713  0.3334 -0.3026  1.9006
 2298TIP3    H228310   6.684   4.850  12.812  0.1820  1.3223  0.2718
 2299TIP3   OH228311   4.234   4.166   5.396 -0.0314  0.3718 -0.5918
 2299TIP3    H128312   4.309   4.184   5.338 -0.6683  0.7847 -1.2902
 2299TIP3    H228313   4.199   4.083   5.364  2.1063 -1.5563  1.8035
 2300TIP3   OH228314   5.197   1.612   4.928  0.6280 -0.1155 -0.3379
 2300TIP3    H128315   5.107   1.609   4.963  0.6555 -0.4356 -0.2942
 2300TIP3    H228316   5.193   1.562   4.847  1.0319 -1.1641  0.2708
 2301TIP3   OH228317   1.730   4.123  11.185 -0.0086 -0.9082  0.1625
 2301TIP3    H128318   1.826   4.129  11.185 -0.0790  0.4418 -0.3473
 2301TIP3    H228319   1.711   4.060  11.116  0.4373  0.9946 -1.7696
 2302TIP3   OH228320   1.195   0.960   2.261  0.0085 -0.0094 -0.5603
 2302TIP3    H128321   1.196   1.032   2.324  0.0155 -0.3311 -0.1917
 2302TIP3    H228322   1.102   0.947   2.240  0.0460  0.4398 -1.0109
 2303TIP3   OH228323   0.092   3.049  13.586 -0.3517 -0.4440  0.3913
 2303TIP3    H128324   0.091   2.953  13.594 -1.3466 -0.3049  2.2740
 2303TIP3    H228325   0.038   3.079  13.659 -1.5375  1.5021 -1.2412
 2304TIP3   OH228326   3.243   1.805   0.718  0.2020  0.4492 -0.3211
 2304TIP3    H128327   3.199   1.771   0.796  0.7116  0.9469  0.1948
 2304TIP3    H228328   3.173   1.838   0.663 -0.1735 -0.0271 -0.1292
 2305TIP3   OH228329   2.032   0.164  13.295 -0.2235 -0.1654 -0.1215
 2305TIP3    H128330   2.075   0.180  13.211 -0.3940 -0.6201 -0.2949
 2305TIP3    H228331   2.074   0.226  13.355 -1.4831  1.5616 -0.9794
 2306TIP3   OH228332   4.966   3.581   4.200 -0.0133  0.4365  0.4220
 2306TIP3    H128333   4.928   3.510   4.147  0.3785 -0.0962  0.8457
 2306TIP3    H228334   4.994   3.646   4.136  0.6632 -0.3025 -0.0505
 2307TIP3   OH228335   5.629   3.606  15.723  0.5494 -0.5513 -0.0656
 2307TIP3    H128336   5.614   3.537  15.787 -0.1852 -0.6861 -0.3806
 2307TIP3    H228337   5.566   3.674  15.746 -1.2428 -1.5075 -1.9495
 2308TIP3   OH228338   3.776   2.110  11.210  0.2405 -0.0221  0.0774
 2308TIP3    H128339   3.712   2.166  11.167 -1.6138 -1.5076  0.8449
 2308TIP3    H228340   3.761   2.023  11.173  2.1074 -0.3170 -0.0405
 2309TIP3   OH228341   5.014   3.627   0.504 -0.0712 -0.4088  0.0424
 2309TIP3    H128342   5.097   3.666   0.476 -0.8804 -1.2682 -3.7409
 2309TIP3    H228343   5.037   3.537   0.527  0.3389 -0.1175  0.8107
 2310TIP3   OH228344   3.199   5.145  16.764 -0.2825 -0.1195 -0.1355
 2310TIP3    H128345   3.175   5.171  16.853  0.8425 -0.6118  0.3167
 2310TIP3    H228346   3.175   5.053  16.759  1.1297 -0.5164  0.1943
 2311TIP3   OH228347   6.723   2.541   5.119  0.2994 -0.2614 -0.1986
 2311TIP3    H128348   6.678   2.593   5.051 -0.2981  0.4304  0.7173
 2311TIP3    H228349   6.655   2.523   5.184  1.0028 -0.4593  0.4851
 2312TIP3   OH228350   3.960   2.127  13.910  0.3568  0.0480  0.4572
 2312TIP3    H128351   4.050   2.111  13.880 -0.0925 -1.2808 -0.2104
 2312TIP3    H228352   3.943   2.057  13.973 -2.0486 -3.0176 -3.3607
 2313TIP3   OH228353   1.989   5.171   3.585  0.1100 -0.2675 -0.0536
 2313TIP3    H128354   2.053   5.136   3.523  1.4758  1.4940  0.3040
 2313TIP3    H228355   2.038   5.178   3.667  0.0054  2.8442 -0.2261
 2314TIP3   OH228356   4.644   0.316   2.491  0.5491  0.6328 -0.2377
 2314TIP3    H128357   4.563   0.366   2.491 -0.1768 -0.5199  0.9797
 2314TIP3    H228358   4.617   0.225   2.479  1.2746 -0.2656  3.9551
 2315TIP3   OH228359   0.706   2.883  13.893  0.3614  0.7394 -0.2260
 2315TIP3    H128360   0.733   2.823  13.823 -0.5146 -1.0129  0.9252
 2315TIP3    H228361   0.717   2.833  13.974 -1.9717  1.5383  0.6170
 2316TIP3   OH228362   2.965   0.825   4.416  0.4517 -0.0958  0.4458
 2316TIP3    H128363   2.904   0.768   4.370  0.1609  0.6251 -0.0718
 2316TIP3    H228364   3.005   0.769   4.482 -0.6409 -0.6177  0.6795
 2317TIP3   OH228365   4.694   5.887  11.871  0.6609 -0.6474  0.0378
 2317TIP3    H128366   4.690   5.979  11.847  0.4836 -0.6914 -0.1030
 2317TIP3    H228367   4.700   5.888  11.967 -1.4060 -0.5268  0.1861
 2318TIP3   OH228368   4.440   3.704  14.442  0.1616 -0.3345 -0.2024
 2318TIP3    H128369   4.386   3.672  14.515  1.0183 -0.0136  0.5832
 2318TIP3    H228370   4.380   3.708  14.368 -1.0297  0.5570  0.7933
 2319TIP3   OH228371   5.504   6.562  13.468 -1.0947  0.1582 -0.2080
 2319TIP3    H128372   5.423   6.542  13.420 -1.0777  0.1665 -0.2405
 2319TIP3    H228373   5.480   6.636  13.524 -1.2710 -0.2267  0.2260
 2320TIP3   OH228374   5.952   3.932   1.844  0.4741 -0.2005 -0.3288
 2320TIP3    H128375   5.899   3.866   1.889  0.7279 -0.3275 -0.2152
 2320TIP3    H228376   6.039   3.894   1.841  0.5137 -0.0772 -0.6953
 2321TIP3   OH228377   4.985   1.222  14.480 -0.5590  0.8971 -0.0268
 2321TIP3    H128378   5.035   1.304  14.474  0.2503  0.3202 -1.3443
 2321TIP3    H228379   4.979   1.205  14.574  1.9292  0.8515  0.1522
 2322TIP3   OH228380   5.929   6.311  14.503  0.4387 -0.6452  0.4984
 2322TIP3    H128381   5.942   6.218  14.520 -0.9822 -1.4739 -2.6978
 2322TIP3    H228382   5.836   6.326  14.519  0.4636  0.0350  0.0268
 2323TIP3   OH228383   2.747   3.967   4.070  0.0512 -0.3395 -0.3211
 2323TIP3    H128384   2.672   3.961   4.011 -0.6755 -0.3782  0.6007
 2323TIP3    H228385   2.791   3.882   4.062 -2.0208 -1.6697  1.8068
 2324TIP3   OH228386   6.038   5.466   1.013  0.3318  0.2937 -0.0242
 2324TIP3    H128387   6.008   5.446   0.924  1.6856  0.6805 -0.5994
 2324TIP3    H228388   5.992   5.404   1.069 -0.8934  0.3492 -0.9443
 2325TIP3   OH228389   6.357   5.314   4.454  0.4300 -0.5153  0.6810
 2325TIP3    H128390   6.318   5.267   4.528 -0.2962  0.4081  0.9013
 2325TIP3    H228391   6.450   5.295   4.460  0.1790 -1.7222  0.9071
 2326TIP3   OH228392   6.374   1.604   6.057  0.0599 -0.1320 -0.6660
 2326TIP3    H128393   6.433   1.530   6.040  0.8282 -0.1961  2.0052
 2326TIP3    H228394   6.286   1.569   6.045  0.5063 -0.6837 -2.3405
 2327TIP3   OH228395   1.869   2.660  16.596  0.4986  0.2317 -0.1210
 2327TIP3    H128396   1.915   2.730  16.642  1.0772 -0.1867 -0.0606
 2327TIP3    H228397   1.792   2.643  16.650  1.5983 -0.8254  1.1533
 2328TIP3   OH228398   6.598   4.419   0.602  0.1122  0.0528 -0.3245
 2328TIP3    H128399   6.503   4.429   0.611  0.0454  0.3323 -1.3333
 2328TIP3    H228400   6.627   4.502   0.566  0.9664  0.5999  1.5642
 2329TIP3   OH228401   0.916   0.408  15.797  0.4490 -0.2412  0.4410
 2329TIP3    H128402   0.890   0.321  15.767  0.4181  0.2205 -0.9007
 2329TIP3    H228403   0.965   0.445  15.724  0.6021  0.8143  1.0639
 2330TIP3   OH228404   2.634   0.789  16.530  0.5111 -0.0765 -0.0146
 2330TIP3    H128405   2.690   0.842  16.587  0.4329  0.3323 -0.3190
 2330TIP3    H228406   2.582   0.853  16.481  0.7423 -0.4162 -0.7168
 2331TIP3   OH228407   4.352   4.504   0.214  0.3036 -0.1126  0.1248
 2331TIP3    H128408   4.437   4.545   0.223  0.6538 -1.1857  1.9414
 2331TIP3    H228409   4.361   4.420   0.258 -1.3623 -0.7260 -0.6583
 2332TIP3   OH228410   2.602   5.679  15.787 -0.5462  0.2339  0.3512
 2332TIP3    H128411   2.556   5.642  15.862  1.3370 -1.8474  0.5225
 2332TIP3    H228412   2.581   5.621  15.714  1.1216 -0.2567  0.2507
 2333TIP3   OH228413   1.991   5.288  17.078 -0.4280  0.8088 -0.0248
 2333TIP3    H128414   2.034   5.205  17.101 -1.0200  0.2072 -1.0304
 2333TIP3    H228415   2.024   5.309  16.991 -1.7126  0.6225 -0.5770
 2334TIP3   OH228416   2.469   0.643   4.244 -0.1278 -0.0874  0.4162
 2334TIP3    H128417   2.468   0.672   4.152  1.6273  1.0915  0.7392
 2334TIP3    H228418   2.515   0.559   4.241 -1.5115 -0.8377  0.0120
 2335TIP3   OH228419   3.805   1.253  11.788 -0.0642 -0.1516  0.0923
 2335TIP3    H128420   3.737   1.265  11.855 -0.6280 -0.0647 -0.4982
 2335TIP3    H228421   3.847   1.170  11.812  0.8775  0.7185  1.5576
 2336TIP3   OH228422   6.238   4.050  12.638 -0.3117 -0.1335 -0.2572
 2336TIP3    H128423   6.144   4.061  12.628 -0.2406  0.8821  0.1418
 2336TIP3    H228424   6.259   3.974  12.583 -1.2613  0.0286 -0.8614
 2337TIP3   OH228425   0.721   4.256   4.863  0.2024 -0.1205 -0.7083
 2337TIP3    H128426   0.739   4.197   4.936 -0.9312  0.0299 -0.3055
 2337TIP3    H228427   0.794   4.241   4.802  1.4306  0.1239  0.6740
 2338TIP3   OH228428   5.400   1.794   2.248 -0.3901  0.9352  0.2201
 2338TIP3    H128429   5.482   1.749   2.266 -0.8450  0.4481  1.1115
 2338TIP3    H228430   5.405   1.816   2.155  1.2815  2.0302  0.5483
 2339TIP3   OH228431   6.608   2.883  11.265  0.5327  0.0829  0.3456
 2339TIP3    H128432   6.561   2.800  11.261  1.3827 -0.3953  0.0160
 2339TIP3    H228433   6.542   2.948  11.288 -0.0062 -0.7957  1.3068
 2340TIP3   OH228434   5.379   3.670   5.107  0.2363  0.4243 -0.6636
 2340TIP3    H128435   5.442   3.644   5.040 -0.2196  0.1200 -0.9876
 2340TIP3    H228436   5.336   3.588   5.132  0.1124  0.5969 -0.3027
 2341TIP3   OH228437   1.593   6.595   6.545  0.0759 -0.2555 -0.2572
 2341TIP3    H128438   1.553   6.669   6.592 -0.4354  0.3634 -1.6546
 2341TIP3    H228439   1.685   6.619   6.538 -0.2310  0.6568 -1.4246
 2342TIP3   OH228440   5.645   4.972   1.272  0.1684  0.4715 -0.4636
 2342TIP3    H128441   5.701   4.997   1.198  1.4206  2.1697  1.0188
 2342TIP3    H228442   5.706   4.959   1.345 -1.1211 -0.4744  0.4689
 2343TIP3   OH228443   4.915   4.872  17.055  0.2357  0.3207  0.4642
 2343TIP3    H128444   4.831   4.914  17.039  0.3720  0.5839  0.4250
 2343TIP3    H228445   4.893   4.784  17.086 -0.0271 -0.3707 -1.6212
 2344TIP3   OH228446   0.948   5.963  15.416  0.2583 -0.1515  0.0909
 2344TIP3    H128447   1.029   5.983  15.464 -0.3978  1.9022  0.3973
 2344TIP3    H228448   0.898   6.045  15.418 -2.2828 -1.6603  0.7403
 2345TIP3   OH228449   3.227   4.195  15.461  0.0607 -0.4721 -0.1097
 2345TIP3    H128450   3.171   4.141  15.405  0.5468 -1.1521  0.0611
 2345TIP3    H228451   3.195   4.178  15.549 -0.5199  0.3828 -0.1483
 2346TIP3   OH228452   4.531   1.036   4.938 -0.1233  0.6402  0.4105
 2346TIP3    H128453   4.525   1.097   4.865  0.3139  1.0659  0.7295
 2346TIP3    H228454   4.440   1.015   4.960 -0.2448 -1.1165 -1.6093
 2347TIP3   OH228455   6.746   2.504  10.984 -0.7351  0.2881 -0.3942
 2347TIP3    H128456   6.823   2.559  11.000  0.0522 -0.3282 -1.9661
 2347TIP3    H228457   6.685   2.528  11.053  1.3410 -0.0863  1.6274
 2348TIP3   OH228458   1.823   0.178  12.190 -0.0256 -0.0865 -0.2608
 2348TIP3    H128459   1.869   0.254  12.154  0.1161 -0.4451 -0.8307
 2348TIP3    H228460   1.844   0.180  12.284 -1.3012  1.4790  0.0199
 2349TIP3   OH228461   4.745   2.394   0.011 -0.2543  0.6621  0.2478
 2349TIP3    H128462   4.757   2.366  -0.080  0.6835  0.6596  0.3730
 2349TIP3    H228463   4.688   2.327   0.049 -0.9578  0.8643 -0.4355
 2350TIP3   OH228464   3.893   3.411  12.100 -0.9466 -0.3597  0.1643
 2350TIP3    H128465   3.967   3.413  12.160 -0.6595  2.2698 -0.2228
 2350TIP3    H228466   3.916   3.343  12.036  0.4640 -0.5528  0.8612
 2351TIP3   OH228467   0.929   5.716  11.028  0.3082  0.0132 -0.1195
 2351TIP3    H128468   0.908   5.809  11.022  2.1386  0.4226 -0.5904
 2351TIP3    H228469   0.853   5.672  10.989  0.0202  1.3706 -1.1614
 2352TIP3   OH228470   5.392   4.308   1.892 -0.3074  0.2886  0.1854
 2352TIP3    H128471   5.298   4.297   1.910 -0.2543  1.4874  1.2628
 2352TIP3    H228472   5.433   4.307   1.979  0.5223  1.2147 -0.1859
 2353TIP3   OH228473   1.970   6.585   5.072  0.2596 -0.1951 -0.2325
 2353TIP3    H128474   1.977   6.680   5.073  0.2350 -0.1879 -1.1019
 2353TIP3    H228475   1.900   6.566   5.010 -0.6087 -0.7256  0.8834
 2354TIP3   OH228476   5.401   1.013  15.692  0.2177  0.6918  0.7931
 2354TIP3    H128477   5.416   1.104  15.666  0.7505  0.3954  0.0472
 2354TIP3    H228478   5.443   1.005  15.777  1.3329  0.7946  0.2579
 2355TIP3   OH228479   2.899   0.755  13.153 -0.1207 -0.2342  0.3272
 2355TIP3    H128480   2.943   0.777  13.071 -1.3045 -0.2671 -0.3349
 2355TIP3    H228481   2.906   0.833  13.207 -0.8006  0.3805 -0.4628
 2356TIP3   OH228482   2.460   0.592   0.479 -0.0094  0.5455  0.0568
 2356TIP3    H128483   2.533   0.605   0.539 -0.2859  1.3304  0.2309
 2356TIP3    H228484   2.383   0.621   0.529 -0.4730 -0.5417 -0.0228
 2357TIP3   OH228485   4.816   5.515   4.198 -0.9399 -0.3437 -0.3905
 2357TIP3    H128486   4.777   5.514   4.285 -1.0850  0.0709 -0.4489
 2357TIP3    H228487   4.791   5.431   4.160 -3.4476  0.6835 -1.1385
 2358TIP3   OH228488   6.271   2.372  17.115  0.3195  0.0362  0.5644
 2358TIP3    H128489   6.187   2.415  17.131  0.4823  0.9036 -0.8162
 2358TIP3    H228490   6.249   2.284  17.085 -0.1691  0.9180 -1.7475
 2359TIP3   OH228491   5.628   1.138  11.409 -0.0705  0.3197 -0.3693
 2359TIP3    H128492   5.699   1.090  11.366 -0.3575 -0.5148  0.0708
 2359TIP3    H228493   5.550   1.118  11.356 -0.3218 -0.2731  0.2136
 2360TIP3   OH228494   5.776   5.070   1.027  0.0988 -0.7639  0.7271
 2360TIP3    H128495   5.837   5.143   1.017  0.9744 -1.5960 -0.1298
 2360TIP3    H228496   5.698   5.098   0.979  0.6381 -0.6082 -0.0774
 2361TIP3   OH228497   4.195   3.648  14.301 -0.2318  0.0453  0.0918
 2361TIP3    H128498   4.127   3.674  14.239 -1.0329 -0.1300  0.8803
 2361TIP3    H228499   4.148   3.636  14.384  1.1101  2.3135  1.2462
 2362TIP3   OH228500   5.019   5.524  10.646  0.9314  0.1981 -0.6426
 2362TIP3    H128501   5.064   5.532  10.730 -0.1939  2.2706 -0.2206
 2362TIP3    H228502   4.994   5.431  10.641  0.3178  0.2299  1.6593
 2363TIP3   OH228503   5.200   4.772  13.431 -0.2512 -0.2445  0.2807
 2363TIP3    H128504   5.196   4.743  13.339  0.8872 -1.4470  0.5892
 2363TIP3    H228505   5.212   4.867  13.426  1.5003 -0.4998 -0.8596
 2364TIP3   OH228506   5.209   5.335  11.230 -0.6561  0.5624  0.3791
 2364TIP3    H128507   5.288   5.291  11.262 -1.5653  0.3016  2.3316
 2364TIP3    H228508   5.225   5.349  11.137  1.2483 -0.4419  0.5403
 2365TIP3   OH228509   1.099   5.053   0.858  0.4823  0.4259 -0.5999
 2365TIP3    H128510   1.086   5.128   0.800 -1.4964  0.7270  0.2041
 2365TIP3    H228511   1.053   4.981   0.814 -0.8585  0.6101  0.4930
 2366TIP3   OH228512   1.502   5.899   4.824 -0.3602 -0.5819 -0.3501
 2366TIP3    H128513   1.514   5.840   4.898 -0.0546 -0.3748 -0.2339
 2366TIP3    H228514   1.509   5.842   4.747  2.1696 -0.3611 -0.3230
 2367TIP3   OH228515   4.232   3.619   1.179  0.2270  0.4579  0.0213
 2367TIP3    H128516   4.203   3.680   1.112 -2.7362 -0.5786  0.2720
 2367TIP3    H228517   4.232   3.534   1.136 -1.1165 -0.1263  1.1145
 2368TIP3   OH228518   0.864   0.018   4.157  0.1834  0.0738 -0.1590
 2368TIP3    H128519   0.838  -0.046   4.223 -0.3429  1.2083  0.7476
 2368TIP3    H228520   0.920   0.080   4.205  1.2677 -0.0936 -1.1795
 2369TIP3   OH228521   2.024   1.255  10.861 -0.1590  0.0343  0.3487
 2369TIP3    H128522   1.957   1.196  10.827 -0.4808  1.9841 -2.6905
 2369TIP3    H228523   2.106   1.225  10.821  0.3345 -0.6621  1.8529
 2370TIP3   OH228524   1.259   2.476  14.079  0.3489  0.5275 -0.0514
 2370TIP3    H128525   1.201   2.545  14.111 -0.2665 -0.0071 -0.0091
 2370TIP3    H228526   1.326   2.468  14.147  0.2339  0.8539  0.1004
 2371TIP3   OH228527   0.329   5.790   1.420 -0.1893 -0.1728  0.3980
 2371TIP3    H128528   0.265   5.848   1.462 -1.6837 -2.4065  1.2898
 2371TIP3    H228529   0.276   5.735   1.362  0.9055 -2.1058  1.2043
 2372TIP3   OH228530   1.398   0.036  14.264  0.6190  0.4752  0.1697
 2372TIP3    H128531   1.417  -0.017  14.186  1.6109  0.3608  0.4871
 2372TIP3    H228532   1.441   0.120  14.247  2.5807 -0.2397  1.4709
 2373TIP3   OH228533   4.270   1.014   3.839 -0.6308 -0.1411 -0.3266
 2373TIP3    H128534   4.222   1.082   3.792  0.9664  1.2944  0.0838
 2373TIP3    H228535   4.298   1.056   3.920  0.0922 -1.3780  0.0736
 2374TIP3   OH228536   3.058   3.912   2.836  0.3356  0.5504  0.0774
 2374TIP3    H128537   3.146   3.876   2.849  0.0023  0.0377  0.9478
 2374TIP3    H228538   3.037   3.892   2.745  0.5301 -0.6452  0.2886
 2375TIP3   OH228539   5.270   4.409  14.102 -0.4159 -0.1075  0.0211
 2375TIP3    H128540   5.257   4.482  14.040  0.4744  1.2726  1.4134
 2375TIP3    H228541   5.196   4.351  14.087 -0.8875  0.8534 -1.4645
 2376TIP3   OH228542   2.165   0.881  14.968  0.2085  0.2214 -0.5150
 2376TIP3    H128543   2.147   0.911  15.057 -0.0771  0.5848 -0.6894
 2376TIP3    H228544   2.225   0.946  14.932 -0.1796  0.4294 -0.7977
 2377TIP3   OH228545   3.247   3.758  17.172  0.0544 -0.2950 -0.5053
 2377TIP3    H128546   3.303   3.826  17.209 -1.4334 -0.2247  1.6993
 2377TIP3    H228547   3.251   3.687  17.236 -3.1378  0.1186  0.2440
 2378TIP3   OH228548   4.821   5.092  12.184  0.3956 -0.0653  0.0896
 2378TIP3    H128549   4.812   5.118  12.092  1.3713  0.7835  0.2295
 2378TIP3    H228550   4.891   5.027  12.184 -1.8522 -2.5748 -0.2179
 2379TIP3   OH228551   1.850   6.388  11.409  0.2248 -0.1522 -0.0747
 2379TIP3    H128552   1.881   6.467  11.365  0.7603 -0.7756 -0.8225
 2379TIP3    H228553   1.876   6.399  11.500 -1.2801  1.3518  0.1830
 2380TIP3   OH228554   5.249   0.746   0.674 -0.2507 -0.2943  0.6261
 2380TIP3    H128555   5.237   0.819   0.733  1.2696  1.9597 -1.7268
 2380TIP3    H228556   5.325   0.699   0.708 -0.8833 -0.4649  1.8149
 2381TIP3   OH228557   0.077   4.147  16.285  0.2455 -0.4769  0.0765
 2381TIP3    H128558   0.068   4.060  16.325  0.1283 -0.2791  0.4805
 2381TIP3    H228559   0.070   4.131  16.191  2.4214 -1.2098 -0.0045
 2382TIP3   OH228560   3.041   1.986   1.348 -0.2105 -0.0830 -0.1873
 2382TIP3    H128561   2.953   2.001   1.382 -0.1716 -1.2647  0.4640
 2382TIP3    H228562   3.039   1.897   1.314  0.8805 -0.3007  0.3045
 2383TIP3   OH228563   3.332   4.495  11.411 -0.7214  0.0218  0.0451
 2383TIP3    H128564   3.253   4.541  11.382 -0.8297 -0.9085 -1.1306
 2383TIP3    H228565   3.311   4.468  11.501 -1.6991 -0.1177 -0.2164
 2384TIP3   OH228566   6.730   2.091  13.408 -0.1216  0.3145  0.3247
 2384TIP3    H128567   6.711   2.042  13.488  2.0642 -0.9019  0.1316
 2384TIP3    H228568   6.729   2.025  13.339 -3.6389  1.6072 -0.9649
 2385TIP3   OH228569   6.020   2.091   4.869 -0.1402  0.3396 -0.1870
 2385TIP3    H128570   6.038   2.169   4.921  2.0687  0.2888 -0.8463
 2385TIP3    H228571   6.068   2.104   4.788 -2.0958 -0.4105 -1.4995
 2386TIP3   OH228572   6.289   2.887   2.347 -0.2154 -0.4797  0.2775
 2386TIP3    H128573   6.211   2.833   2.337  0.5849 -1.5504 -0.3151
 2386TIP3    H228574   6.361   2.831   2.318  0.8761  0.2046  1.5964
 2387TIP3   OH228575   3.700   3.853   5.300 -0.3525 -0.2392  0.2750
 2387TIP3    H128576   3.675   3.761   5.297  0.1422 -0.3415 -1.2524
 2387TIP3    H228577   3.624   3.897   5.339 -0.1967 -1.4061  1.9087
 2388TIP3   OH228578   1.616   1.074   0.056 -0.1492  0.5433 -0.4601
 2388TIP3    H128579   1.704   1.104   0.078 -0.1027 -0.2650  0.4451
 2388TIP3    H228580   1.562   1.153   0.064  0.5662  1.1583 -1.5225
 2389TIP3   OH228581   1.393   4.979  14.142 -0.3646  0.1100 -0.0562
 2389TIP3    H128582   1.380   5.074  14.142 -0.6007  0.0780 -0.2683
 2389TIP3    H228583   1.484   4.968  14.116 -0.4651  0.2644 -0.4923
 2390TIP3   OH228584   4.119   6.733  16.112  0.1030 -0.2892  0.1340
 2390TIP3    H128585   4.157   6.711  16.197  2.6741 -0.6515 -1.0795
 2390TIP3    H228586   4.156   6.819  16.090 -1.4931  0.3721 -0.1012
 2391TIP3   OH228587   2.482   1.065  12.380 -0.1014  0.1100  0.6040
 2391TIP3    H128588   2.510   1.149  12.345 -0.2980 -0.5278 -1.0963
 2391TIP3    H228589   2.409   1.038  12.324 -1.2405 -0.3400  2.2529
 2392TIP3   OH228590   6.044   0.526  16.090 -0.2027  0.0057 -0.5601
 2392TIP3    H128591   6.067   0.447  16.041  0.4111 -0.5453  0.5906
 2392TIP3    H228592   5.948   0.526  16.092 -0.1896 -1.5043  0.6945
 2393TIP3   OH228593   4.638   0.573   3.941 -0.1470 -0.4889  0.3520
 2393TIP3    H128594   4.635   0.478   3.934  1.7239 -0.4526 -1.5778
 2393TIP3    H228595   4.731   0.594   3.941 -0.5285  1.2961  1.6578
 2394TIP3   OH228596   6.213   1.345   1.186 -0.2846 -0.4455 -0.2605
 2394TIP3    H128597   6.235   1.365   1.095  0.5078  0.2978  0.0925
 2394TIP3    H228598   6.175   1.426   1.220  2.2269  0.2558  0.9397
 2395TIP3   OH228599   6.521   3.374  12.749  0.3177 -0.6885 -0.4067
 2395TIP3    H128600   6.572   3.324  12.813 -0.0860  0.3351  0.7511
 2395TIP3    H228601   6.430   3.357  12.772  0.1698  2.0096  1.2034
 2396TIP3   OH228602   0.738   5.933  16.866 -0.8701 -0.1109  0.0755
 2396TIP3    H128603   0.777   5.926  16.953  2.1796  1.8641 -1.0628
 2396TIP3    H228604   0.788   5.871  16.812 -1.0266  0.5638 -0.8578
 2397TIP3   OH228605   6.550   4.860   4.032 -0.0714 -0.3901  0.8613
 2397TIP3    H128606   6.465   4.897   4.011  0.1482 -0.6125 -0.4851
 2397TIP3    H228607   6.531   4.789   4.093 -0.8914 -0.6117  0.3601
 2398TIP3   OH228608   6.419   3.298   5.609 -0.1470  0.4056  0.4959
 2398TIP3    H128609   6.371   3.255   5.680  0.4702 -2.1190 -0.5698
 2398TIP3    H228610   6.439   3.385   5.643  0.1155 -0.7437  3.3934
 2399TIP3   OH228611   4.506   6.312   1.893  0.2172 -0.2298 -0.0908
 2399TIP3    H128612   4.461   6.236   1.854 -0.1025  1.2184 -2.6860
 2399TIP3    H228613   4.582   6.325   1.836  0.3709  1.2794  0.4488
 2400TIP3   OH228614   2.303   1.181   2.935 -0.0492  0.5883  0.3566
 2400TIP3    H128615   2.329   1.175   3.027  0.5360  1.3503  0.2530
 2400TIP3    H228616   2.351   1.257   2.902  0.2602 -0.0723 -0.7486
 2401TIP3   OH228617   2.402   2.335   5.721 -0.6785  0.0727 -0.3303
 2401TIP3    H128618   2.482   2.341   5.669 -0.3234 -1.5914 -0.0202
 2401TIP3    H228619   2.378   2.242   5.717 -2.0181  0.3737  0.4281
 2402TIP3   OH228620   2.021   3.117   5.424 -0.3541  0.7674  0.2165
 2402TIP3    H128621   2.029   3.060   5.501  0.5957  0.3133 -0.2038
 2402TIP3    H228622   1.972   3.193   5.455 -2.3032 -0.6140  0.5928
 2403TIP3   OH228623   2.604   6.018  15.337  0.2167  0.0035 -0.3399
 2403TIP3    H128624   2.619   6.011  15.242  2.9696  1.8272 -0.0792
 2403TIP3    H228625   2.635   5.935  15.372 -0.9826 -0.7590 -1.0193
 2404TIP3   OH228626   4.509   5.677  15.055  0.1333 -0.3109  0.3840
 2404TIP3    H128627   4.599   5.694  15.082  0.2566 -0.3060 -0.0368
 2404TIP3    H228628   4.514   5.661  14.961 -0.0570 -2.0698  0.6516
 2405TIP3   OH228629   2.260   3.352  12.239  0.3968  0.2637 -0.3102
 2405TIP3    H128630   2.167   3.350  12.219  0.6460  0.2626 -1.5178
 2405TIP3    H228631   2.296   3.421  12.184  1.0873  0.3566  0.2408
 2406TIP3   OH228632   6.330   6.378   3.841  0.1478 -0.2686  0.3908
 2406TIP3    H128633   6.409   6.330   3.815 -0.3609 -0.7289 -0.3369
 2406TIP3    H228634   6.335   6.460   3.793 -0.1582 -0.5849 -0.1804
 2407TIP3   OH228635   6.625   6.767   0.913 -0.1368  0.3254 -0.5210
 2407TIP3    H128636   6.587   6.680   0.922 -0.5825  0.4367 -1.3070
 2407TIP3    H228637   6.604   6.794   0.824 -0.8250  1.6345  0.0274
 2408TIP3   OH228638   4.439   2.211  11.398  0.4018  0.5429 -0.1396
 2408TIP3    H128639   4.489   2.187  11.320  0.3342  0.0381 -0.0342
 2408TIP3    H228640   4.427   2.305  11.391 -0.3608  0.3919 -1.2010
 2409TIP3   OH228641   4.565   3.549   1.269 -0.3947 -0.5293  0.0001
 2409TIP3    H128642   4.646   3.526   1.316 -0.8797 -2.2585  0.0318
 2409TIP3    H228643   4.589   3.546   1.177  0.0724  0.9648  0.0557
 2410TIP3   OH228644   4.460   3.623  17.014 -0.3463  0.4777  0.5086
 2410TIP3    H128645   4.471   3.637  17.108 -0.1060  1.4551  0.3323
 2410TIP3    H228646   4.516   3.547  16.995  1.4666  1.7262  0.7349
 2411TIP3   OH228647   4.729   4.874   6.038  0.1035 -0.0709  0.5344
 2411TIP3    H128648   4.666   4.865   5.967 -0.9959  1.2302  1.3175
 2411TIP3    H228649   4.805   4.916   5.997  0.4515 -1.5921 -0.3992
 2412TIP3   OH228650   4.805   3.908  15.206 -0.1534 -0.2734 -0.0175
 2412TIP3    H128651   4.768   3.953  15.281 -3.1375 -0.8006 -1.1320
 2412TIP3    H228652   4.793   3.815  15.225 -0.2660 -0.4265 -0.8146
 2413TIP3   OH228653   1.729   5.653  14.535 -0.0407 -0.2452 -0.4587
 2413TIP3    H128654   1.717   5.581  14.597  1.9400 -0.8585 -0.7629
 2413TIP3    H228655   1.820   5.647  14.507  0.0032  2.0118 -0.9664
 2414TIP3   OH228656   4.618   2.107   1.228  0.2303 -0.2544 -0.3953
 2414TIP3    H128657   4.588   2.197   1.233 -0.2343 -0.3434 -1.4258
 2414TIP3    H228658   4.545   2.059   1.190  0.8633 -0.8679 -0.8587
 2415TIP3   OH228659   0.828   3.377  13.895 -0.0681  0.5523  0.1136
 2415TIP3    H128660   0.797   3.320  13.825 -2.1044  2.3559 -0.4908
 2415TIP3    H228661   0.849   3.317  13.967 -0.8225 -1.0776 -0.9914
 2416TIP3   OH228662   3.581   6.781   5.684 -0.1988  0.2986 -0.0868
 2416TIP3    H128663   3.538   6.855   5.640 -0.0190  0.2002 -0.4366
 2416TIP3    H228664   3.610   6.725   5.612  1.1548  0.7243  0.0985
 2417TIP3   OH228665   3.096   1.066  13.232 -0.3964  0.2578 -0.8703
 2417TIP3    H128666   3.028   1.009  13.270 -0.3240  1.8141  1.7252
 2417TIP3    H228667   3.176   1.013  13.236 -0.9150 -0.5832 -1.3846
 2418TIP3   OH228668   1.899   6.755  15.700  0.5847 -0.0625 -0.6327
 2418TIP3    H128669   1.864   6.763  15.789  0.7811  1.2260 -0.6660
 2418TIP3    H228670   1.922   6.844  15.675  1.8731 -0.6015 -1.4303
 2419TIP3   OH228671   0.622   1.849  10.849  0.1569  0.3401  0.1309
 2419TIP3    H128672   0.690   1.795  10.888 -0.2878  0.3440  0.9132
 2419TIP3    H228673   0.670   1.910  10.792  0.7255 -0.2707 -0.0534
 2420TIP3   OH228674   3.411   4.656   0.624  0.4092  0.4934  0.0451
 2420TIP3    H128675   3.401   4.566   0.653  0.2958  0.7566  0.8240
 2420TIP3    H228676   3.339   4.704   0.665 -0.3431  0.6782 -1.4681
 2421TIP3   OH228677   4.856   4.286  14.744  0.3318 -0.3967  0.4999
 2421TIP3    H128678   4.880   4.378  14.753 -1.4738  0.1814 -0.1860
 2421TIP3    H228679   4.762   4.284  14.764  0.8250 -2.4809  2.8913
 2422TIP3   OH228680   1.867   3.525   5.593  0.1480  0.0338 -0.0397
 2422TIP3    H128681   1.811   3.535   5.516 -1.2168  0.6800  1.0242
 2422TIP3    H228682   1.844   3.438   5.627 -1.7893  1.1762  1.6302
 2423TIP3   OH228683   1.348   1.893  10.616  0.2902  0.1248 -0.1238
 2423TIP3    H128684   1.343   1.960  10.547 -0.5245 -1.2336 -1.4261
 2423TIP3    H228685   1.411   1.829  10.582  1.4653  0.4961  1.3534
 2424TIP3   OH228686   1.635   2.626  16.785 -0.0686 -0.3636 -0.2427
 2424TIP3    H128687   1.560   2.586  16.829  0.2068 -0.8924 -0.2466
 2424TIP3    H228688   1.597   2.697  16.734 -0.5944 -0.7209 -0.3603
 2425TIP3   OH228689   6.745   1.076   2.219  0.5346 -0.4505  0.2151
 2425TIP3    H128690   6.653   1.062   2.243  0.5492 -1.5368 -0.3762
 2425TIP3    H228691   6.750   1.051   2.127  1.3812 -0.1864  0.1902
 2426TIP3   OH228692   6.071   6.569  12.116  0.5010 -0.4799  0.0852
 2426TIP3    H128693   6.041   6.533  12.032 -0.9665 -0.6942  0.6776
 2426TIP3    H228694   5.998   6.553  12.176  1.1155  0.6152  1.1454
 2427TIP3   OH228695   4.086   4.432   3.579  0.1020 -0.2895 -0.5193
 2427TIP3    H128696   4.001   4.474   3.566 -0.1813 -0.9568 -0.8163
 2427TIP3    H228697   4.141   4.501   3.616 -0.0779  0.6267 -1.9179
 2428TIP3   OH228698   1.996   6.326  16.079  0.5364 -0.0384 -0.2905
 2428TIP3    H128699   1.941   6.401  16.057  2.6440  1.7502  0.4627
 2428TIP3    H228700   2.048   6.310  16.001 -0.4017 -1.2182 -0.7045
 2429TIP3   OH228701   0.237   1.128   6.257 -0.0725  0.1167  0.2741
 2429TIP3    H128702   0.321   1.166   6.281 -0.4271  1.5181 -0.6684
 2429TIP3    H228703   0.175   1.164   6.320 -0.1404 -0.1726  0.3762
 2430TIP3   OH228704   2.815   5.791  12.300 -0.0282  0.1100  0.3429
 2430TIP3    H128705   2.748   5.770  12.236  0.3351 -0.2184  0.0701
 2430TIP3    H228706   2.771   5.784  12.385 -0.4008  0.1416  0.1494
 2431TIP3   OH228707   6.458   4.935  12.604  0.0085  0.2594 -0.0686
 2431TIP3    H128708   6.551   4.933  12.625 -0.1907 -0.6459  0.7344
 2431TIP3    H228709   6.455   4.923  12.509  0.7888  2.0456 -0.3434
 2432TIP3   OH228710   4.206   3.373  15.946 -0.2417 -0.7246  0.4907
 2432TIP3    H128711   4.249   3.329  16.019  1.9363  1.8057  0.7837
 2432TIP3    H228712   4.114   3.379  15.972  0.3148 -0.8145  2.5266
 2433TIP3   OH228713   5.979   2.312  12.827 -0.0621  1.1422  0.6523
 2433TIP3    H128714   5.969   2.235  12.884 -0.4953 -0.2966 -1.3221
 2433TIP3    H228715   6.025   2.376  12.881  1.0234 -0.7903  2.0762
 2434TIP3   OH228716   1.397   3.877  17.012 -0.1283  0.5198  0.8684
 2434TIP3    H128717   1.443   3.797  17.038 -0.5665 -0.1425 -0.3355
 2434TIP3    H228718   1.310   3.868  17.051  0.8885  1.9984  3.5529
 2435TIP3   OH228719   3.763   0.582   5.017  0.3073 -0.8638 -0.0676
 2435TIP3    H128720   3.813   0.504   4.992  0.5432  0.2898 -3.3606
 2435TIP3    H228721   3.682   0.575   4.968  1.3482  2.1557 -2.3589
 2436TIP3   OH228722   6.031   4.291   0.509  0.0523 -0.1155  0.3949
 2436TIP3    H128723   6.006   4.289   0.601 -0.7356  0.4422  0.2027
 2436TIP3    H228724   6.126   4.297   0.510  0.1974 -2.2092  1.1466
 2437TIP3   OH228725   5.743   4.156  11.916 -0.2356  1.1374  0.0247
 2437TIP3    H128726   5.837   4.140  11.930 -0.4048  0.8593  0.8860
 2437TIP3    H228727   5.700   4.100  11.980 -0.9945  1.3831 -0.2682
 2438TIP3   OH228728   5.996   6.338  11.186  0.1457  0.5059 -0.0989
 2438TIP3    H128729   6.053   6.414  11.200  0.3840  0.5085 -1.0096
 2438TIP3    H228730   6.040   6.289  11.116 -1.3108  0.8474 -1.2635
 2439TIP3   OH228731   5.537   6.346   5.695  0.0383  0.3589 -0.5011
 2439TIP3    H128732   5.593   6.270   5.712 -1.4030 -0.1566  2.3904
 2439TIP3    H228733   5.485   6.355   5.775 -2.7257  1.8984 -2.3671
 2440TIP3   OH228734   6.510   4.365   1.539 -0.1967  0.2650 -0.4481
 2440TIP3    H128735   6.472   4.324   1.617  0.3906  3.0928  1.3890
 2440TIP3    H228736   6.438   4.416   1.502 -0.3283 -0.6614 -1.4731
 2441TIP3   OH228737   2.706   3.684  13.904  0.1106  0.0649 -0.4822
 2441TIP3    H128738   2.733   3.618  13.840 -2.2799 -0.4858 -0.9884
 2441TIP3    H228739   2.736   3.650  13.988  1.3372 -0.2858 -1.0511
 2442TIP3   OH228740   2.917   0.799  12.881 -0.0633  0.1842  0.1480
 2442TIP3    H128741   2.920   0.706  12.857 -0.7878  0.1699  0.1103
 2442TIP3    H228742   2.950   0.844  12.803  0.3667 -0.0435  0.1956
 2443TIP3   OH228743   5.638   5.363  11.871 -0.4649 -0.5727 -0.2134
 2443TIP3    H128744   5.630   5.447  11.915  0.2785  0.6609 -2.3730
 2443TIP3    H228745   5.594   5.376  11.787 -0.6298 -2.4509 -0.4406
 2444TIP3   OH228746   6.496   0.044  17.038  0.3778 -0.5380  0.5958
 2444TIP3    H128747   6.529   0.097  16.965  1.4073 -0.8104  0.8469
 2444TIP3    H228748   6.459   0.108  17.099  1.9038 -0.0444  1.0427
 2445TIP3   OH228749   0.426   5.340  10.850 -0.2905 -0.0506  0.1058
 2445TIP3    H128750   0.449   5.248  10.860  0.2336  0.1216  0.4969
 2445TIP3    H228751   0.418   5.352  10.755  0.0405 -0.4015  0.0321
 2446TIP3   OH228752   5.703   3.677  10.604 -0.2800 -0.3316 -0.0099
 2446TIP3    H128753   5.620   3.707  10.641  0.3043 -1.5160  2.3781
 2446TIP3    H228754   5.731   3.747  10.546 -0.4015  2.4938  3.1782
 2447TIP3   OH228755   2.013   0.526  16.029  0.1290  0.0054  0.2987
 2447TIP3    H128756   1.929   0.490  16.000  0.4154 -0.1846 -0.3008
 2447TIP3    H228757   1.991   0.581  16.104 -0.4775 -0.3884  0.4136
 2448TIP3   OH228758   5.607   5.190   3.530  0.0281  0.6550  0.1744
 2448TIP3    H128759   5.571   5.266   3.576 -2.5452 -1.1545  1.2372
 2448TIP3    H228760   5.668   5.152   3.593  0.5239  1.1919  0.0331
 2449TIP3   OH228761   0.195   5.420   3.460  0.2487  0.1188 -0.1397
 2449TIP3    H128762   0.112   5.451   3.424 -0.1093  0.3029  0.8414
 2449TIP3    H228763   0.170   5.357   3.528  0.9176 -0.0273 -0.0249
 2450TIP3   OH228764   3.271   5.764  16.618 -0.4339  0.1908 -0.0499
 2450TIP3    H128765   3.197   5.740  16.562 -1.7067  1.1097  1.1888
 2450TIP3    H228766   3.301   5.848  16.582 -1.1706  0.7190  0.5482
 2451TIP3   OH228767   0.852   5.873  14.694  0.5435 -0.1952 -0.0397
 2451TIP3    H128768   0.827   5.964  14.709 -3.4419 -0.9455 -1.4834
 2451TIP3    H228769   0.849   5.864  14.599 -0.1068 -2.0529  0.1404
 2452TIP3   OH228770   2.213   3.351   2.831  0.2957  0.2378 -0.0640
 2452TIP3    H128771   2.181   3.275   2.783  0.8106 -1.2543  1.8939
 2452TIP3    H228772   2.137   3.408   2.840 -0.3010 -0.4373 -0.8006
 2453TIP3   OH228773   5.410   2.406  14.358 -0.0315  0.0249 -0.6911
 2453TIP3    H128774   5.474   2.477  14.355  0.0708 -0.0587 -0.4987
 2453TIP3    H228775   5.355   2.427  14.433  0.1233 -0.2032 -0.5113
 2454TIP3   OH228776   0.048   1.155   5.613 -0.0816  0.1440 -0.7575
 2454TIP3    H128777   0.007   1.068   5.611 -1.3776  0.7050  0.9358
 2454TIP3    H228778   0.142   1.136   5.621 -0.2703 -1.1063 -1.3104
 2455TIP3   OH228779   2.521   1.821   0.713  0.0453 -0.5318  0.1017
 2455TIP3    H128780   2.583   1.749   0.700  1.4495  0.3872  1.5092
 2455TIP3    H228781   2.575   1.895   0.742 -1.2559  1.3672 -2.1710
 2456TIP3   OH228782   3.214   2.423   5.714 -0.4526  0.0262 -0.3649
 2456TIP3    H128783   3.142   2.485   5.700 -2.0053 -2.1410 -2.5158
 2456TIP3    H228784   3.293   2.474   5.704 -1.7003  1.7278 -1.6868
 2457TIP3   OH228785   3.187   6.107  17.201  0.0235 -0.2226  0.1277
 2457TIP3    H128786   3.112   6.066  17.158  0.3454 -0.2416 -0.4309
 2457TIP3    H228787   3.151   6.148  17.279 -1.0496  2.0681 -1.5172
 2458TIP3   OH228788   2.582   4.564   5.348  0.5871  0.8078  0.0658
 2458TIP3    H128789   2.527   4.487   5.333  1.7609 -0.0771  0.2271
 2458TIP3    H228790   2.577   4.613   5.266  0.9341 -0.1525 -0.5449
 2459TIP3   OH228791   6.111   3.042  17.076  0.4908 -0.8232 -0.0739
 2459TIP3    H128792   6.081   3.021  16.987 -0.6202  1.7393 -0.3463
 2459TIP3    H228793   6.130   2.957  17.115  0.2873 -2.0488 -2.5134
 2460TIP3   OH228794   3.323   5.605   5.451  0.6969  0.3744  0.6347
 2460TIP3    H128795   3.353   5.672   5.513 -0.7275  1.5370  0.0857
 2460TIP3    H228796   3.373   5.622   5.371 -0.6753  1.6586  0.0503
 2461TIP3   OH228797   1.728   0.838   5.804 -0.3780  0.3076  0.1474
 2461TIP3    H128798   1.704   0.875   5.889 -0.9006  1.3887 -0.4615
 2461TIP3    H228799   1.805   0.888   5.777  0.8610 -1.2234  0.7842
 2462TIP3   OH228800   1.214   2.962  14.570  0.4774 -0.2184  0.0035
 2462TIP3    H128801   1.215   2.982  14.476  1.5526 -2.0785 -0.4046
 2462TIP3    H228802   1.306   2.961  14.595  0.2244 -0.4013  0.9351
 2463TIP3   OH228803   5.344   6.291  12.587 -0.4008 -0.0391  0.0196
 2463TIP3    H128804   5.318   6.371  12.540 -2.1978 -0.4582  0.2901
 2463TIP3    H228805   5.436   6.306  12.609 -0.7744  2.0588  0.2684
 2464TIP3   OH228806   4.367   1.185   0.784  0.2825  0.7089 -0.0382
 2464TIP3    H128807   4.396   1.215   0.870 -1.4745  2.2454  0.0431
 2464TIP3    H228808   4.383   1.259   0.725 -2.6020  1.3163 -0.1430
 2465TIP3   OH228809   4.451   4.910  13.577  0.0145 -0.0695  0.2020
 2465TIP3    H128810   4.496   4.916  13.661 -1.1033  1.0727  0.7453
 2465TIP3    H228811   4.515   4.872  13.517  1.1191 -0.0425  1.3573
 2466TIP3   OH228812   1.405   4.436  16.624  0.1235 -0.4478  0.1814
 2466TIP3    H128813   1.410   4.368  16.691  0.8019 -0.4790  0.1001
 2466TIP3    H228814   1.390   4.388  16.542  1.1691 -0.5522  0.0405
 2467TIP3   OH228815   5.466   5.731  14.325 -0.3534  0.1983 -0.4475
 2467TIP3    H128816   5.461   5.826  14.334 -1.5419  0.3283 -2.2762
 2467TIP3    H228817   5.517   5.717  14.245  0.6216 -0.7252  0.3192
 2468TIP3   OH228818   6.049   6.595   4.012 -0.2590 -0.1174 -0.0091
 2468TIP3    H128819   5.958   6.578   3.990 -0.1719  0.7671 -1.1266
 2468TIP3    H228820   6.051   6.599   4.108 -1.4349  0.0912  0.0073
 2469TIP3   OH228821   2.606   5.436  14.665  0.1761  0.2920  0.4720
 2469TIP3    H128822   2.635   5.520  14.628 -0.1971 -1.4152 -3.9403
 2469TIP3    H228823   2.677   5.411  14.725  0.8351  3.1910  0.9640
 2470TIP3   OH228824   5.487   5.388  15.899  1.0092  0.0990  0.2536
 2470TIP3    H128825   5.569   5.342  15.883  0.6276 -0.2618 -0.7097
 2470TIP3    H228826   5.424   5.346  15.840  0.9310  2.7194 -1.6109
 2471TIP3   OH228827   4.191   1.263  15.709  0.1204 -0.0264 -0.3970
 2471TIP3    H128828   4.264   1.201  15.705  0.3474  0.3217 -2.1732
 2471TIP3    H228829   4.120   1.218  15.662  0.4553  1.2568 -2.1721
 2472TIP3   OH228830   2.301   2.588  17.217 -0.1694 -0.3959 -0.0079
 2472TIP3    H128831   2.297   2.682  17.232  3.0352 -0.6241  2.7235
 2472TIP3    H228832   2.224   2.553  17.261  0.8383  0.5786  2.6081
 2473TIP3   OH228833   1.841   0.296   1.255 -0.5795  0.1484 -0.0982
 2473TIP3    H128834   1.775   0.237   1.290  0.2519 -0.9132 -0.3079
 2473TIP3    H228835   1.796   0.341   1.183 -0.4183 -2.2223 -1.7447
 2474TIP3   OH228836   0.036   2.547  16.270  0.0738 -0.4343 -0.7612
 2474TIP3    H128837   0.007   2.527  16.182 -1.3120  1.4947 -0.7577
 2474TIP3    H228838  -0.044   2.546  16.323  0.6852 -0.0131  0.1865
 2475TIP3   OH228839   4.145   2.935   1.546 -0.0818  0.1373  0.4812
 2475TIP3    H128840   4.220   2.983   1.513 -0.4785  2.3532  2.6488
 2475TIP3    H228841   4.069   2.982   1.512 -0.5371 -1.6957 -1.1466
 2476TIP3   OH228842   3.785   4.947   2.064 -0.2388  0.1536  0.1913
 2476TIP3    H128843   3.757   4.865   2.106  0.4909 -0.1652  0.0648
 2476TIP3    H228844   3.710   4.973   2.011 -0.4571 -0.4667  0.1855
 2477TIP3   OH228845   3.618   0.049   3.506  0.0371  0.3180 -0.9600
 2477TIP3    H128846   3.599   0.021   3.595 -0.4971  0.7609 -0.9340
 2477TIP3    H228847   3.667  -0.024   3.468  2.3248  1.0805  0.4211
 2478TIP3   OH228848   3.047   2.784  15.062  0.3086 -0.1645 -0.0628
 2478TIP3    H128849   3.102   2.707  15.078  0.1977 -0.1699  0.3199
 2478TIP3    H228850   3.073   2.846  15.130 -1.6157 -0.9568  1.4492
 2479TIP3   OH228851   0.658   2.603   1.999  0.3253  0.0330 -0.2367
 2479TIP3    H128852   0.742   2.580   1.959 -0.2261 -0.4430 -1.1409
 2479TIP3    H228853   0.643   2.534   2.063  0.1979 -0.3769 -0.7056
 2480TIP3   OH228854   5.824   3.115   0.850 -0.1888  0.0882 -0.0807
 2480TIP3    H128855   5.790   3.117   0.939  0.5223 -0.7028  0.2218
 2480TIP3    H228856   5.918   3.127   0.859 -0.2038  0.7958 -0.7915
 2481TIP3   OH228857   3.046   1.152   5.252 -0.2280 -0.6626  0.1954
 2481TIP3    H128858   3.109   1.146   5.181 -2.1554 -3.2761 -1.3784
 2481TIP3    H228859   3.049   1.067   5.295 -0.8427  0.0595  1.7273
 2482TIP3   OH228860   5.877   0.928  12.933 -0.2074 -0.1936 -0.0411
 2482TIP3    H128861   5.921   0.846  12.955  0.5989  0.0578 -0.6645
 2482TIP3    H228862   5.835   0.956  13.014  1.5115  0.0024  0.7931
 2483TIP3   OH228863   3.699   5.476   4.114  0.5070 -0.1057 -0.0354
 2483TIP3    H128864   3.715   5.461   4.021  0.1698  0.5520 -0.1987
 2483TIP3    H228865   3.723   5.393   4.156  1.4127 -0.1477 -0.6164
 2484TIP3   OH228866   2.368   4.836   0.258 -0.2628  0.6386 -0.2691
 2484TIP3    H128867   2.275   4.852   0.241 -0.4205  0.7171  0.6451
 2484TIP3    H228868   2.413   4.910   0.218 -0.6249  0.8338 -0.3161
 2485TIP3   OH228869   2.843   2.317   5.450  0.2688 -0.0892  0.1704
 2485TIP3    H128870   2.798   2.289   5.370 -0.7709 -0.9922  1.0604
 2485TIP3    H228871   2.890   2.239   5.479  1.8179  0.6369 -0.3308
 2486TIP3   OH228872   3.769   5.493  14.774  0.0467 -0.5277 -0.7897
 2486TIP3    H128873   3.767   5.508  14.680 -0.9459 -0.7429 -0.8032
 2486TIP3    H228874   3.690   5.441  14.792  0.7931 -1.4107 -0.0021
 2487TIP3   OH228875   1.138   6.025   5.029 -0.0367 -0.0223 -0.0417
 2487TIP3    H128876   1.196   6.101   5.022 -0.6773  0.3265 -1.9199
 2487TIP3    H228877   1.064   6.056   5.082 -0.1314  0.5521 -0.5100
 2488TIP3   OH228878   5.087   4.453  17.024  0.3831  0.1069 -0.3530
 2488TIP3    H128879   5.145   4.391  17.068  0.1573 -0.4806 -0.8963
 2488TIP3    H228880   5.146   4.523  16.993  0.9088 -0.8618 -1.5758
 2489TIP3   OH228881   5.401   1.281   5.903 -0.0757 -0.2529  0.1695
 2489TIP3    H128882   5.351   1.245   5.976 -2.0043 -0.3246 -1.1601
 2489TIP3    H228883   5.413   1.207   5.843 -1.3733  0.5614 -1.1206
 2490TIP3   OH228884   1.869   5.314  12.466  0.1391 -0.2757  0.1613
 2490TIP3    H128885   1.919   5.254  12.520 -0.0255 -0.4908  0.0770
 2490TIP3    H228886   1.934   5.375  12.430  0.2938 -0.3501  0.3161
 2491TIP3   OH228887   0.915   1.144   3.209  0.1618  0.6833 -0.0465
 2491TIP3    H128888   0.998   1.096   3.218 -1.0776 -1.5170  0.1006
 2491TIP3    H228889   0.899   1.181   3.296 -1.0683 -2.4267  1.1087
 2492TIP3   OH228890   4.935   4.440  11.162 -0.0875 -0.2608 -0.6916
 2492TIP3    H128891   4.877   4.496  11.110 -0.8321 -0.5406 -0.1720
 2492TIP3    H228892   4.910   4.351  11.139 -0.1366 -0.3845 -0.1723
 2493TIP3   OH228893   5.851   1.532   4.221  0.2062  0.5637 -0.0508
 2493TIP3    H128894   5.941   1.517   4.191 -1.1141 -2.5782 -2.5932
 2493TIP3    H228895   5.839   1.470   4.293  0.0388  1.0309  0.3328
 2494TIP3   OH228896   4.567   1.773   6.058 -0.0995 -0.1103  0.0620
 2494TIP3    H128897   4.635   1.826   6.100 -0.7588 -1.3997  2.8340
 2494TIP3    H228898   4.488   1.789   6.111 -1.1347 -1.2370 -1.1092
 2495TIP3   OH228899   0.819   4.428   0.600 -0.1875 -0.4106  0.1773
 2495TIP3    H128900   0.810   4.461   0.690 -0.5281 -1.8950  0.6909
 2495TIP3    H228901   0.757   4.481   0.549  0.0585  0.4856  0.7866
 2496TIP3   OH228902   1.215   1.228  13.150 -0.2726  0.0139 -0.1664
 2496TIP3    H128903   1.135   1.280  13.154 -0.0168  0.3152  1.2887
 2496TIP3    H228904   1.185   1.138  13.141 -0.7320  0.3142 -1.8611
 2497TIP3   OH228905   5.985   3.901   4.547 -0.0362 -0.5718  0.1914
 2497TIP3    H128906   6.012   3.831   4.607 -0.4399  0.8738  2.0914
 2497TIP3    H228907   5.984   3.980   4.601 -1.0235  0.6564 -1.5800
 2498TIP3   OH228908   0.851   3.827   1.290 -0.6030  0.0132 -0.2305
 2498TIP3    H128909   0.889   3.741   1.310 -0.5790  0.1602  0.3665
 2498TIP3    H228910   0.918   3.890   1.316 -1.6762  0.3306  1.9270
 2499TIP3   OH228911   4.890   2.371   3.991  0.3758  0.7306  0.0045
 2499TIP3    H128912   4.977   2.376   3.953  1.3571  0.1387  2.1078
 2499TIP3    H228913   4.899   2.412   4.077 -1.7568  1.9439 -0.3136
 2500TIP3   OH228914   4.508   0.650  14.589 -0.3206  0.0596 -0.4560
 2500TIP3    H128915   4.435   0.640  14.649 -1.4832  0.0492 -1.8472
 2500TIP3    H228916   4.584   0.665  14.645 -1.0270 -1.9960  1.0655
 2501TIP3   OH228917   0.625   1.528   4.940  0.0346 -0.0279 -0.2849
 2501TIP3    H128918   0.647   1.584   4.866 -1.8102  0.7706 -0.2668
 2501TIP3    H228919   0.616   1.441   4.903  0.2807  0.1597 -0.7871
 2502TIP3   OH228920   2.083   3.783  13.239  0.0737 -0.0475 -0.1066
 2502TIP3    H128921   2.052   3.851  13.298 -1.1601 -1.7055  1.1941
 2502TIP3    H228922   2.083   3.825  13.152 -1.5237  1.3319  0.5336
 2503TIP3   OH228923   5.309   0.094  10.689  0.3993  0.0759 -0.3624
 2503TIP3    H128924   5.222   0.125  10.665 -0.7859 -1.0926  2.2302
 2503TIP3    H228925   5.330   0.027  10.624 -2.1358 -2.0388  0.8822
 2504TIP3   OH228926   5.053   0.684   0.914 -0.5395  0.0660 -0.0694
 2504TIP3    H128927   5.081   0.638   0.836 -0.6489 -1.8441  0.9883
 2504TIP3    H228928   5.133   0.697   0.965 -0.5183  1.0115 -0.3322
 2505TIP3   OH228929   2.089   3.154  11.535 -0.3421  0.3422 -0.3845
 2505TIP3    H128930   2.144   3.182  11.609  1.8581 -0.0036 -1.8502
 2505TIP3    H228931   2.143   3.090  11.488 -2.3832 -0.7244 -1.3565
 2506TIP3   OH228932   0.209   3.356  16.921 -0.4181  0.1710 -0.1483
 2506TIP3    H128933   0.119   3.377  16.949 -0.8276 -0.0285 -1.2927
 2506TIP3    H228934   0.247   3.311  16.996 -1.5204 -0.4112  0.0770
 2507TIP3   OH228935   3.765   0.759   2.909  0.3609 -0.9915 -0.4142
 2507TIP3    H128936   3.687   0.813   2.924  1.7901  0.7743  0.8465
 2507TIP3    H228937   3.786   0.772   2.817  0.3488  0.1627 -0.2621
 2508TIP3   OH228938   3.384   2.426   0.475 -0.7773  0.4561 -0.0902
 2508TIP3    H128939   3.310   2.479   0.444  0.2161  2.2867  0.5753
 2508TIP3    H228940   3.400   2.457   0.564  1.1376  0.4744 -0.4140
 2509TIP3   OH228941   6.646   2.647  14.530 -0.3813 -0.0021 -0.1945
 2509TIP3    H128942   6.691   2.658  14.446  0.6954 -0.1737  0.3552
 2509TIP3    H228943   6.692   2.706  14.590  1.1159 -2.4504  1.1237
 2510TIP3   OH228944   4.617   4.888  16.052 -0.6597 -0.1991  0.2616
 2510TIP3    H128945   4.587   4.955  16.115 -1.0460 -0.1562  0.0409
 2510TIP3    H228946   4.537   4.842  16.027 -0.3816 -0.7935  0.4647
 2511TIP3   OH228947   0.243   5.998  14.027  0.0262 -0.2445 -0.2465
 2511TIP3    H128948   0.160   6.013  14.072  0.2672  0.8712 -0.1561
 2511TIP3    H228949   0.218   5.957  13.944 -0.5807 -0.2556 -0.0636
 2512TIP3   OH228950   3.458   4.337  16.897  0.3003 -0.4089  0.1355
 2512TIP3    H128951   3.503   4.282  16.960  1.1718  0.3344  0.1851
 2512TIP3    H228952   3.463   4.425  16.934  3.1420  0.4801 -2.1692
 2513TIP3   OH228953   5.229   1.758   3.593  0.4454  0.4679 -0.9112
 2513TIP3    H128954   5.188   1.679   3.558  0.3136  0.0092  0.2547
 2513TIP3    H228955   5.283   1.727   3.665  0.2690  1.4696 -0.3408
 2514TIP3   OH228956   2.296   3.959   1.851  0.5255  0.1230  0.9018
 2514TIP3    H128957   2.260   4.000   1.930 -2.0433  1.7718 -1.0597
 2514TIP3    H228958   2.383   3.997   1.841 -0.1977  1.9332  1.4223
 2515TIP3   OH228959   0.017   0.009   1.118 -0.4120 -0.0158 -0.1801
 2515TIP3    H128960   0.020   0.104   1.128 -0.6902  0.1954 -1.8919
 2515TIP3    H228961  -0.064  -0.007   1.069  0.6300 -0.9555 -1.6293
 2516TIP3   OH228962   1.499   4.134  14.217  0.1560 -0.4889 -0.0178
 2516TIP3    H128963   1.455   4.050  14.233 -1.6436  0.3781 -0.3146
 2516TIP3    H228964   1.457   4.195  14.278 -0.1863  0.7213 -1.4411
 2517TIP3   OH228965   1.370   4.748   5.472 -0.3003  0.1790 -0.6964
 2517TIP3    H128966   1.318   4.706   5.403  0.9783  0.0625 -1.6022
 2517TIP3    H228967   1.420   4.816   5.426  1.7651 -0.9395 -0.1853
 2518TIP3   OH228968   1.629   1.444  11.918 -0.3130 -0.1265  0.1836
 2518TIP3    H128969   1.614   1.394  11.838 -0.7903 -0.5512  0.5340
 2518TIP3    H228970   1.687   1.389  11.971  0.1269  0.2202  0.0668
 2519TIP3   OH228971   0.866   6.549   1.766  0.2986  0.0543 -0.5402
 2519TIP3    H128972   0.807   6.606   1.717 -0.1353 -1.1526 -1.4369
 2519TIP3    H228973   0.836   6.461   1.747  0.3119 -0.4643  1.6586
 2520TIP3   OH228974   6.054   1.590   0.001 -0.3710 -0.5984 -0.2101
 2520TIP3    H128975   6.114   1.664   0.019  0.0725 -1.0253  0.0880
 2520TIP3    H228976   6.105   1.513   0.026 -0.7054 -1.0275 -0.8681
 2521TIP3   OH228977   3.708   0.334  11.210  0.1311  0.5817  0.4257
 2521TIP3    H128978   3.734   0.375  11.127 -4.6954 -1.8996 -2.5276
 2521TIP3    H228979   3.766   0.259  11.218  0.0978  0.3646 -1.1707
 2522TIP3   OH228980   6.568   6.266   3.760  0.2846  0.5248  0.2336
 2522TIP3    H128981   6.615   6.186   3.738 -1.4467 -1.5913  3.8684
 2522TIP3    H228982   6.636   6.323   3.798  1.0388 -0.2297  0.0411
 2523TIP3   OH228983   1.248   2.236  12.162  0.2250 -0.3323  0.1743
 2523TIP3    H128984   1.201   2.157  12.137 -0.5792  0.3643 -0.5387
 2523TIP3    H228985   1.341   2.210  12.159  0.1463 -0.4622 -2.9337
 2524TIP3   OH228986   0.794   4.962  15.776 -0.3554 -0.6970  0.1439
 2524TIP3    H128987   0.835   4.898  15.717 -3.2194 -1.7348 -0.8210
 2524TIP3    H228988   0.778   5.038  15.721  0.0159 -0.3826  0.4635
 2525TIP3   OH228989   4.698   5.329  14.783 -0.2899 -0.5532 -0.1564
 2525TIP3    H128990   4.701   5.234  14.779  0.6547 -0.6397  1.9314
 2525TIP3    H228991   4.745   5.358  14.704 -1.7471 -1.7768 -1.4988
 2526TIP3   OH228992   4.198   5.547  12.859  0.5842 -0.0443 -0.2617
 2526TIP3    H128993   4.292   5.557  12.846  0.5319 -0.2106 -0.7805
 2526TIP3    H228994   4.185   5.454  12.875  0.3934 -0.1832 -1.1950
 2527TIP3   OH228995   5.840   1.873  16.368 -0.4212 -0.1136 -0.0128
 2527TIP3    H128996   5.827   1.845  16.458  0.4604 -1.0698 -0.1827
 2527TIP3    H228997   5.864   1.966  16.375  0.7387 -0.4672  0.8120
 2528TIP3   OH228998   2.019   6.724  13.517 -0.8333 -0.5857  0.5875
 2528TIP3    H128999   2.025   6.801  13.574  0.6782  0.3425 -0.7968
 2528TIP3    H229000   1.934   6.732  13.474  0.8040  2.3539 -2.3507
 2529TIP3   OH229001   3.759   4.220  15.168  0.0574  0.4882  0.4651
 2529TIP3    H129002   3.825   4.212  15.099  0.2742 -1.8314  0.9047
 2529TIP3    H229003   3.691   4.275  15.130  1.1272  0.9346 -0.8540
 2530TIP3   OH229004   1.888   2.231  10.901 -0.3392  0.0478 -0.2008
 2530TIP3    H129005   1.864   2.167  10.834  0.7798  0.4335 -0.9859
 2530TIP3    H229006   1.873   2.185  10.984 -1.3950 -0.5543 -0.7093
 2531TIP3   OH229007   3.993   0.760   1.008 -0.2256 -0.0252 -0.5766
 2531TIP3    H129008   3.953   0.720   0.930  0.4546 -0.3679 -0.7531
 2531TIP3    H229009   4.082   0.782   0.980 -0.4938  1.3522 -0.3927
 2532TIP3   OH229010   2.439   2.068  15.616 -0.6315 -0.5423 -0.3810
 2532TIP3    H129011   2.385   2.086  15.694 -2.0014  0.5069 -1.5347
 2532TIP3    H229012   2.462   1.976  15.624  0.1459 -0.1970  1.8105
 2533TIP3   OH229013   2.893   4.852   2.805 -0.2658  0.6390  0.2880
 2533TIP3    H129014   2.894   4.948   2.803 -0.4419  0.6328 -1.1750
 2533TIP3    H229015   2.819   4.828   2.749 -0.5712 -0.3506  1.0978
 2534TIP3   OH229016   4.865   0.660  14.452  0.0366 -0.4743 -0.7183
 2534TIP3    H129017   4.865   0.573  14.493  1.7773  0.1578  0.6505
 2534TIP3    H229018   4.926   0.711  14.504 -1.6685  1.8696 -0.9400
 2535TIP3   OH229019   4.088   2.293   1.660 -0.4042  0.0746  0.3198
 2535TIP3    H129020   4.029   2.345   1.607 -1.0204 -3.3970 -2.5969
 2535TIP3    H229021   4.168   2.286   1.608 -0.6877 -2.6293  0.1609
 2536TIP3   OH229022   4.786   4.564   4.453 -0.0021  0.3383 -0.0287
 2536TIP3    H129023   4.757   4.606   4.372 -1.5486 -0.5440  0.0426
 2536TIP3    H229024   4.851   4.623   4.489  1.1992  0.4190 -2.2571
 2537TIP3   OH229025   2.930   2.075  12.788 -0.4022 -0.1415 -0.0374
 2537TIP3    H129026   2.846   2.035  12.768  0.3188 -1.2310 -0.9194
 2537TIP3    H229027   2.909   2.144  12.851 -1.7150 -1.5166  1.0493
 2538TIP3   OH229028   1.791   1.006  12.156  0.6410 -0.0276 -0.3345
 2538TIP3    H129029   1.698   0.991  12.172  0.3126  1.1846 -1.0122
 2538TIP3    H229030   1.835   0.957  12.225 -0.5835  1.3875  1.5014
 2539TIP3   OH229031   2.904   0.368   6.120 -0.2229 -0.6678  0.5574
 2539TIP3    H129032   2.904   0.300   6.187  0.5270 -0.2901  0.9505
 2539TIP3    H229033   2.940   0.325   6.043  0.8517 -0.5567  0.9859
 2540TIP3   OH229034   2.792   3.482  16.020  0.7927 -0.2616 -0.1887
 2540TIP3    H129035   2.717   3.435  16.058  1.3238 -1.9506 -1.1656
 2540TIP3    H229036   2.864   3.465  16.080  1.2584 -1.6664 -1.1129
 2541TIP3   OH229037   3.772   5.847  12.094  0.0444  0.1797  0.7118
 2541TIP3    H129038   3.848   5.799  12.128  1.4453 -0.1636 -2.6448
 2541TIP3    H229039   3.803   5.937  12.085  0.4268 -0.1253 -1.4845
 2542TIP3   OH229040   6.350   3.737  15.646  0.8167 -0.0651 -0.2527
 2542TIP3    H129041   6.406   3.729  15.568  0.1113  1.1333 -0.8907
 2542TIP3    H229042   6.288   3.806  15.624 -1.6771 -2.1474  0.0076
 2543TIP3   OH229043   0.691   1.326   2.258 -0.2452  0.0152 -0.4934
 2543TIP3    H129044   0.780   1.313   2.225 -0.1946  0.7257 -0.6250
 2543TIP3    H229045   0.695   1.296   2.349  0.0452 -0.2599 -0.5939
 2544TIP3   OH229046   5.423   2.538   6.110 -0.1505  0.1419  0.1848
 2544TIP3    H129047   5.372   2.543   6.191  1.6641  1.2185  1.3061
 2544TIP3    H229048   5.370   2.484   6.051 -1.6810 -0.3345  1.9537
 2545TIP3   OH229049   1.957   1.070   5.807 -0.1416  0.0110 -0.2282
 2545TIP3    H129050   1.992   1.091   5.893  0.5962 -1.6046 -0.1147
 2545TIP3    H229051   1.864   1.094   5.812 -0.3441 -1.0366  1.3673
 2546TIP3   OH229052   5.856   2.893  13.294  0.1897  0.4659 -0.0940
 2546TIP3    H129053   5.904   2.841  13.230  0.0001  1.0187 -0.6890
 2546TIP3    H229054   5.846   2.979  13.253 -0.9539  0.4740  0.1909
 2547TIP3   OH229055   3.673   3.977   3.946 -0.1417  0.0474 -0.1296
 2547TIP3    H129056   3.638   3.986   3.857 -1.6312 -1.8018  0.2385
 2547TIP3    H229057   3.612   4.026   4.001  1.2857  1.9766 -0.1851
 2548TIP3   OH229058   4.469   4.027   0.898 -0.1521 -0.4149 -0.4012
 2548TIP3    H129059   4.498   4.085   0.828 -2.5237  0.5794 -0.6211
 2548TIP3    H229060   4.549   3.986   0.931  1.3700  1.6576 -1.4359
 2549TIP3   OH229061   3.020   0.306  16.362  0.0510 -0.3940 -0.8194
 2549TIP3    H129062   3.097   0.253  16.337  0.4908 -0.2473  0.1985
 2549TIP3    H229063   3.007   0.286  16.455 -0.5194  0.3717 -0.7350
 2550TIP3   OH229064   0.172   2.829  14.733 -0.3391 -0.2743 -0.5377
 2550TIP3    H129065   0.219   2.823  14.816 -1.7615  0.7859  0.3672
 2550TIP3    H229066   0.238   2.811  14.667  1.0283 -0.1917  0.7690
 2551TIP3   OH229067   0.070   1.353   1.878  0.0284 -0.1154  0.2089
 2551TIP3    H129068   0.123   1.310   1.945 -0.2899  0.6578  0.9684
 2551TIP3    H229069   0.051   1.284   1.814 -0.3271 -1.0561  1.3143
 2552TIP3   OH229070   3.814   6.149  13.110 -0.1459 -0.0313 -0.0125
 2552TIP3    H129071   3.805   6.187  13.023 -0.2997 -0.9086 -0.3844
 2552TIP3    H229072   3.770   6.211  13.168 -0.5314  0.2797 -0.6364
 2553TIP3   OH229073   6.329   3.333  11.957  0.7680  0.4024 -0.3410
 2553TIP3    H129074   6.241   3.370  11.949  0.1016 -1.2627 -0.7078
 2553TIP3    H229075   6.339   3.277  11.880  1.3337 -1.0791  0.7948
 2554TIP3   OH229076   6.232   0.013   6.229  0.2699  0.3001 -0.0631
 2554TIP3    H129077   6.299  -0.030   6.175  1.4244  1.9719 -0.0257
 2554TIP3    H229078   6.282   0.063   6.293 -1.0452  0.9501  0.4707
 2555TIP3   OH229079   5.385   1.779  16.975  0.6199 -0.4666  0.1081
 2555TIP3    H129080   5.386   1.708  16.911  2.0304  0.6263 -1.1108
 2555TIP3    H229081   5.350   1.739  17.055 -1.4616 -1.7736 -1.4112
 2556TIP3   OH229082   3.368   5.113  14.819 -0.4607 -0.7505 -0.2856
 2556TIP3    H129083   3.454   5.107  14.860 -0.6269 -0.5741  0.1006
 2556TIP3    H229084   3.312   5.149  14.888 -1.1210 -2.0442 -0.1282
 2557TIP3   OH229085   3.282   5.092  12.715 -0.1278 -0.3527  0.0748
 2557TIP3    H129086   3.361   5.046  12.741 -1.4044 -2.0952  0.9540
 2557TIP3    H229087   3.290   5.103  12.620  1.7960  0.7347  0.3467
 2558TIP3   OH229088   0.759   3.865  16.694  0.0364 -0.0068  0.0876
 2558TIP3    H129089   0.789   3.810  16.621 -0.4796 -0.9760  0.5926
 2558TIP3    H229090   0.790   3.953  16.673 -1.0375 -0.0764 -1.8220
 2559TIP3   OH229091   6.479   5.272  15.431 -0.0221  0.0579  0.2333
 2559TIP3    H129092   6.484   5.177  15.440 -1.4234 -0.2299 -1.7775
 2559TIP3    H229093   6.466   5.287  15.338  4.7191  2.4318 -0.2218
 2560TIP3   OH229094   5.948   2.266  15.171  0.6228  0.2455 -0.3901
 2560TIP3    H129095   5.862   2.304  15.189 -0.1338 -0.9796 -1.3445
 2560TIP3    H229096   5.938   2.174  15.195  0.9954 -0.3879 -2.5611
 2561TIP3   OH229097   2.482   6.584  11.390 -0.0763  0.5498  0.4079
 2561TIP3    H129098   2.447   6.632  11.314 -1.3681  0.4435  0.9251
 2561TIP3    H229099   2.424   6.608  11.462  0.3323 -0.4195  1.0668
 2562TIP3   OH229100   3.051   0.707  12.581  0.4715 -0.4330  0.0514
 2562TIP3    H129101   3.083   0.692  12.492  1.0360  0.1538  0.1472
 2562TIP3    H229102   3.040   0.802  12.587 -0.0505 -0.5178  0.4450
 2563TIP3   OH229103   2.750   1.973   4.846 -0.0380 -0.1205 -0.1977
 2563TIP3    H129104   2.814   2.045   4.842  0.9798 -0.9808  0.1784
 2563TIP3    H229105   2.670   2.010   4.811  0.9205  0.7366 -1.5364
 2564TIP3   OH229106   3.220   6.666  13.029  0.3897 -0.0583  0.2854
 2564TIP3    H129107   3.186   6.707  12.949  0.2420 -0.3677  0.1903
 2564TIP3    H229108   3.150   6.677  13.093 -0.2729 -1.5236 -0.1751
 2565TIP3   OH229109   4.137   3.265  10.825 -0.8754 -0.2028 -0.0285
 2565TIP3    H129110   4.116   3.340  10.769  2.1009 -0.1857 -1.2103
 2565TIP3    H229111   4.142   3.301  10.913  0.5989  1.0595 -0.6015
 2566TIP3   OH229112   6.747   1.815  11.273  0.6140  0.6348  0.0282
 2566TIP3    H129113   6.815   1.776  11.328 -0.7537 -1.7546  0.1046
 2566TIP3    H229114   6.744   1.759  11.195 -0.7097  1.1750 -0.3313
 2567TIP3   OH229115   5.847   4.255  11.084  0.2029  0.2974  0.0734
 2567TIP3    H129116   5.816   4.328  11.138 -2.3887 -0.2429 -0.6351
 2567TIP3    H229117   5.802   4.266  11.000  2.4629 -0.1623 -1.2662
 2568TIP3   OH229118   0.297   3.433   1.657 -0.0900 -0.5989  0.3130
 2568TIP3    H129119   0.279   3.524   1.634 -1.2311 -0.9652 -0.2624
 2568TIP3    H229120   0.216   3.401   1.694  1.0097 -0.7188  2.7041
 2569TIP3   OH229121   0.880   3.205  16.210 -0.0591 -0.0244 -0.9992
 2569TIP3    H129122   0.832   3.204  16.127  0.3301  0.6135 -1.2293
 2569TIP3    H229123   0.953   3.145  16.196  0.1757  0.3108 -1.2219
 2570TIP3   OH229124   4.253   1.997  16.897 -0.1948  0.0611 -0.2848
 2570TIP3    H129125   4.259   2.057  16.971 -2.1209 -0.4459  0.3196
 2570TIP3    H229126   4.160   1.973  16.893 -0.0100 -0.3930 -2.4922
 2571TIP3   OH229127   4.984   5.662   1.602 -0.5409  0.7000  0.1244
 2571TIP3    H129128   4.920   5.623   1.661 -0.4561 -0.2004 -0.3676
 2571TIP3    H229129   5.055   5.597   1.597 -1.9634 -0.6982 -3.3898
 2572TIP3   OH229130   0.341   1.354  16.129  0.5598  0.5500  0.1093
 2572TIP3    H129131   0.290   1.311  16.060  2.0025  0.9517 -1.2511
 2572TIP3    H229132   0.276   1.390  16.189 -0.7913  2.2300 -2.3004
 2573TIP3   OH229133   0.214   1.341  11.446 -0.0297 -0.1649  0.3174
 2573TIP3    H129134   0.262   1.326  11.527  0.2173 -0.3941  0.1289
 2573TIP3    H229135   0.281   1.350  11.379 -0.2322  0.0391  0.1381
 2574TIP3   OH229136   4.499   6.455  12.910  0.6143 -0.2463  0.2852
 2574TIP3    H129137   4.578   6.404  12.928 -0.4402 -1.5568  1.3355
 2574TIP3    H229138   4.472   6.488  12.996 -1.3058 -1.8140  0.3045
 2575TIP3   OH229139   1.832   3.417  15.084 -0.5108 -0.7658  0.0722
 2575TIP3    H129140   1.841   3.501  15.040  0.9960 -1.0156 -0.0974
 2575TIP3    H229141   1.828   3.353  15.014 -0.3605 -0.9640  0.2463
 2576TIP3   OH229142   0.191   2.993  11.808  0.4761 -0.5558 -0.2512
 2576TIP3    H129143   0.277   3.033  11.821  0.2149 -0.3694  0.9268
 2576TIP3    H229144   0.207   2.899  11.810  0.6426 -0.5208  0.0102
 2577TIP3   OH229145   0.387   3.522  15.592 -0.4434  0.3920  0.3189
 2577TIP3    H129146   0.479   3.547  15.585 -0.3138  1.0730  3.5649
 2577TIP3    H229147   0.380   3.481  15.678 -2.9673 -0.6938 -0.3594
 2578TIP3   OH229148   4.030   5.333  13.239  0.0648  0.5999 -0.1148
 2578TIP3    H129149   4.011   5.425  13.217 -2.7188  0.1374  0.1978
 2578TIP3    H229150   4.048   5.335  13.333  2.3266  1.1361 -0.5288
 2579TIP3   OH229151   3.691   6.603   4.466 -0.5951 -0.1161  0.5166
 2579TIP3    H129152   3.711   6.586   4.558  0.1192  0.3458  0.4513
 2579TIP3    H229153   3.729   6.690   4.449  2.6540 -1.8034 -1.2331
 2580TIP3   OH229154   5.365   4.032   4.081  0.0868  0.1810  0.2333
 2580TIP3    H129155   5.303   4.092   4.038  0.0872  0.5487  0.7391
 2580TIP3    H229156   5.318   3.949   4.086  0.8523 -0.4619 -2.3788
 2581TIP3   OH229157   3.367   1.434  12.645  0.8259  0.3381  0.3662
 2581TIP3    H129158   3.287   1.486  12.650 -2.2593 -4.1655  1.0180
 2581TIP3    H229159   3.396   1.424  12.736  0.0961 -0.9266  0.4720
 2582TIP3   OH229160   4.057   2.947   0.209 -0.2138  0.2815 -0.1516
 2582TIP3    H129161   4.036   2.854   0.202 -0.3703  0.3469 -0.6087
 2582TIP3    H229162   4.089   2.970   0.121 -1.2838  0.9304 -0.3842
 2583TIP3   OH229163   1.555   3.297  15.920  0.1725 -0.1291 -0.3516
 2583TIP3    H129164   1.515   3.210  15.918  1.1462 -0.5737 -0.6608
 2583TIP3    H229165   1.617   3.297  15.846 -0.0882  0.9526 -0.5799
 2584TIP3   OH229166   1.506   1.827  14.400 -0.5242 -0.0824  0.1588
 2584TIP3    H129167   1.448   1.765  14.443 -2.0273  0.6402 -0.7724
 2584TIP3    H229168   1.594   1.795  14.418 -1.2229 -1.3506  1.3615
 2585TIP3   OH229169   2.085   4.328   5.092 -0.1407  0.5680 -0.1497
 2585TIP3    H129170   1.996   4.295   5.080 -0.6886  2.5715 -2.0127
 2585TIP3    H229171   2.141   4.262   5.052 -0.8417 -0.4110  0.4733
 2586TIP3   OH229172   0.471   0.842   3.549 -0.1246  0.4614 -0.6916
 2586TIP3    H129173   0.454   0.750   3.570 -0.6742  0.9896  1.2748
 2586TIP3    H229174   0.438   0.852   3.460 -0.2421 -1.1899 -0.8588
 2587TIP3   OH229175   3.296   0.951  13.772 -0.2861  0.4988 -0.3167
 2587TIP3    H129176   3.380   0.906  13.786 -0.7570 -0.6887 -1.3107
 2587TIP3    H229177   3.262   0.915  13.691 -3.1579 -1.1443  1.5538
 2588TIP3   OH229178   4.984   6.329   2.757 -0.3459 -0.2207  0.2655
 2588TIP3    H129179   4.968   6.411   2.805 -2.3880 -0.0195 -0.7045
 2588TIP3    H229180   5.051   6.284   2.809  0.1482  1.6542  1.3027
 2589TIP3   OH229181   6.394   2.729   5.232  0.1491 -0.1812  0.1066
 2589TIP3    H129182   6.356   2.726   5.320  0.0992 -0.0428  0.0898
 2589TIP3    H229183   6.392   2.822   5.208  1.2791 -0.0662  0.4485
 2590TIP3   OH229184   4.808   1.589  16.898 -0.6118 -0.0614 -0.6592
 2590TIP3    H129185   4.888   1.629  16.934 -0.9876  1.0086 -0.9962
 2590TIP3    H229186   4.760   1.662  16.860 -2.1099 -0.5846  0.2012
 2591TIP3   OH229187   2.838   3.417  12.866 -0.0500  0.1689 -0.0181
 2591TIP3    H129188   2.803   3.329  12.881 -0.7514  0.2366 -1.2125
 2591TIP3    H229189   2.905   3.406  12.799  1.8249  0.1422  1.8093
 2592TIP3   OH229190   3.694   4.851   4.224 -0.2537 -0.0999  0.4667
 2592TIP3    H129191   3.643   4.895   4.292 -2.5011 -2.3776  0.3078
 2592TIP3    H229192   3.723   4.769   4.264 -0.6144 -0.9241 -0.9262
 2593TIP3   OH229193   2.052   1.062   3.193  0.0144 -0.1296  0.0331
 2593TIP3    H129194   2.003   1.006   3.253  0.7867 -0.3644  0.4488
 2593TIP3    H229195   2.144   1.041   3.210  0.2648  0.3540 -0.6941
 2594TIP3   OH229196   2.596   1.748   2.801 -0.1296  0.1110  0.5902
 2594TIP3    H129197   2.652   1.815   2.761  0.2800  0.3447  1.5582
 2594TIP3    H229198   2.650   1.669   2.800 -1.5435 -0.9200 -3.0052
 2595TIP3   OH229199   1.033   5.884   3.888 -0.2090  0.4571 -0.1337
 2595TIP3    H129200   0.990   5.898   3.973  0.7766 -1.9629  0.8412
 2595TIP3    H229201   1.127   5.882   3.910 -0.0339 -1.7868 -1.0046
 2596TIP3   OH229202   3.914   4.456  14.791  0.1959 -0.9392 -0.4018
 2596TIP3    H129203   3.950   4.490  14.709 -0.8015  1.0183 -0.0630
 2596TIP3    H229204   3.823   4.434  14.770  0.4152 -2.0621 -0.2328
 2597TIP3   OH229205   4.185   6.499  14.877  0.1967 -0.1875  0.2358
 2597TIP3    H129206   4.254   6.535  14.822 -0.5986 -1.9848 -2.0345
 2597TIP3    H229207   4.106   6.547  14.852 -0.3606 -1.6752 -0.9833
 2598TIP3   OH229208   0.225   2.539  15.114  0.1205 -0.0038  0.1987
 2598TIP3    H129209   0.152   2.486  15.081  1.2188 -1.4247  0.0136
 2598TIP3    H229210   0.184   2.605  15.170 -1.4794  0.3767 -1.3879
 2599TIP3   OH229211   2.535   3.017  14.344 -0.5618  0.2872 -0.1604
 2599TIP3    H129212   2.526   3.074  14.420  1.3461 -0.3403  0.5575
 2599TIP3    H229213   2.576   3.072  14.277 -0.0083  0.1631  0.0731
 2600TIP3   OH229214   5.206   0.395  13.943 -0.1107  0.2010 -0.1645
 2600TIP3    H129215   5.271   0.392  13.873 -0.8345  0.8113 -0.8736
 2600TIP3    H229216   5.137   0.451  13.909 -0.4268  0.5829  1.0876
 2601TIP3   OH229217   5.740   5.859  11.692  0.1255 -0.4505 -0.0916
 2601TIP3    H129218   5.808   5.924  11.674  0.6587  0.3927  4.3444
 2601TIP3    H229219   5.789   5.782  11.721 -0.6591 -1.1371 -0.6118
 2602TIP3   OH229220   3.415   5.961   0.216 -0.2989  0.1089 -0.0099
 2602TIP3    H129221   3.468   5.905   0.272 -0.4269  0.5514  0.5680
 2602TIP3    H229222   3.327   5.925   0.224 -0.0702 -0.6876 -1.0494
 2603TIP3   OH229223   6.061   5.447  14.765 -0.2334  0.5976 -0.1166
 2603TIP3    H129224   6.052   5.400  14.682 -0.5013  0.2437  0.1083
 2603TIP3    H229225   6.153   5.435  14.790 -0.3323  0.0768  0.0043
 2604TIP3   OH229226   3.015   2.325   2.961 -0.4347  0.7463 -0.2912
 2604TIP3    H129227   2.943   2.371   3.005 -0.0148  2.3411 -1.2502
 2604TIP3    H229228   3.093   2.351   3.009 -0.4750 -1.0414  0.7913
 2605TIP3   OH229229   1.617   4.155   1.113 -0.1596 -0.0391 -0.4998
 2605TIP3    H129230   1.684   4.096   1.079  1.0082  1.7180 -1.3300
 2605TIP3    H229231   1.631   4.156   1.208  0.8082  0.1097 -0.6445
 2606TIP3   OH229232   3.425   5.949   2.746 -0.4037 -0.0687 -0.4907
 2606TIP3    H129233   3.374   5.967   2.826  0.0767  0.0898 -0.2197
 2606TIP3    H229234   3.395   6.016   2.684 -1.2882 -0.6261 -0.6801
 2607TIP3   OH229235   2.445   1.176   2.299  0.3116 -0.3448  0.2331
 2607TIP3    H129236   2.359   1.210   2.325  0.5733 -1.4028  2.5912
 2607TIP3    H229237   2.426   1.118   2.225 -0.6270  1.6215 -1.1180
 2608TIP3   OH229238   5.421   0.716   4.057  0.2249 -0.4579 -0.2415
 2608TIP3    H129239   5.491   0.777   4.081 -2.0307  2.1541 -0.0714
 2608TIP3    H229240   5.396   0.741   3.968 -0.3304 -1.5342 -0.4050
 2609TIP3   OH229241   5.136   6.047   1.000  0.5535 -0.1607  0.2425
 2609TIP3    H129242   5.135   5.955   1.026  0.5006  0.0085  0.8525
 2609TIP3    H229243   5.065   6.055   0.936 -1.1406 -0.0022  2.1090
 2610TIP3   OH229244   1.012   4.425  12.363 -0.2234 -0.5978 -0.5594
 2610TIP3    H129245   1.080   4.471  12.413  0.5137 -1.3561 -0.8536
 2610TIP3    H229246   0.933   4.433  12.417 -0.8301  3.4628 -1.8842
 2611TIP3   OH229247   4.235   6.498   2.870  0.3829 -0.3135 -0.1720
 2611TIP3    H129248   4.307   6.439   2.847 -0.1515 -1.0586  0.0524
 2611TIP3    H229249   4.165   6.440   2.900 -0.1621  0.4350  0.0175
 2612TIP3   OH229250   1.040   1.258  15.395  0.1515  1.0583 -0.1486
 2612TIP3    H129251   1.013   1.174  15.357  1.3420  0.5279  0.1777
 2612TIP3    H229252   0.967   1.282  15.452 -0.9333  1.0612 -1.5033
 2613TIP3   OH229253   0.718   3.041   4.972 -0.8001  0.2760  0.3127
 2613TIP3    H129254   0.769   3.078   5.044 -0.4089  0.2739  0.0371
 2613TIP3    H229255   0.784   3.009   4.910 -1.1333 -0.7023  0.4591
 2614TIP3   OH229256   5.805   6.421   1.638 -0.4219  0.1925 -0.2314
 2614TIP3    H129257   5.734   6.434   1.701 -0.9535 -0.5971 -0.6520
 2614TIP3    H229258   5.879   6.390   1.691 -1.1700 -1.4309 -0.1036
 2615TIP3   OH229259   6.783   4.210  15.757  0.4021 -0.2450 -0.4322
 2615TIP3    H129260   6.861   4.155  15.765 -0.2268 -1.0915 -0.0744
 2615TIP3    H229261   6.713   4.150  15.733 -0.6414  0.1180  1.5436
 2616TIP3   OH229262   2.687   2.365  12.150  0.8250 -0.3437 -0.0231
 2616TIP3    H129263   2.734   2.304  12.093 -0.9347 -0.1565 -1.7161
 2616TIP3    H229264   2.617   2.312  12.189 -0.7761  0.5756 -1.5849
 2617TIP3   OH229265   5.936   6.514  17.170 -0.0003  0.2535 -0.4924
 2617TIP3    H129266   6.014   6.541  17.122 -0.0677  1.0204 -0.1700
 2617TIP3    H229267   5.895   6.596  17.198  0.4159 -0.2152  1.5020
 2618TIP3   OH229268   1.486   0.992   3.226  0.0038 -0.3509  0.4329
 2618TIP3    H129269   1.557   0.927   3.226 -0.6960 -1.1487  2.3014
 2618TIP3    H229270   1.413   0.947   3.269 -0.9348  1.2296  0.5116
 2619TIP3   OH229271   6.550   1.159  15.882  0.6967 -0.1613  0.4664
 2619TIP3    H129272   6.490   1.230  15.861 -1.1268 -2.4333 -2.4400
 2619TIP3    H229273   6.496   1.095  15.929  0.8397 -2.1160 -1.9425
 2620TIP3   OH229274   2.195   1.534   1.568 -0.4840  0.4403  0.0668
 2620TIP3    H129275   2.137   1.495   1.633 -1.5831  0.7732 -0.6968
 2620TIP3    H229276   2.254   1.590   1.619 -2.2803  1.8494  0.6333
 2621TIP3   OH229277   0.857   1.399  17.211  0.0894 -0.6146  0.6283
 2621TIP3    H129278   0.870   1.446  17.293 -0.6135 -0.8050  0.8543
 2621TIP3    H229279   0.911   1.446  17.147 -0.3093  0.2636  0.9308
 2622TIP3   OH229280   4.804   6.002  16.972  0.6286  0.6068  0.0147
 2622TIP3    H129281   4.853   6.081  16.997 -1.1182  1.7464 -0.0203
 2622TIP3    H229282   4.714   6.022  16.997  0.4788 -2.2687  2.0168
 2623TIP3   OH229283   4.788   3.377   4.619  0.1872 -0.9923 -0.0978
 2623TIP3    H129284   4.814   3.362   4.528  1.2846 -0.1297  0.0605
 2623TIP3    H229285   4.747   3.464   4.618  2.1277 -0.0393  0.5888
 2624TIP3   OH229286   2.637   3.344   6.168  0.0764  0.1091  0.0772
 2624TIP3    H129287   2.618   3.425   6.215 -1.7828 -1.0710  1.4340
 2624TIP3    H229288   2.696   3.296   6.226 -1.6130 -1.0159  0.8917
 2625TIP3   OH229289   4.281   6.612   5.743 -0.4703 -0.4258 -0.2458
 2625TIP3    H129290   4.332   6.679   5.697  0.1286 -0.4306  0.3995
 2625TIP3    H229291   4.220   6.661   5.798  0.4048 -0.3837  0.7166
 2626TIP3   OH229292   2.603   5.316   1.084  0.2160  0.5822  0.7576
 2626TIP3    H129293   2.673   5.373   1.053 -0.3787  1.1220  0.4057
 2626TIP3    H229294   2.600   5.244   1.020 -1.6115  2.1545 -0.9628
 2627TIP3   OH229295   1.038   0.419   4.597 -0.2104  0.0266 -0.1137
 2627TIP3    H129296   0.961   0.368   4.573 -0.8095  0.9149 -0.1078
 2627TIP3    H229297   1.006   0.485   4.658  0.8180 -0.4822  0.9880
 2628TIP3   OH229298   0.945   2.944   0.898 -0.1901 -0.2958  0.3400
 2628TIP3    H129299   0.937   2.870   0.959 -1.6817  0.5807  1.2602
 2628TIP3    H229300   0.861   2.944   0.851 -0.2270  0.8384  0.4023
 2629TIP3   OH229301   1.970   5.499  11.313 -0.2237  0.9973  0.1411
 2629TIP3    H129302   2.038   5.435  11.335 -0.0061  1.2318  0.1434
 2629TIP3    H229303   1.888   5.453  11.332 -0.1324 -0.1438 -2.1584
 2630TIP3   OH229304   1.389   0.721   3.634  0.5881 -0.5126 -0.6495
 2630TIP3    H129305   1.465   0.775   3.614 -0.2202  0.3565 -1.4189
 2630TIP3    H229306   1.317   0.783   3.646  0.1394 -1.2845  0.7477
 2631TIP3   OH229307   6.123   5.457  12.830 -0.2275 -0.4732  1.0158
 2631TIP3    H129308   6.059   5.465  12.759 -0.1842  0.2781  1.0597
 2631TIP3    H229309   6.073   5.416  12.902 -0.2208 -1.4090  0.5008
 2632TIP3   OH229310   4.443   1.385  11.865  0.3181 -0.9664 -0.1437
 2632TIP3    H129311   4.423   1.292  11.870  1.4698 -1.2634 -0.9257
 2632TIP3    H229312   4.516   1.398  11.925 -0.2416 -0.4439  0.4373
 2633TIP3   OH229313   1.166   4.347   0.191 -0.3835  0.0982 -0.1579
 2633TIP3    H129314   1.094   4.317   0.135 -1.2498  1.8400 -0.0064
 2633TIP3    H229315   1.135   4.332   0.280  0.1992 -0.8281 -0.0963
 2634TIP3   OH229316   5.035   3.867  14.515  0.1548  0.1126 -0.5363
 2634TIP3    H129317   5.071   3.939  14.567 -1.6547  0.3571  0.3933
 2634TIP3    H229318   4.954   3.901  14.477 -0.7558 -1.4368 -0.0363
 2635TIP3   OH229319   0.621   4.361  11.890 -0.6229  0.3722  0.7772
 2635TIP3    H129320   0.559   4.292  11.914  0.6114 -1.3040 -0.7575
 2635TIP3    H229321   0.572   4.443  11.903 -1.7143 -0.6921  3.7729
 2636TIP3   OH229322   1.908   1.410   4.409  0.2627 -0.0253 -0.5422
 2636TIP3    H129323   1.899   1.411   4.314 -0.4049 -1.0034 -0.4940
 2636TIP3    H229324   1.830   1.455   4.441  1.6158  2.3989 -0.5133
 2637TIP3   OH229325   1.412   0.622  16.581 -0.1729 -0.0706  0.5906
 2637TIP3    H129326   1.403   0.622  16.486 -0.8805 -0.1872  0.6557
 2637TIP3    H229327   1.493   0.671  16.598 -0.0274 -0.0786 -0.0643
 2638TIP3   OH229328   0.554   1.776  13.345 -0.4037 -0.1274  0.1143
 2638TIP3    H129329   0.493   1.777  13.271 -0.6627  0.8302  0.3347
 2638TIP3    H229330   0.572   1.683  13.360 -0.6461 -0.3485 -0.9050
 2639TIP3   OH229331   6.699   3.586  15.678 -0.1282  0.6250 -0.4723
 2639TIP3    H129332   6.611   3.607  15.647 -0.7807  1.1071  1.5828
 2639TIP3    H229333   6.723   3.660  15.734  1.5586  0.4601 -0.9640
 2640TIP3   OH229334   0.135   1.000  14.091 -0.3612  0.2340 -0.2405
 2640TIP3    H129335   0.225   0.966  14.088 -0.9204 -1.4080  1.0991
 2640TIP3    H229336   0.094   0.964  14.013 -0.0057  0.5389 -0.5702
 2641TIP3   OH229337   5.710   2.395   2.834 -0.3445 -0.8441 -0.1767
 2641TIP3    H129338   5.685   2.485   2.814  0.3142 -1.0957 -2.2407
 2641TIP3    H229339   5.642   2.341   2.794  1.4477 -1.3817 -2.6804
 2642TIP3   OH229340   5.226   1.623  14.249  0.0687 -0.4012  0.1364
 2642TIP3    H129341   5.140   1.638  14.288 -0.2817  1.9303 -1.3912
 2642TIP3    H229342   5.213   1.550  14.189 -0.8376 -0.1046 -0.0401
 2643TIP3   OH229343   0.212   2.235   5.377 -0.6639  0.8187  0.1321
 2643TIP3    H129344   0.174   2.203   5.295  0.7787  0.7393 -0.5389
 2643TIP3    H229345   0.138   2.270   5.426 -1.9795 -1.7504  0.0446
 2644TIP3   OH229346   3.108   2.701   6.764 -0.7311  0.3972  0.1209
 2644TIP3    H129347   3.018   2.726   6.785 -0.5589  2.5192 -1.4389
 2644TIP3    H229348   3.159   2.781   6.780  0.5913 -0.2919 -0.6035
 2645TIP3   OH229349   6.308   1.889   2.212 -0.6995 -0.1862  0.4152
 2645TIP3    H129350   6.234   1.936   2.250  0.2700  1.6939  0.0301
 2645TIP3    H229351   6.271   1.843   2.137 -1.2905  1.5258 -0.3549
 2646TIP3   OH229352   1.675   6.348  14.330 -0.0199  0.1401 -0.1855
 2646TIP3    H129353   1.654   6.256  14.346  1.7982  0.0660  2.0314
 2646TIP3    H229354   1.657   6.361  14.237  1.0338 -2.8552 -0.8723
 2647TIP3   OH229355   3.733   4.098  11.718 -0.2976  0.0350 -0.3313
 2647TIP3    H129356   3.661   4.040  11.693 -0.7981 -0.2036  1.6461
 2647TIP3    H229357   3.705   4.138  11.800  0.8622  1.6553 -0.6992
 2648TIP3   OH229358   5.755   3.592   4.362  0.1924  0.3315 -0.0113
 2648TIP3    H129359   5.769   3.686   4.366  0.7660  0.2594 -0.3569
 2648TIP3    H229360   5.726   3.576   4.272 -1.4058  0.3847  0.4787
 2649TIP3   OH229361   0.125   2.509  11.363 -0.0470  0.1779 -0.1632
 2649TIP3    H129362   0.148   2.446  11.294  0.7108  1.6603 -1.2892
 2649TIP3    H229363   0.030   2.516  11.359 -0.0249  0.0838 -0.9019
 2650TIP3   OH229364   1.709   1.400   1.922 -0.2353  0.0208 -0.8440
 2650TIP3    H129365   1.714   1.314   1.964  0.6443 -0.2143 -1.4048
 2650TIP3    H229366   1.616   1.413   1.903 -0.5573 -0.1616  0.5502
 2651TIP3   OH229367   3.055   4.088   4.181  0.5689  0.6411  0.3128
 2651TIP3    H129368   3.100   4.023   4.127  0.9409  0.2921  1.0362
 2651TIP3    H229369   2.996   4.132   4.121  1.2401  0.4979 -0.4583
 2652TIP3   OH229370   3.772   3.621  14.847  0.1865  0.2981  0.6644
 2652TIP3    H129371   3.743   3.692  14.904 -1.0622  0.4365 -0.1145
 2652TIP3    H229372   3.857   3.595  14.882 -0.1931  0.9237  2.0868
 2653TIP3   OH229373   3.254   2.057  14.670  0.2436  0.2148  0.0119
 2653TIP3    H129374   3.308   2.125  14.709  0.4206  0.2960 -0.3768
 2653TIP3    H229375   3.188   2.104  14.620 -0.6439  0.1345  1.0725
 2654TIP3   OH229376   4.930   2.352   5.108 -0.0592 -0.0874 -0.5759
 2654TIP3    H129377   4.996   2.319   5.048 -0.1798  0.9824 -1.2953
 2654TIP3    H229378   4.980   2.391   5.180  0.0881  0.0789 -0.7683
 2655TIP3   OH229379   1.045   6.286  13.630 -0.0094  0.0625 -0.0382
 2655TIP3    H129380   1.047   6.380  13.647 -1.6991 -0.0233  0.7081
 2655TIP3    H229381   1.130   6.267  13.591  0.6355  1.7668  0.5009
 2656TIP3   OH229382   4.012   1.532   1.560 -0.9162  0.5477  0.5886
 2656TIP3    H129383   3.971   1.612   1.524  1.6686  3.0147  2.9000
 2656TIP3    H229384   3.966   1.517   1.642 -0.5652  0.3947  0.7561
 2657TIP3   OH229385   3.545   5.851   4.937  0.3985 -0.5235 -0.2064
 2657TIP3    H129386   3.576   5.882   5.022 -0.1337  0.0279 -0.2100
 2657TIP3    H229387   3.606   5.890   4.874  0.2177 -0.1500 -0.1498
 2658TIP3   OH229388   1.883   4.613   4.979  0.1736  0.3486 -0.2473
 2658TIP3    H129389   1.978   4.611   4.982  0.2059  1.5409 -0.2793
 2658TIP3    H229390   1.855   4.569   5.060  0.7263 -1.1868 -0.8775
 2659TIP3   OH229391   6.197   6.379  10.718 -0.8090 -0.4996  0.3429
 2659TIP3    H129392   6.273   6.380  10.661 -2.1889 -1.2951 -1.5675
 2659TIP3    H229393   6.179   6.471  10.736 -0.8318 -0.2036 -1.1656
 2660TIP3   OH229394   3.588   1.641   6.350  0.1717  0.0101 -0.1346
 2660TIP3    H129395   3.582   1.731   6.381 -0.5307 -0.2161  0.4020
 2660TIP3    H229396   3.498   1.609   6.352  0.5009 -0.8967  0.2623
 2661TIP3   OH229397   5.190   3.853   0.844  0.3983  0.5418  0.7874
 2661TIP3    H129398   5.101   3.829   0.820  0.6533 -0.8811  1.2584
 2661TIP3    H229399   5.190   3.851   0.940  1.7307 -2.3901  0.7501
 2662TIP3   OH229400   0.990   2.658  14.396 -0.7616  0.6890 -0.2695
 2662TIP3    H129401   0.958   2.741  14.360  0.2727  1.9760  1.6981
 2662TIP3    H229402   1.084   2.672  14.407 -0.6652 -0.5733  0.5712
 2663TIP3   OH229403   6.058   0.961   0.366 -0.5861  0.5139 -0.3208
 2663TIP3    H129404   6.001   1.017   0.314  0.7373 -1.7350 -4.3893
 2663TIP3    H229405   6.001   0.890   0.396 -0.5618 -0.2198 -1.9759
 2664TIP3   OH229406   2.250   4.688   0.810  0.2136 -0.1475 -0.3676
 2664TIP3    H129407   2.293   4.660   0.729 -2.0210 -2.9516 -0.6914
 2664TIP3    H229408   2.160   4.709   0.783 -0.1150  0.4202  1.1188
 2665TIP3   OH229409   6.292   2.416   6.052 -0.2535 -0.4110  0.2749
 2665TIP3    H129410   6.207   2.453   6.032  0.7023  1.9448  0.4684
 2665TIP3    H229411   6.291   2.403   6.147 -0.4101 -0.4126  0.2726
 2666TIP3   OH229412   4.384   5.799   2.478 -0.0632 -0.0516  0.1550
 2666TIP3    H129413   4.336   5.823   2.558  1.7582 -1.0034  1.5647
 2666TIP3    H229414   4.412   5.883   2.441 -1.9683  0.4603 -0.1741
 2667TIP3   OH229415   2.455   5.190   2.093  0.3591 -0.2193 -0.7353
 2667TIP3    H129416   2.417   5.263   2.043  1.1357  0.7414  0.0536
 2667TIP3    H229417   2.533   5.166   2.043  0.5554  0.0424 -0.5587
 2668TIP3   OH229418   5.439   4.039   0.362  0.9519  0.5522  0.0615
 2668TIP3    H129419   5.522   3.999   0.335  2.6884  2.1037  2.8479
 2668TIP3    H229420   5.462   4.129   0.383 -1.4936  1.0257  0.7980
 2669TIP3   OH229421   0.989   1.205   3.784 -0.0481 -0.5754  0.1174
 2669TIP3    H129422   1.033   1.287   3.762  0.1185 -0.8932 -0.7710
 2669TIP3    H229423   0.916   1.232   3.840 -1.0756  0.4005 -1.6186
 2670TIP3   OH229424   5.278   1.996  11.353  0.1514  0.2074 -0.6018
 2670TIP3    H129425   5.297   2.062  11.287  1.5973  1.1844  0.7462
 2670TIP3    H229426   5.189   2.016  11.383  0.0064  0.5783 -1.2679
 2671TIP3   OH229427   6.505   3.340  13.608 -0.1624 -0.1333  0.4509
 2671TIP3    H129428   6.570   3.384  13.552 -0.7267 -0.5887 -0.5805
 2671TIP3    H229429   6.452   3.412  13.644 -1.8018  0.0311 -2.1272
 2672TIP3   OH229430   5.915   5.231  12.792  0.0419 -0.1326 -0.0158
 2672TIP3    H129431   5.847   5.269  12.848  1.1206  0.4752  0.8997
 2672TIP3    H229432   5.896   5.266  12.705 -0.2771  0.7583  0.4006
 2673TIP3   OH229433   3.753   2.261   6.193 -0.3642 -0.3709  0.2494
 2673TIP3    H129434   3.681   2.218   6.239 -1.4083 -0.5810 -1.5517
 2673TIP3    H229435   3.831   2.211   6.219 -1.3998 -2.5832 -0.8412
 2674TIP3   OH229436   0.882   4.916  16.632  0.6248  0.2266  0.4315
 2674TIP3    H129437   0.925   4.996  16.660  0.5379  0.4899 -0.1975
 2674TIP3    H229438   0.818   4.898  16.702  0.5648  0.7614  0.5155
 2675TIP3   OH229439   4.494   6.668  15.069 -0.0986 -0.1109  0.3744
 2675TIP3    H129440   4.531   6.584  15.044 -1.6311 -0.4743 -0.7281
 2675TIP3    H229441   4.566   6.730  15.059  0.8666 -1.1781  0.6004
 2676TIP3   OH229442   6.260   5.138  14.522 -0.0954  0.6895  0.0500
 2676TIP3    H129443   6.334   5.194  14.544  1.4908 -0.0573 -3.0193
 2676TIP3    H229444   6.277   5.111  14.431 -2.6530 -1.8393  0.2531
 2677TIP3   OH229445   3.088   0.641  13.325  0.6043 -0.2374  0.3915
 2677TIP3    H129446   3.021   0.654  13.258  1.0555 -0.0244 -0.0248
 2677TIP3    H229447   3.071   0.709  13.390  2.6579  2.2400 -1.5324
 2678TIP3   OH229448   1.639   5.777   1.811 -0.5324 -0.1344 -0.4115
 2678TIP3    H129449   1.723   5.820   1.826 -0.6039 -1.1291  3.0842
 2678TIP3    H229450   1.574   5.840   1.841 -0.7790 -1.3052  1.5783
 2679TIP3   OH229451   5.572   2.621  14.401  0.3904  0.8312  0.2179
 2679TIP3    H129452   5.629   2.665  14.464  1.6567  1.1604 -1.1333
 2679TIP3    H229453   5.620   2.625  14.318  0.7001 -3.3740  0.0815
 2680TIP3   OH229454   6.755   4.765  11.074 -0.2469 -0.3266  0.9970
 2680TIP3    H129455   6.823   4.783  11.010 -0.7737 -0.8431  0.2886
 2680TIP3    H229456   6.799   4.713  11.141  0.0407 -0.7144  0.5110
 2681TIP3   OH229457   3.469   4.240  11.607  0.9709  0.1509 -0.1083
 2681TIP3    H129458   3.554   4.200  11.587  0.1077 -1.1303 -1.3387
 2681TIP3    H229459   3.477   4.330  11.574  1.5813 -0.2025 -0.9451
 2682TIP3   OH229460   0.126   2.431   1.657  0.2692 -0.1982 -0.1210
 2682TIP3    H129461   0.204   2.382   1.631  0.8803  2.7277 -4.1818
 2682TIP3    H229462   0.053   2.384   1.615  0.0976 -1.2790  1.3342
 2683TIP3   OH229463   5.358   0.900  17.161 -0.0873 -0.4853 -0.1558
 2683TIP3    H129464   5.288   0.861  17.108 -0.8295 -2.5635  2.2871
 2683TIP3    H229465   5.365   0.843  17.237  2.2483  1.4044  1.0879
 2684TIP3   OH229466   3.386   5.363   2.540  0.5930  0.3637  0.8786
 2684TIP3    H129467   3.455   5.354   2.474  1.6244 -0.6381  2.0909
 2684TIP3    H229468   3.318   5.414   2.495  0.6761 -1.4660 -1.4318
 2685TIP3   OH229469   3.364   3.528  13.848  0.6194 -0.1873  0.1197
 2685TIP3    H129470   3.389   3.474  13.923  0.0477 -0.0018  0.4464
 2685TIP3    H229471   3.293   3.480  13.806  0.8005 -0.1899 -0.1837
 2686TIP3   OH229472   2.453   5.282  14.019  0.0751  0.4508 -0.4490
 2686TIP3    H129473   2.473   5.305  14.110 -2.2356 -0.6047  0.3608
 2686TIP3    H229474   2.421   5.364  13.980  0.6451  0.7910 -0.2219
 2687TIP3   OH229475   6.029   2.686  12.311  0.3488 -0.3352 -0.0034
 2687TIP3    H129476   6.069   2.601  12.291  0.0527 -0.7289  1.0496
 2687TIP3    H229477   5.940   2.679  12.278  0.7802  0.1178 -1.2870
 2688TIP3   OH229478   2.933   6.503  11.540 -0.1657 -0.6792 -0.3813
 2688TIP3    H129479   2.895   6.418  11.519  0.0752 -0.2988 -2.4951
 2688TIP3    H229480   2.873   6.566  11.501 -1.1403  0.1960  2.4738
 2689TIP3   OH229481   1.714   2.576   4.742  0.4330  0.4792 -0.1881
 2689TIP3    H129482   1.703   2.659   4.787  1.3085 -0.1172  1.1552
 2689TIP3    H229483   1.653   2.517   4.786  0.5449  0.1530 -0.4685
 2690TIP3   OH229484   5.137   2.323  13.205 -0.4848 -0.0922  0.0811
 2690TIP3    H129485   5.197   2.255  13.175 -0.1626  0.1644  0.1407
 2690TIP3    H229486   5.116   2.298  13.294  0.0064  0.1395  0.2645
 2691TIP3   OH229487   3.032   2.042   6.642  0.0649 -0.1214 -0.4584
 2691TIP3    H129488   3.063   2.091   6.718 -3.5491 -0.1726  1.1359
 2691TIP3    H229489   2.986   1.967   6.678 -2.9143  0.5714 -2.5915
 2692TIP3   OH229490   0.490   3.553  14.146 -0.4055  0.0044 -0.4326
 2692TIP3    H129491   0.569   3.598  14.116 -0.0239  0.3980  1.1368
 2692TIP3    H229492   0.422   3.581  14.084  0.0382  1.9836 -0.0806
 2693TIP3   OH229493   4.798   4.764  13.710 -0.0714  0.0768  0.3167
 2693TIP3    H129494   4.794   4.756  13.806 -1.2635  1.3220  0.3762
 2693TIP3    H229495   4.803   4.858  13.694  0.3056 -0.1377 -0.8474
 2694TIP3   OH229496   2.514   3.963  15.860  0.3068  0.4519 -0.1454
 2694TIP3    H129497   2.516   4.025  15.787 -0.1514  0.6275 -0.0078
 2694TIP3    H229498   2.585   3.993  15.918  1.5578 -0.4846 -1.1568
 2695TIP3   OH229499   6.307   3.033  14.061  0.5474  0.9373  0.0356
 2695TIP3    H129500   6.355   3.041  13.978 -0.6093 -0.7433 -0.8297
 2695TIP3    H229501   6.220   3.001  14.035  0.5868 -0.8571  2.0186
 2696TIP3   OH229502   4.284   6.166   4.110 -0.1615  0.0212 -0.5655
 2696TIP3    H129503   4.379   6.175   4.118 -0.2233  0.0029  0.2355
 2696TIP3    H229504   4.254   6.254   4.088 -0.0770  0.3253  0.4705
 2697TIP3   OH229505   0.110   0.224  17.234  0.2103 -0.0675  0.4060
 2697TIP3    H129506   0.185   0.178  17.273 -0.2671 -0.7182  0.5500
 2697TIP3    H229507   0.059   0.156  17.191 -0.3801  0.3609  0.4231
 2698TIP3   OH229508   3.801   6.093   1.091 -0.2305  0.9624 -0.4444
 2698TIP3    H129509   3.892   6.066   1.077 -0.4483 -0.1148  0.1900
 2698TIP3    H229510   3.776   6.136   1.010 -0.1707 -1.5387 -1.8299
 2699TIP3   OH229511   2.694   2.063   6.593 -0.1184  0.1855  0.0241
 2699TIP3    H129512   2.773   2.072   6.646 -0.8300  1.2186  0.9251
 2699TIP3    H229513   2.678   1.968   6.588  0.5453  0.0383  0.7552
 2700TIP3   OH229514   0.385   1.623  14.008  0.3105  0.3291  0.0615
 2700TIP3    H129515   0.331   1.674  13.948  1.2379  0.2462 -0.8587
 2700TIP3    H229516   0.438   1.568  13.951  0.3126 -0.6526  1.0056
 2701TIP3   OH229517   2.978   0.421   6.736 -0.4429 -0.6493 -0.3346
 2701TIP3    H129518   3.001   0.511   6.714  1.2631 -1.1028 -0.4830
 2701TIP3    H229519   3.031   0.367   6.678 -2.0615 -1.7642 -0.8289
 2702TIP3   OH229520   1.131   6.536  17.028  0.0247 -0.0625 -0.0355
 2702TIP3    H129521   1.172   6.596  17.090 -2.8542  1.5319  0.4161
 2702TIP3    H229522   1.077   6.478  17.082  1.1154 -1.7489 -0.6778
 2703TIP3   OH229523   2.088   4.414  16.072  0.0020  0.3984  0.4244
 2703TIP3    H129524   2.174   4.400  16.033  0.1655  0.1258  0.8764
 2703TIP3    H229525   2.029   4.426  15.998  0.1987 -0.7743  0.0799
 2704TIP3   OH229526   3.267   3.978  14.448  0.1972  0.0280  0.2711
 2704TIP3    H129527   3.353   3.948  14.477  0.7175  1.2474  0.0269
 2704TIP3    H229528   3.255   4.063  14.490  0.1390  0.9420 -1.5544
 2705TIP3   OH229529   3.670   2.015  14.812  0.2288  0.2017 -0.1980
 2705TIP3    H129530   3.655   1.934  14.861 -2.2057  1.1013  0.6317
 2705TIP3    H229531   3.623   2.002  14.729  0.5023  0.4605 -0.3953
 2706TIP3   OH229532   3.706   4.286  12.190 -0.6488 -0.7759 -0.1166
 2706TIP3    H129533   3.790   4.329  12.175  0.7704 -3.5992 -0.6506
 2706TIP3    H229534   3.679   4.315  12.277  0.1170  1.3380 -0.5584
 2707TIP3   OH229535   2.692   3.192  11.506  0.6471  0.1790 -0.0405
 2707TIP3    H129536   2.657   3.122  11.452  0.6209 -0.3477  0.6451
 2707TIP3    H229537   2.777   3.158  11.536  0.8367  0.6246 -0.0663
 2708TIP3   OH229538   0.193   4.915   1.815  0.6582 -0.6423 -0.0224
 2708TIP3    H129539   0.288   4.929   1.819  0.8175 -1.7234  0.3507
 2708TIP3    H229540   0.179   4.868   1.733  0.0175  2.4244 -1.7384
 2709TIP3   OH229541   0.808   0.067   1.666 -0.1590  0.0202  0.4340
 2709TIP3    H129542   0.808   0.161   1.683 -1.3713 -0.1931  1.6806
 2709TIP3    H229543   0.718   0.039   1.684 -0.0328 -1.2348 -0.7602
 2710TIP3   OH229544   5.240   1.428   4.657 -0.0370  0.2323  0.6309
 2710TIP3    H129545   5.148   1.412   4.638 -0.2323  2.4197 -0.3997
 2710TIP3    H229546   5.281   1.341   4.653 -1.8749 -0.6370  0.2444
 2711TIP3   OH229547   4.345   3.398   2.782  0.7645  0.0128  0.5395
 2711TIP3    H129548   4.325   3.341   2.856 -1.3655 -1.3443 -1.0002
 2711TIP3    H229549   4.367   3.338   2.711 -0.6606  1.1001 -0.8744
 2712TIP3   OH229550   6.427   5.121   5.543 -0.0953 -0.1843 -0.1972
 2712TIP3    H129551   6.506   5.141   5.593  0.9186 -2.3869 -0.8689
 2712TIP3    H229552   6.361   5.102   5.610  0.0143  1.3073  0.3578
 2713TIP3   OH229553   1.257   4.521   4.126  0.4138  0.2831  0.1316
 2713TIP3    H129554   1.192   4.528   4.196  0.5759  0.0242  0.3093
 2713TIP3    H229555   1.338   4.498   4.171  0.0711 -1.9664 -0.3472
 2714TIP3   OH229556   0.831   2.896  11.643  0.1010  0.0064 -0.0772
 2714TIP3    H129557   0.888   2.963  11.607  0.4558 -0.8815 -1.1878
 2714TIP3    H229558   0.766   2.880  11.574  0.2880 -1.1059  0.0021
 2715TIP3   OH229559   4.896   0.117  14.827 -0.0559  0.0372  0.5886
 2715TIP3    H129560   4.856   0.124  14.740 -0.1080  1.7150  0.7312
 2715TIP3    H229561   4.980   0.073  14.811  0.3272  1.1220 -0.4425
 2716TIP3   OH229562   1.653   2.634   2.535  0.3509 -0.2845  0.4879
 2716TIP3    H129563   1.623   2.716   2.573  0.0442  0.3388 -1.0772
 2716TIP3    H229564   1.682   2.657   2.447  1.4791 -1.6243  0.4907
 2717TIP3   OH229565   1.969   4.261   0.989  0.2253 -0.6342 -0.1628
 2717TIP3    H129566   1.894   4.230   0.938  0.9008 -0.9726 -0.9651
 2717TIP3    H229567   1.935   4.275   1.077 -0.8121 -0.6419 -0.5658
 2718TIP3   OH229568   4.703   6.586   0.189 -0.0928 -0.6026  0.3046
 2718TIP3    H129569   4.728   6.506   0.235  1.5928 -1.7422 -2.4609
 2718TIP3    H229570   4.749   6.581   0.105 -0.9554  2.6701 -0.4475
 2719TIP3   OH229571   4.043   5.953   4.740  0.0211 -0.2993 -0.2068
 2719TIP3    H129572   4.117   5.899   4.767 -0.6059  0.1090  2.5283
 2719TIP3    H229573   3.991   5.964   4.820 -1.3582  1.9746 -1.3546
 2720TIP3   OH229574   0.029   0.716  16.129  0.4602 -0.7520  0.3964
 2720TIP3    H129575   0.019   0.807  16.157 -1.0083 -0.7243 -0.2039
 2720TIP3    H229576  -0.054   0.694  16.088  1.4129 -1.8159 -1.0251
 2721TIP3   OH229577   3.208   5.041   0.694  0.1068 -0.3899 -0.3151
 2721TIP3    H129578   3.200   4.955   0.736  0.9729 -0.7920 -0.9739
 2721TIP3    H229579   3.301   5.061   0.699 -0.0562  0.3959 -0.4113
 2722TIP3   OH229580   4.262   5.928  13.806 -0.7642  0.4783 -0.7127
 2722TIP3    H129581   4.244   6.021  13.822 -0.5536  0.4704 -0.4251
 2722TIP3    H229582   4.213   5.908  13.726  1.3816  1.5442 -2.3659
 2723TIP3   OH229583   2.775   3.843  17.140  0.1988 -0.1726  0.0721
 2723TIP3    H129584   2.712   3.860  17.210 -1.9409 -1.9176 -1.3715
 2723TIP3    H229585   2.731   3.872  17.060  1.6067 -0.5446 -0.8513
 2724TIP3   OH229586   0.167   1.080   4.184  0.4428  0.1051 -0.0526
 2724TIP3    H129587   0.123   1.025   4.249 -0.6209  0.5762 -0.3530
 2724TIP3    H229588   0.101   1.093   4.115  1.8763 -1.1544 -1.6899
 2725TIP3   OH229589   3.795   3.729  12.762 -0.1828 -0.0276 -0.0966
 2725TIP3    H129590   3.863   3.773  12.812  0.3741  0.2738 -1.0980
 2725TIP3    H229591   3.793   3.640  12.796  0.5915  0.0154  0.0627
 2726TIP3   OH229592   0.461   0.996   0.493  0.0127 -0.2123 -0.1083
 2726TIP3    H129593   0.419   0.913   0.473  0.2837 -0.1478 -0.9580
 2726TIP3    H229594   0.555   0.976   0.499 -0.1002 -0.3065  1.5134
 2727TIP3   OH229595   5.398   1.845   0.306  0.0252 -0.3191 -0.0278
 2727TIP3    H129596   5.388   1.754   0.279  0.2426 -0.0145 -1.1855
 2727TIP3    H229597   5.325   1.890   0.263 -0.5352 -0.0804  1.1768
 2728TIP3   OH229598   2.222   6.679   0.939  0.6189 -0.1853  0.2672
 2728TIP3    H129599   2.139   6.646   0.905  0.9763 -0.5758 -0.2260
 2728TIP3    H229600   2.245   6.750   0.879 -0.1435  0.9618  1.3172
 2729TIP3   OH229601   1.409   1.920   4.485  0.1738  0.7405  0.2600
 2729TIP3    H129602   1.423   1.836   4.441 -0.0847  2.0467 -2.4482
 2729TIP3    H229603   1.493   1.938   4.528  0.9676  0.1348 -0.9861
 2730TIP3   OH229604   0.302   3.389   6.387  0.1383  0.2210  0.4904
 2730TIP3    H129605   0.231   3.406   6.449 -0.9762  1.8247 -1.1785
 2730TIP3    H229606   0.274   3.312   6.338  0.9928 -1.0123  1.8960
 2731TIP3   OH229607   0.790   3.071  11.367  0.3281 -0.0925  0.1661
 2731TIP3    H129608   0.869   3.020  11.384 -0.2558 -0.5205  1.7415
 2731TIP3    H229609   0.718   3.013  11.393 -0.4212  0.8470  0.2147
 2732TIP3   OH229610   5.832   5.102  13.146 -0.4031 -0.0743 -0.4865
 2732TIP3    H129611   5.772   5.128  13.215 -0.0278 -0.7761  0.1120
 2732TIP3    H229612   5.917   5.093  13.189 -0.1604 -0.4995 -1.0327
 2733TIP3   OH229613   3.975   2.483   0.443 -0.0460 -0.5077  0.0290
 2733TIP3    H129614   4.007   2.394   0.461 -0.6902 -0.8885 -0.6817
 2733TIP3    H229615   3.886   2.484   0.476  0.1398  0.0493  0.5239
 2734TIP3   OH229616   2.003   3.956   3.574  0.4083  0.3745 -0.2742
 2734TIP3    H129617   1.936   3.900   3.612  0.9606  0.2202  0.4833
 2734TIP3    H229618   1.973   3.973   3.485 -1.7573  2.0995  0.7439
 2735TIP3   OH229619   5.320   1.002  14.219  0.2955 -0.0166 -0.0459
 2735TIP3    H129620   5.261   1.077  14.225 -0.2261 -0.4744  0.5877
 2735TIP3    H229621   5.281   0.936  14.276  1.1393 -0.5114 -0.0362
 2736TIP3   OH229622   2.780   3.085   4.647 -0.0655  0.4925  0.2544
 2736TIP3    H129623   2.740   3.004   4.679  2.8677 -0.9545  0.3827
 2736TIP3    H229624   2.834   3.116   4.719  0.1043  1.6873 -0.3729
 2737TIP3   OH229625   2.538   6.417   0.331 -0.4922  0.0019 -0.0736
 2737TIP3    H129626   2.614   6.389   0.280  1.3841 -0.6890  2.9685
 2737TIP3    H229627   2.469   6.354   0.309 -0.5016  1.0927 -3.4516
 2738TIP3   OH229628   4.769   1.904   0.678 -0.3564  0.2190  0.5213
 2738TIP3    H129629   4.716   1.902   0.757  1.7029 -2.3064  1.9399
 2738TIP3    H229630   4.856   1.929   0.709  0.6596 -1.5836 -0.7970
 2739TIP3   OH229631   4.420   1.863   5.172  0.5089  0.1697 -0.2216
 2739TIP3    H129632   4.382   1.832   5.255  0.0426  1.1594 -0.0640
 2739TIP3    H229633   4.477   1.935   5.198  1.1782 -0.1936 -0.6554
 2740TIP3   OH229634   0.665   0.548   0.457  0.1030  0.5582 -0.0203
 2740TIP3    H129635   0.593   0.559   0.395 -0.8848  1.0326  1.1785
 2740TIP3    H229636   0.722   0.624   0.442  0.3276  0.2251 -0.9111
 2741TIP3   OH229637   3.385   2.776   0.338  0.5764 -0.1066 -0.0046
 2741TIP3    H129638   3.395   2.866   0.370 -0.5851  0.5461 -1.4094
 2741TIP3    H229639   3.326   2.784   0.263 -0.5667 -2.2133  0.6418
 2742TIP3   OH229640   3.396   2.165  16.111 -0.2961 -0.3934  0.2233
 2742TIP3    H129641   3.410   2.092  16.050 -0.9431  0.5537 -1.0935
 2742TIP3    H229642   3.317   2.208  16.079 -0.3063  0.4875  1.3939
 2743TIP3   OH229643   2.283   4.152   5.834 -0.3897 -0.2542  0.5261
 2743TIP3    H129644   2.340   4.201   5.894  0.4364 -1.4204  0.6966
 2743TIP3    H229645   2.343   4.116   5.769 -1.2790  0.9620 -0.9867
 2744TIP3   OH229646   0.479   6.177  17.081  0.2555 -0.3406 -0.3075
 2744TIP3    H129647   0.395   6.132  17.086 -0.1301  0.5059  1.2193
 2744TIP3    H229648   0.462   6.256  17.030 -0.1825  0.4373  1.0046
 2745TIP3   OH229649   1.298   2.867  14.006 -0.2462 -0.5186  0.1124
 2745TIP3    H129650   1.330   2.909  13.927  0.2693  0.7683  0.9939
 2745TIP3    H229651   1.229   2.807  13.975  0.1799 -0.2856 -1.3272
 2746TIP3   OH229652   2.582   0.090   2.167 -0.3805  1.1036 -0.3920
 2746TIP3    H129653   2.589   0.173   2.121 -0.2568  0.7159 -1.0740
 2746TIP3    H229654   2.516   0.040   2.119 -0.3805  0.7657 -0.0491
 2747TIP3   OH229655   3.277   3.947   1.875  0.5203  0.1529 -0.1160
 2747TIP3    H129656   3.195   3.988   1.902  0.3684  1.3312 -2.2296
 2747TIP3    H229657   3.337   4.021   1.861  0.9917 -0.4850 -1.5826
 2748TIP3   OH229658   0.209   6.223  15.106 -0.1233  1.0274 -0.0068
 2748TIP3    H129659   0.277   6.252  15.167 -0.5474  1.1857  0.3892
 2748TIP3    H229660   0.200   6.295  15.044  1.1776  0.3631 -0.9863
 2749TIP3   OH229661   6.650   3.915   4.030 -0.4424 -0.1501 -0.3808
 2749TIP3    H129662   6.665   4.007   4.007 -0.8924  0.6365  2.2572
 2749TIP3    H229663   6.729   3.889   4.077 -2.1289  0.3043  2.8425
 2750TIP3   OH229664   5.811   4.898   4.984  0.2663 -0.2659  0.5667
 2750TIP3    H129665   5.872   4.856   5.045  0.9174 -1.1806 -0.6910
 2750TIP3    H229666   5.833   4.861   4.899  0.8333  2.5983 -0.5997
 2751TIP3   OH229667   6.575   0.807  16.399  0.3259  0.0012 -0.4121
 2751TIP3    H129668   6.541   0.861  16.470  1.3862 -0.8300  0.7499
 2751TIP3    H229669   6.553   0.855  16.319 -0.5159  1.1422  0.5031
 2752TIP3   OH229670   2.738   5.916   3.108 -0.3675  0.1664  0.0877
 2752TIP3    H129671   2.646   5.925   3.080 -0.6534 -0.6576  0.7267
 2752TIP3    H229672   2.772   5.845   3.053  0.1123  0.9869 -0.6823
 2753TIP3   OH229673   3.723   0.368   0.254 -0.2116  0.6426  0.1173
 2753TIP3    H129674   3.660   0.348   0.184  0.7010 -0.9080 -0.2745
 2753TIP3    H229675   3.688   0.323   0.331 -0.6185  1.4169  0.3886
 2754TIP3   OH229676   3.910   2.219  12.892  0.6373 -0.0147 -0.9817
 2754TIP3    H129677   3.878   2.225  12.803 -1.7940  0.6148 -0.1115
 2754TIP3    H229678   3.867   2.142  12.929 -1.7799  2.0943  0.8772
 2755TIP3   OH229679   5.155   0.378   4.792  0.3737 -0.4202  0.2164
 2755TIP3    H129680   5.069   0.385   4.833  0.5176  1.7152  0.2072
 2755TIP3    H229681   5.155   0.291   4.752 -1.4293 -0.8032  0.9718
 2756TIP3   OH229682   2.223   2.263  11.162 -0.5304 -0.4460 -0.1432
 2756TIP3    H129683   2.306   2.230  11.128 -0.6441 -1.5250  0.6361
 2756TIP3    H229684   2.172   2.185  11.184 -1.3557  0.2156  0.3375
 2757TIP3   OH229685   1.044   1.901   3.788  0.2682  0.1860 -0.4321
 2757TIP3    H129686   1.012   1.877   3.701 -0.8389  1.4092 -0.3848
 2757TIP3    H229687   1.066   1.818   3.830  0.9857 -0.3990 -1.9395
 2758TIP3   OH229688   0.953   5.063  11.224  0.3077 -0.1440 -0.1385
 2758TIP3    H129689   0.997   4.993  11.176 -1.3255 -0.1271 -1.7210
 2758TIP3    H229690   0.997   5.065  11.309  1.2645 -2.1841 -0.5525
 2759TIP3   OH229691   2.327   1.172   1.723 -0.4984 -0.1711 -0.1763
 2759TIP3    H129692   2.422   1.165   1.710 -0.1670  0.5772  1.5941
 2759TIP3    H229693   2.290   1.106   1.666  1.1222 -0.6917 -0.6619
 2760TIP3   OH229694   1.191   1.339   4.520  0.0828 -0.3551 -0.6713
 2760TIP3    H129695   1.168   1.340   4.427  0.7761  2.0332 -0.8576
 2760TIP3    H229696   1.221   1.250   4.537 -1.0527 -1.1002 -2.4805
 2761TIP3   OH229697   5.045   6.450   5.913 -0.2592  0.6692 -0.0870
 2761TIP3    H129698   4.983   6.509   5.954 -0.8676 -0.8565  1.2453
 2761TIP3    H229699   5.024   6.364   5.948  1.9068 -0.0472 -0.4340
 2762TIP3   OH229700   1.921   1.988   5.972  0.1040  0.8132 -0.3489
 2762TIP3    H129701   1.919   2.021   5.882 -0.9779 -0.0392 -0.6479
 2762TIP3    H229702   1.891   2.062   6.025 -0.3017  0.9645 -0.7913
 2763TIP3   OH229703   5.595   0.967  15.458  0.1576  0.1336 -0.2853
 2763TIP3    H129704   5.619   1.058  15.477 -1.7012  0.9719 -1.7644
 2763TIP3    H229705   5.544   0.939  15.533 -1.1333  1.0633 -0.8022
 2764TIP3   OH229706   0.276   3.089  12.853  0.1904 -0.1350  0.5947
 2764TIP3    H129707   0.358   3.082  12.805  0.8252 -1.8435  1.8971
 2764TIP3    H229708   0.232   3.164  12.813  2.3330  0.7636 -0.1523
 2765TIP3   OH229709   1.747   3.932   5.655 -0.7340  0.2571 -0.4969
 2765TIP3    H129710   1.666   3.898   5.693 -0.2317  0.8021  1.0836
 2765TIP3    H229711   1.718   3.988   5.583 -1.8012  0.9624  0.4643
 2766TIP3   OH229712   2.932   2.410  13.661 -0.3351 -0.0345  0.1264
 2766TIP3    H129713   3.022   2.398  13.632 -0.9743 -1.2139 -1.4900
 2766TIP3    H229714   2.895   2.473  13.598 -0.3353  1.3229  1.4611
 2767TIP3   OH229715   4.806   3.703  12.300 -0.2117 -0.1102  0.6122
 2767TIP3    H129716   4.884   3.651  12.318 -0.8031 -1.0963  0.3422
 2767TIP3    H229717   4.737   3.639  12.282 -0.4441  0.7681 -1.8696
 2768TIP3   OH229718   1.723   4.350   2.090 -0.0732 -0.3146 -0.4299
 2768TIP3    H129719   1.735   4.311   2.177  1.1059  0.3693 -0.2721
 2768TIP3    H229720   1.677   4.432   2.106 -0.8040 -0.7034 -0.5565
 2769TIP3   OH229721   2.486   5.278  15.618  0.2243 -0.3618 -0.4473
 2769TIP3    H129722   2.446   5.364  15.626  1.1683 -0.1449  2.4245
 2769TIP3    H229723   2.412   5.218  15.605 -0.6586  0.5753  0.2073
 2770TIP3   OH229724   5.041   5.800  14.637  0.0908 -0.7863  0.1657
 2770TIP3    H129725   5.085   5.716  14.643  1.2381 -0.2939 -1.1285
 2770TIP3    H229726   5.090   5.857  14.696 -0.9353 -1.1204  1.3537
 2771TIP3   OH229727   4.867   2.654   4.134  0.1565 -0.4576  0.2670
 2771TIP3    H129728   4.904   2.724   4.189  0.3916 -0.4759  0.1355
 2771TIP3    H229729   4.797   2.616   4.187  0.8481 -0.9465  0.8352
 2772TIP3   OH229730   2.517   5.281   0.660 -0.2281  0.0253  0.6051
 2772TIP3    H129731   2.457   5.276   0.735 -1.6850 -1.1377 -0.5845
 2772TIP3    H229732   2.479   5.221   0.596  1.9335 -0.2979 -0.4164
 2773TIP3   OH229733   6.374   1.209   4.359 -0.8447 -0.8512 -0.1356
 2773TIP3    H129734   6.401   1.180   4.271  0.0451 -0.8622  0.1363
 2773TIP3    H229735   6.456   1.218   4.407 -1.2386  0.4907  0.2940
 2774TIP3   OH229736   3.131   4.058  16.612 -0.6704  0.3833  0.1787
 2774TIP3    H129737   3.169   3.971  16.597 -1.5888 -0.0622  0.3669
 2774TIP3    H229738   3.200   4.107  16.656 -0.3102 -0.3974  0.4952
 2775TIP3   OH229739   6.770   4.182   3.108 -0.4608 -0.5066 -0.5398
 2775TIP3    H129740   6.830   4.154   3.039 -1.8176 -0.3856 -1.7996
 2775TIP3    H229741   6.695   4.218   3.061 -0.9262  0.5970  1.0192
 2776TIP3   OH229742   6.357   3.282   0.443  0.7168  0.0611  0.3978
 2776TIP3    H129743   6.283   3.271   0.383  1.0707  0.5214 -0.1205
 2776TIP3    H229744   6.410   3.351   0.404  1.8538 -0.8238  0.3528
 2777TIP3   OH229745   5.451   6.211  13.496  0.3205  0.1175 -0.3002
 2777TIP3    H129746   5.532   6.161  13.490 -0.9994 -1.8745 -2.1374
 2777TIP3    H229747   5.459   6.277  13.427  0.0496 -0.5619 -0.9800
 2778TIP3   OH229748   1.208   5.644   3.861  0.3801  0.3269 -0.0824
 2778TIP3    H129749   1.303   5.642   3.844  0.1510  0.1309 -1.3718
 2778TIP3    H229750   1.168   5.649   3.774 -0.8935 -2.9730  0.2269
 2779TIP3   OH229751   3.421   4.909  16.777 -0.1380 -0.4702 -0.0666
 2779TIP3    H129752   3.516   4.897  16.777  0.1960  1.8957 -0.0764
 2779TIP3    H229753   3.404   4.966  16.852 -1.5554 -0.7624 -0.1385
 2780TIP3   OH229754   4.328   5.253   1.693 -0.1852  0.1467 -0.7446
 2780TIP3    H129755   4.416   5.250   1.655  0.3722  0.7794  0.4713
 2780TIP3    H229756   4.340   5.299   1.776 -1.2436 -1.9794  0.6197
 2781TIP3   OH229757   3.839   0.662  14.835  0.2466 -0.4844  0.6397
 2781TIP3    H129758   3.792   0.582  14.860 -0.5226 -0.4817 -0.7289
 2781TIP3    H229759   3.806   0.683  14.748  1.0487  0.8778  0.6438
 2782TIP3   OH229760   4.200   5.916  16.108 -0.3142 -0.1536 -0.3032
 2782TIP3    H129761   4.132   5.890  16.170 -0.0627 -1.6020 -0.6253
 2782TIP3    H229762   4.281   5.881  16.145  0.0436  0.2804 -0.6756
 2783TIP3   OH229763   0.161   3.394   0.230  0.1212  0.1974 -0.3021
 2783TIP3    H129764   0.230   3.403   0.296 -0.0144 -2.1772  0.1828
 2783TIP3    H229765   0.086   3.441   0.266  1.1860  2.0711 -0.4509
 2784TIP3   OH229766   1.630   4.415   0.469 -0.1872  0.1849 -0.4574
 2784TIP3    H129767   1.548   4.397   0.516  0.4067  0.3819  0.6591
 2784TIP3    H229768   1.602   4.434   0.379 -1.2268 -1.5666 -0.5334
 2785TIP3   OH229769   3.720   0.810   1.852  0.1486 -0.3055 -0.2974
 2785TIP3    H129770   3.795   0.816   1.911  0.2350 -0.3888 -0.3998
 2785TIP3    H229771   3.756   0.779   1.769  0.2062  0.9259 -0.7404
 2786TIP3   OH229772   6.192   5.252  10.937  0.3637  0.3156  0.1924
 2786TIP3    H129773   6.248   5.175  10.928 -0.7252 -0.5092  0.2381
 2786TIP3    H229774   6.148   5.260  10.852  2.7429  2.7442 -0.8572
 2787TIP3   OH229775   0.448   4.972  12.662 -0.3166  0.2744 -0.6001
 2787TIP3    H129776   0.509   5.043  12.643 -0.4654  0.4711 -0.3442
 2787TIP3    H229777   0.363   5.014  12.673 -0.6497 -0.0884 -1.7195
 2788TIP3   OH229778   1.668   5.335   5.709 -0.1552 -0.2143  0.5098
 2788TIP3    H129779   1.683   5.254   5.660 -0.0914 -1.2309  2.1603
 2788TIP3    H229780   1.641   5.399   5.643  2.3206 -0.8613 -1.2159
 2789TIP3   OH229781   5.554   5.516  14.489  0.2178 -0.4147  0.0851
 2789TIP3    H129782   5.566   5.446  14.425 -0.4630 -0.1665 -0.3269
 2789TIP3    H229783   5.541   5.595  14.435 -0.9655 -0.3071  0.5189
 2790TIP3   OH229784   4.705   4.531  16.924  0.2243 -0.1140 -0.1460
 2790TIP3    H129785   4.678   4.480  17.000 -1.2967 -1.0549 -1.2957
 2790TIP3    H229786   4.787   4.490  16.896 -1.5833 -2.7460 -1.7629
 2791TIP3   OH229787   4.731   5.260   4.447 -0.2162  0.2855 -0.3632
 2791TIP3    H129788   4.637   5.253   4.461 -0.3458 -0.8066 -1.6597
 2791TIP3    H229789   4.743   5.246   4.353  1.2062  0.8582 -0.2937
 2792TIP3   OH229790   2.542   6.252  14.181 -0.4492  0.3690  0.0442
 2792TIP3    H129791   2.582   6.282  14.263 -1.0860  2.0962 -0.2409
 2792TIP3    H229792   2.489   6.327  14.152 -0.8312 -0.4973 -1.5516
 2793TIP3   OH229793   3.123   4.765  13.866 -0.8100  0.0362  0.3396
 2793TIP3    H129794   3.115   4.681  13.820 -0.0754  0.9140 -1.4652
 2793TIP3    H229795   3.216   4.772  13.887 -0.1738  1.9518 -2.6997
 2794TIP3   OH229796   0.783   3.949  11.822 -0.4575 -0.0289  0.4259
 2794TIP3    H129797   0.877   3.961  11.836 -0.3411  2.2882 -1.9302
 2794TIP3    H229798   0.764   3.997  11.741 -4.2985  2.5335  2.6865
 2795TIP3   OH229799   4.842   0.393  14.909 -0.0280 -0.2894  0.1111
 2795TIP3    H129800   4.825   0.409  15.002 -0.2563 -2.2890  0.4320
 2795TIP3    H229801   4.852   0.298  14.903  0.1878 -0.1472 -1.8823
 2796TIP3   OH229802   3.497   1.723  15.887 -0.0094 -0.2169  0.0465
 2796TIP3    H129803   3.439   1.659  15.927  0.2598 -1.1055 -0.9621
 2796TIP3    H229804   3.484   1.802  15.939  0.7571 -1.4849  2.2720
 2797TIP3   OH229805   4.819   1.250   4.611  0.3619  0.2586 -0.2207
 2797TIP3    H129806   4.774   1.301   4.679  0.6952 -0.8776  0.8797
 2797TIP3    H229807   4.749   1.203   4.566  0.0860  1.4520 -1.0355
 2798TIP3   OH229808   2.954   2.924   0.152  0.0382  0.1118 -0.4240
 2798TIP3    H129809   2.992   3.005   0.118  0.3370 -0.1546 -0.7238
 2798TIP3    H229810   2.876   2.952   0.200 -0.4027  0.4858 -1.3566
 2799TIP3   OH229811   0.598   4.643  11.110 -0.0959 -0.5022 -0.3247
 2799TIP3    H129812   0.588   4.613  11.020 -0.7823 -0.0934 -0.3889
 2799TIP3    H229813   0.608   4.738  11.103  1.0456 -0.5984 -0.0528
 2800TIP3   OH229814   2.124   4.001  14.509 -0.3412 -0.6594  0.3279
 2800TIP3    H129815   2.104   4.063  14.579  1.2042 -0.9721  1.0755
 2800TIP3    H229816   2.059   3.932  14.519  0.9673 -1.6114  2.6308
 2801TIP3   OH229817   6.678   4.509  16.696  1.0121  0.0215 -1.0175
 2801TIP3    H129818   6.621   4.443  16.657  0.5616 -0.4995  0.4824
 2801TIP3    H229819   6.757   4.508  16.642 -0.0525  0.1688 -2.6235
 2802TIP3   OH229820   1.589   1.980  10.782 -0.1382  0.0915 -0.0254
 2802TIP3    H129821   1.641   2.002  10.705  0.2176 -0.7314 -0.0322
 2802TIP3    H229822   1.649   1.991  10.856 -0.8412  2.1162  0.2707
 2803TIP3   OH229823   5.832   3.663   4.744  0.1429 -0.1992  0.0033
 2803TIP3    H129824   5.919   3.625   4.732  0.5799  1.5894 -3.0572
 2803TIP3    H229825   5.772   3.595   4.711  0.6856  0.2594 -2.0043
 2804TIP3   OH229826   2.606   6.751   4.116  0.2714  0.1301 -0.1710
 2804TIP3    H129827   2.671   6.683   4.101 -1.8245 -2.0631  0.4528
 2804TIP3    H229828   2.535   6.730   4.056 -1.6341  0.0738  2.0369
 2805TIP3   OH229829   5.821   6.410  16.697  0.4063 -0.2383 -0.1590
 2805TIP3    H129830   5.788   6.321  16.681 -1.9756  0.5298  0.3703
 2805TIP3    H229831   5.883   6.399  16.769  0.8403 -1.5928 -0.7072
 2806TIP3   OH229832   1.571   2.857  15.080 -0.7711  0.0427  0.7109
 2806TIP3    H129833   1.612   2.935  15.118 -0.7392  0.5442 -0.3390
 2806TIP3    H229834   1.644   2.807  15.044 -1.0504  0.8270 -0.9638
 2807TIP3   OH229835   4.619   0.565  16.580 -0.1053  0.4855 -0.2672
 2807TIP3    H129836   4.608   0.495  16.645  1.2052 -0.8544 -1.4561
 2807TIP3    H229837   4.646   0.641  16.631 -0.8179 -0.0599  0.9587
 2808TIP3   OH229838   1.314   4.180   1.001  0.7495  0.0908 -0.6966
 2808TIP3    H129839   1.384   4.129   0.960  0.8323  0.2648 -0.7732
 2808TIP3    H229840   1.360   4.251   1.046  0.7094 -0.4444  0.2074
 2809TIP3   OH229841   6.491   1.755  12.315  0.4904  0.6128  0.5432
 2809TIP3    H129842   6.501   1.850  12.305 -0.0315  0.6702  0.5701
 2809TIP3    H229843   6.486   1.741  12.409  0.5127  0.5607  0.5370
 2810TIP3   OH229844   0.163   2.701   3.639 -0.2607 -0.6492 -0.3816
 2810TIP3    H129845   0.132   2.759   3.569  1.6882  1.2445  0.2813
 2810TIP3    H229846   0.190   2.760   3.709  2.1460 -2.3491  0.1664
 2811TIP3   OH229847   6.362   3.491   4.386  0.3734 -0.3733  0.4108
 2811TIP3    H129848   6.382   3.438   4.308 -2.1548 -1.2189  0.2998
 2811TIP3    H229849   6.397   3.440   4.459  1.0545 -0.4852  0.0174
 2812TIP3   OH229850   2.947   0.618   2.700 -0.6579 -0.3972 -0.4293
 2812TIP3    H129851   2.894   0.598   2.777 -1.9883  0.1679 -1.1722
 2812TIP3    H229852   2.890   0.673   2.646  0.0855 -1.1742 -2.0351
 2813TIP3   OH229853   1.324   5.250  16.546 -0.0734  0.0495  0.0692
 2813TIP3    H129854   1.266   5.316  16.584  1.9435  0.9607  1.6920
 2813TIP3    H229855   1.412   5.281  16.566  0.9824 -1.7185 -1.6134
 2814TIP3   OH229856   2.937   5.809   5.671  0.5132  0.2185  0.3136
 2814TIP3    H129857   2.948   5.876   5.739 -0.7304  1.2676 -0.4818
 2814TIP3    H229858   3.005   5.744   5.690 -0.1334  0.2052  2.8779
 2815TIP3   OH229859   3.207   3.196   3.411 -0.5215  0.1676  0.0190
 2815TIP3    H129860   3.128   3.245   3.435  1.0286  1.8879  1.8505
 2815TIP3    H229861   3.241   3.241   3.334 -0.6416  0.2554  0.0181
 2816TIP3   OH229862   3.620   3.562  15.143 -0.1659 -0.2147  0.4682
 2816TIP3    H129863   3.567   3.570  15.064 -3.1241 -1.7646  2.1715
 2816TIP3    H229864   3.611   3.470  15.168  0.9792  0.1726  2.4037
 2817TIP3   OH229865   5.615   0.294   3.466  0.1772  0.0175  0.6481
 2817TIP3    H129866   5.671   0.364   3.431  3.5783 -2.0302  1.8070
 2817TIP3    H229867   5.600   0.320   3.557  2.4158 -1.2584  1.4237
 2818TIP3   OH229868   5.701   6.722  12.005  0.0639 -0.5239 -0.4206
 2818TIP3    H129869   5.711   6.802  11.955 -0.7696  0.7527  1.3888
 2818TIP3    H229870   5.610   6.695  11.992 -0.2805  0.0441  0.6785
 2819TIP3   OH229871   2.666   3.645  15.211 -1.0562 -0.6979  0.0329
 2819TIP3    H129872   2.647   3.652  15.117 -0.6972 -1.5229 -0.1050
 2819TIP3    H229873   2.623   3.721  15.250 -0.5989  0.0413 -0.8925
 2820TIP3   OH229874   4.336   4.500   5.236 -0.5064 -0.0425 -0.2455
 2820TIP3    H129875   4.273   4.571   5.248 -0.2381  0.1442  0.0612
 2820TIP3    H229876   4.421   4.544   5.230 -0.4117 -0.2836 -0.7751
 2821TIP3   OH229877   3.419   4.286   5.807  0.1244 -0.4579 -0.0394
 2821TIP3    H129878   3.483   4.347   5.771  1.0554 -1.1914  0.3576
 2821TIP3    H229879   3.349   4.342   5.841  0.6578  0.3564 -0.2755
 2822TIP3   OH229880   5.916   3.994  11.177  0.5448 -0.4871  0.2112
 2822TIP3    H129881   5.847   3.943  11.134  0.5056 -0.9705  0.8420
 2822TIP3    H229882   5.881   4.083  11.182 -0.2644 -0.8389  1.0126
 2823TIP3   OH229883   1.474   6.382  11.522  0.0512 -0.2616  0.1876
 2823TIP3    H129884   1.566   6.393  11.499  0.0736  1.8634  1.1996
 2823TIP3    H229885   1.472   6.306  11.579  0.9562 -1.2319 -1.0361
 2824TIP3   OH229886   1.078   2.209   2.899 -0.3669 -0.3808  0.7737
 2824TIP3    H129887   1.099   2.302   2.895  0.5903 -0.6623 -1.4712
 2824TIP3    H229888   1.136   2.174   2.966  0.9849  0.2229 -0.0651
 2825TIP3   OH229889   4.069   5.064   4.318 -0.1772  0.2344 -0.5123
 2825TIP3    H129890   4.140   5.026   4.266  1.0341  1.6319  0.0720
 2825TIP3    H229891   4.044   4.994   4.378  1.7832  0.2042  0.3187
 2826TIP3   OH229892   4.141   1.858   1.763 -0.3556 -0.0454 -0.0988
 2826TIP3    H129893   4.184   1.920   1.822 -0.7896  0.0985  0.0651
 2826TIP3    H229894   4.172   1.883   1.675 -0.0347  0.0018  0.0283
 2827TIP3   OH229895   4.863   4.117   3.367 -0.3743  0.4669 -0.0935
 2827TIP3    H129896   4.950   4.146   3.341  0.4930  0.0555  2.2192
 2827TIP3    H229897   4.833   4.184   3.428 -1.3686  0.1933 -0.2670
 2828TIP3   OH229898   0.809   1.266   3.977 -0.5416 -0.3375  0.4715
 2828TIP3    H129899   0.736   1.317   4.013 -0.5048 -1.0932  1.6606
 2828TIP3    H229900   0.770   1.183   3.951 -0.1865 -0.5884  0.7290
 2829TIP3   OH229901   4.196   1.167   5.620 -0.2951  0.1354  0.4592
 2829TIP3    H129902   4.117   1.168   5.567 -0.2663 -0.5176  0.4026
 2829TIP3    H229903   4.256   1.226   5.574 -0.6554  0.4248  0.3591
 2830TIP3   OH229904   5.593   3.666   1.300  0.5419 -0.3119 -0.1829
 2830TIP3    H129905   5.570   3.753   1.266  0.1015 -0.8921 -1.4008
 2830TIP3    H229906   5.514   3.613   1.286  0.9266 -1.0034  0.2330
 2831TIP3   OH229907   6.488   2.574  17.209  0.5833  0.8669 -0.3162
 2831TIP3    H129908   6.469   2.505  17.145 -2.0154  1.0763  0.1737
 2831TIP3    H229909   6.557   2.537  17.264  0.6845 -0.5210 -1.3295
 2832TIP3   OH229910   4.613   2.946  13.828 -0.1198  0.4643  0.1825
 2832TIP3    H129911   4.534   2.998  13.811 -0.9657 -1.2009 -1.1922
 2832TIP3    H229912   4.616   2.883  13.756  1.7222 -0.3948  0.9745
 2833TIP3   OH229913   4.930   0.578   0.202  0.6125 -0.2229 -0.1003
 2833TIP3    H129914   4.966   0.522   0.271  0.5610  0.9076  0.8578
 2833TIP3    H229915   4.968   0.665   0.220 -1.0520  0.5461 -0.2513
 2834TIP3   OH229916   1.204   3.374   3.842 -0.1759 -0.3111  0.1323
 2834TIP3    H129917   1.207   3.322   3.922  0.1263 -0.1429  0.2336
 2834TIP3    H229918   1.115   3.409   3.838  0.0159  0.2518  0.7662
 2835TIP3   OH229919   4.982   3.594   3.197  0.6987 -1.1492 -1.1109
 2835TIP3    H129920   4.894   3.568   3.170 -0.6940  1.0705  1.0793
 2835TIP3    H229921   5.002   3.670   3.142  0.9217 -1.1822 -1.0742
 2836TIP3   OH229922   2.331   3.320   1.040  0.7352 -0.2733 -0.2643
 2836TIP3    H129923   2.265   3.252   1.023 -0.0211  0.4524 -0.2609
 2836TIP3    H229924   2.337   3.368   0.957 -0.2362  0.9393  0.3555
 2837TIP3   OH229925   5.794   1.683   2.539 -0.0509 -0.1111  0.3372
 2837TIP3    H129926   5.833   1.708   2.623 -0.0852  1.9879 -0.2531
 2837TIP3    H229927   5.868   1.646   2.490  0.2573 -0.1274  0.8021
 2838TIP3   OH229928   6.649   2.955   5.267  0.2294  0.5918  0.5261
 2838TIP3    H129929   6.685   2.875   5.303  0.4176  0.5774  0.3065
 2838TIP3    H229930   6.678   2.956   5.176  0.1695  0.8724  0.5088
 2839TIP3   OH229931   5.812   4.609   1.757 -0.1338 -0.0351  0.0492
 2839TIP3    H129932   5.718   4.601   1.742 -0.1524  0.2453  0.0026
 2839TIP3    H229933   5.851   4.594   1.671 -0.1593  0.2276 -0.0088
 2840TIP3   OH229934   2.928   4.879  13.118  0.9150 -0.3756  0.4907
 2840TIP3    H129935   3.007   4.931  13.102  2.2041 -1.9123  1.6441
 2840TIP3    H229936   2.953   4.790  13.092 -0.9036 -0.6325 -0.4344
 2841TIP3   OH229937   3.462   3.631  13.301  0.0890 -0.5113  0.6287
 2841TIP3    H129938   3.444   3.657  13.392  0.4009 -0.3340  0.6419
 2841TIP3    H229939   3.532   3.691  13.273  1.8211 -2.2436  1.1303
 2842TIP3   OH229940   4.321   0.403   1.449 -0.2672  0.1089 -0.2202
 2842TIP3    H129941   4.377   0.478   1.429 -0.8478  0.4870 -0.4212
 2842TIP3    H229942   4.234   0.439   1.459 -0.1992 -0.2557  1.7833
 2843TIP3   OH229943   3.453   1.967  11.065  0.3884 -0.1748  0.0177
 2843TIP3    H129944   3.394   1.913  11.012  0.3827 -2.1494  1.9853
 2843TIP3    H229945   3.540   1.930  11.048  0.0825 -2.7747  3.5685
 2844TIP3   OH229946   1.246   0.620  12.179 -0.2876  0.7176  0.1433
 2844TIP3    H129947   1.211   0.647  12.264 -0.3843 -0.2818  0.4280
 2844TIP3    H229948   1.201   0.675  12.115  0.1205  1.7906  0.7729
 2845TIP3   OH229949   3.890   4.287   5.679  0.1303  0.1856 -0.1301
 2845TIP3    H129950   3.808   4.238   5.687 -0.6563  1.6017  0.6396
 2845TIP3    H229951   3.913   4.279   5.586 -1.6787  1.0167 -0.6866
 2846TIP3   OH229952   1.531   2.161   2.388  0.3629  0.2541 -0.0006
 2846TIP3    H129953   1.608   2.174   2.444 -0.1501  1.2273  0.4837
 2846TIP3    H229954   1.499   2.249   2.370 -1.7016 -0.1982  1.2720
 2847TIP3   OH229955   1.526   6.131  14.554  0.4755 -0.2096 -0.3679
 2847TIP3    H129956   1.590   6.072  14.593  0.4812  0.2221  0.2903
 2847TIP3    H229957   1.510   6.096  14.467 -0.9553 -2.2835  0.6873
 2848TIP3   OH229958   3.354   3.031   3.822 -0.6126  0.3591 -0.4870
 2848TIP3    H129959   3.372   3.007   3.913 -0.2588 -3.2012 -1.4262
 2848TIP3    H229960   3.261   3.053   3.821 -0.8674 -0.6486  0.5324
 2849TIP3   OH229961   3.338   3.157  15.375 -0.0506 -0.1612  0.1128
 2849TIP3    H129962   3.334   3.210  15.455 -1.7393  0.4619 -0.3666
 2849TIP3    H229963   3.384   3.077  15.402  2.5744  1.5236  0.8384
 2850TIP3   OH229964   4.758   1.086   2.678 -0.6576 -0.1584 -0.8640
 2850TIP3    H129965   4.786   1.040   2.757 -0.0135  1.7245  0.0276
 2850TIP3    H229966   4.839   1.109   2.634 -0.9635  0.4076 -1.1321
 2851TIP3   OH229967   5.043   3.885  16.600  0.2499 -0.1145 -0.7080
 2851TIP3    H129968   4.964   3.870  16.651  0.6842 -0.5685 -0.1665
 2851TIP3    H229969   5.094   3.947  16.653  0.7912 -0.7437 -0.4971
 2852TIP3   OH229970   6.260   1.978  16.772  0.1050 -0.4005  0.1345
 2852TIP3    H129971   6.347   1.943  16.786  0.4800  0.1682 -0.7236
 2852TIP3    H229972   6.272   2.072  16.763 -0.6498 -0.2651  0.4738
 2853TIP3   OH229973   2.627   1.550   1.224  0.0712 -0.0049 -0.1105
 2853TIP3    H129974   2.700   1.578   1.279  0.6439  1.1842 -1.4540
 2853TIP3    H229975   2.580   1.486   1.277  2.2382 -0.9805  0.6672
 2854TIP3   OH229976   0.507   6.164  15.009  0.2669  0.5992 -0.3247
 2854TIP3    H129977   0.543   6.245  15.044  0.6954 -0.5701  2.0797
 2854TIP3    H229978   0.510   6.103  15.083 -3.1268 -0.6499 -1.1545
 2855TIP3   OH229979   1.416   0.268   1.545  0.3407 -0.3435  0.1804
 2855TIP3    H129980   1.431   0.195   1.606 -2.2305  0.7898  2.2721
 2855TIP3    H229981   1.338   0.242   1.496  0.2479  0.3713 -0.0518
 2856TIP3   OH229982   5.083   5.530  13.469  0.3873  0.3053  0.6862
 2856TIP3    H129983   5.132   5.510  13.389 -0.8084  0.7700 -0.1861
 2856TIP3    H229984   5.095   5.624  13.480 -0.8856  0.5577  0.0493
 2857TIP3   OH229985   5.880   5.252  13.722 -0.0354 -0.8124  0.3188
 2857TIP3    H129986   5.881   5.334  13.771  0.5689 -0.5402 -0.1380
 2857TIP3    H229987   5.960   5.206  13.750  0.1556 -0.7890 -0.1682
 2858TIP3   OH229988   5.744   1.305   0.356 -0.0052  0.1037  1.1813
 2858TIP3    H129989   5.751   1.400   0.345 -0.4770 -0.2387 -3.2196
 2858TIP3    H229990   5.650   1.288   0.352  0.1811 -0.6913  0.0318
 2859TIP3   OH229991   5.182   5.818   1.141  0.2259 -0.0036  0.0578
 2859TIP3    H129992   5.192   5.878   1.215 -1.3386 -1.2867  1.3663
 2859TIP3    H229993   5.226   5.738   1.169  1.2596  0.1140 -1.1855
 2860TIP3   OH229994   1.974   2.455   3.360 -0.0241 -0.1373 -0.7013
 2860TIP3    H129995   2.005   2.378   3.313 -1.3204 -1.1748  0.1028
 2860TIP3    H229996   1.956   2.423   3.449 -0.9751  0.9876 -0.4773
 2861TIP3   OH229997   1.583   0.655  11.999  0.4315  0.1798 -0.2719
 2861TIP3    H129998   1.513   0.633  11.937  0.7688 -1.5282 -0.0769
 2861TIP3    H229999   1.664   0.632  11.953  0.7918  0.6982  0.0930
 2862TIP3   OH230000   4.344   2.329  13.168 -0.2179 -0.1380  0.1183
 2862TIP3    H130001   4.300   2.352  13.086 -0.7043 -0.1797  0.3663
 2862TIP3    H230002   4.431   2.300  13.141 -0.7804 -1.2804 -0.4800
 2863TIP3   OH230003   5.842   2.678   5.019  0.1362  0.3009 -0.5321
 2863TIP3    H130004   5.760   2.630   5.008  0.3842 -0.0541 -0.8417
 2863TIP3    H230005   5.836   2.717   5.106  0.4008 -1.1822  0.1626
 2864TIP3   OH230006   1.283   6.029  11.980 -0.1241 -0.1106 -0.0484
 2864TIP3    H130007   1.223   5.979  11.925  0.7892 -0.8068 -0.4365
 2864TIP3    H230008   1.284   6.117  11.943 -0.7478 -0.1524 -0.1575
 2865TIP3   OH230009   6.353   5.753  13.013  0.0087 -0.6315  0.3244
 2865TIP3    H130010   6.331   5.687  12.947 -0.6885  1.2296 -1.3279
 2865TIP3    H230011   6.433   5.718  13.054  0.7503 -1.5989 -1.8255
 2866TIP3   OH230012   3.408   6.232   4.663  0.0003 -0.3043  0.2964
 2866TIP3    H130013   3.498   6.202   4.650  0.3295  1.4589 -1.7861
 2866TIP3    H230014   3.355   6.155   4.645  0.9981 -0.7530 -0.8058
 2867TIP3   OH230015   3.705   6.377   4.295 -0.2804  0.2475  0.5911
 2867TIP3    H130016   3.712   6.426   4.377 -1.1312  0.6348  0.4340
 2867TIP3    H230017   3.787   6.396   4.249  0.1829  0.0613  1.3299
 2868TIP3   OH230018   6.097   5.536   2.469  0.1153  0.2818  0.3666
 2868TIP3    H130019   6.069   5.624   2.442 -0.8885 -0.1689 -0.0442
 2868TIP3    H230020   6.033   5.477   2.430  2.0701 -0.8258 -1.2479
 2869TIP3   OH230021   2.405   6.684   0.285 -0.0790 -0.0321 -0.5133
 2869TIP3    H130022   2.458   6.746   0.234 -0.4854 -0.4788 -1.5073
 2869TIP3    H230023   2.469   6.625   0.325  0.3959  1.8933  1.6448
 2870TIP3   OH230024   1.294   0.960  16.716  0.2771  0.1370  0.2168
 2870TIP3    H130025   1.213   0.975  16.667 -0.2147  1.7860  1.4922
 2870TIP3    H230026   1.363   0.993  16.658  0.0747 -1.4208 -0.9429
 2871TIP3   OH230027   3.183   2.722  16.691  0.0776  0.4414  0.0970
 2871TIP3    H130028   3.159   2.638  16.651  1.6123  0.5094 -0.9739
 2871TIP3    H230029   3.142   2.787  16.635  1.0518  0.4923 -0.5529
 2872TIP3   OH230030   5.702   1.994  13.307 -0.1017 -0.8080  0.6448
 2872TIP3    H130031   5.694   2.083  13.272  1.1427  0.4893  3.4535
 2872TIP3    H230032   5.612   1.966  13.321 -0.5055  0.1531  0.0342
 2873TIP3   OH230033   0.280   4.495   2.399 -0.3303 -0.0510 -0.0716
 2873TIP3    H130034   0.264   4.466   2.489 -1.6925  1.7968  0.3171
 2873TIP3    H230035   0.282   4.415   2.348  1.8521 -1.2500  1.7957
 2874TIP3   OH230036   3.610   0.550  12.528  0.3539  0.5038  0.0652
 2874TIP3    H130037   3.679   0.549  12.462  0.2129 -0.0732 -0.0804
 2874TIP3    H230038   3.591   0.642  12.542  1.2107  0.6676  0.1687
 2875TIP3   OH230039   3.147   4.938  17.155 -0.2413  0.5032  0.4471
 2875TIP3    H130040   3.097   4.865  17.119  0.1910  1.2625 -1.7739
 2875TIP3    H230041   3.082   5.006  17.172 -0.2406  0.7328 -0.4589
 2876TIP3   OH230042   1.010   4.823   4.935  0.0776 -0.4016  0.2691
 2876TIP3    H130043   1.005   4.869   5.019  1.2992 -1.5153  0.9654
 2876TIP3    H230044   1.097   4.783   4.934  0.0183 -0.5317 -1.4655
 2877TIP3   OH230045   4.396   1.581   6.286 -0.4080  0.4915  0.8711
 2877TIP3    H130046   4.330   1.644   6.255 -1.0530  0.1778  1.5725
 2877TIP3    H230047   4.344   1.508   6.320  0.3330 -0.8927 -0.8696
 2878TIP3   OH230048   0.895   4.166  13.851 -0.6812 -0.2972 -0.0047
 2878TIP3    H130049   0.825   4.101  13.841 -1.1351 -0.0685  1.5881
 2878TIP3    H230050   0.862   4.244  13.807 -1.7522  0.0471  1.4031
 2879TIP3   OH230051   3.251   2.963  11.874 -0.2677  0.5395  0.6562
 2879TIP3    H130052   3.243   3.017  11.795 -0.7034 -2.7849 -1.6851
 2879TIP3    H230053   3.160   2.946  11.900 -0.2005 -1.4318 -0.3446
 2880TIP3   OH230054   5.674   3.487  15.469  0.0909 -0.0120  0.6712
 2880TIP3    H130055   5.653   3.533  15.551  1.4450  1.9297 -0.0349
 2880TIP3    H230056   5.752   3.532  15.436  0.6712 -1.9962 -0.7383
 2881TIP3   OH230057   4.343   5.311  14.125 -0.1749  0.2602 -0.1698
 2881TIP3    H130058   4.425   5.267  14.150 -1.0773 -0.4965  1.5496
 2881TIP3    H230059   4.349   5.397  14.166  0.0995  0.4969 -0.7020
 2882TIP3   OH230060   0.005   5.568   2.623 -0.3956  0.4905 -0.4174
 2882TIP3    H130061   0.097   5.548   2.609 -0.3466  0.6588 -0.3375
 2882TIP3    H230062  -0.012   5.544   2.714 -0.1956  1.3258 -0.1479
 2883TIP3   OH230063   5.035   2.922  15.624 -0.2026 -0.0302  0.2979
 2883TIP3    H130064   5.046   2.956  15.712 -1.4602  0.6435  0.1979
 2883TIP3    H230065   4.965   2.856  15.632 -1.6579  1.3884 -0.5363
 2884TIP3   OH230066   6.185   0.873   5.309 -0.5516 -0.5734  0.2151
 2884TIP3    H130067   6.265   0.921   5.291  0.5781 -2.3905  0.2578
 2884TIP3    H230068   6.205   0.821   5.387 -1.5415 -1.5394 -0.1528
 2885TIP3   OH230069   1.082   6.204  11.104  0.6978 -0.2965 -0.6081
 2885TIP3    H130070   1.072   6.292  11.068 -0.8884 -0.4260 -0.5164
 2885TIP3    H230071   0.995   6.165  11.097  1.1597 -1.5156  0.2467
 2886TIP3   OH230072   5.060   0.373   5.185 -0.2123 -0.2595  0.2114
 2886TIP3    H130073   4.987   0.317   5.209 -0.2295 -1.1199 -1.8372
 2886TIP3    H230074   5.027   0.427   5.113  0.3549  1.1815  1.0019
 2887TIP3   OH230075   1.642   3.507  11.733  0.3956  0.1423 -0.2727
 2887TIP3    H130076   1.619   3.580  11.676  0.4956  0.6585  0.3427
 2887TIP3    H230077   1.609   3.532  11.819  1.2435 -0.1228  0.1364
 2888TIP3   OH230078   1.643   4.277   2.335 -0.3384 -0.0771  0.4368
 2888TIP3    H130079   1.573   4.220   2.367  0.1475 -0.2452  1.2248
 2888TIP3    H230080   1.712   4.268   2.401  0.3679  0.1881 -0.2647
 2889TIP3   OH230081   3.565   5.283  11.947 -0.1742 -0.0863 -0.6041
 2889TIP3    H130082   3.658   5.306  11.945 -0.1459 -0.0796  0.3790
 2889TIP3    H230083   3.564   5.191  11.976 -0.5338  0.4062  1.0077
 2890TIP3   OH230084   5.555   4.420  15.672 -0.5385 -0.0566  0.7129
 2890TIP3    H130085   5.474   4.405  15.721 -0.7294 -1.5807 -0.0265
 2890TIP3    H230086   5.612   4.347  15.696 -0.1886 -0.1592 -0.3819
 2891TIP3   OH230087   3.742   0.848  12.691 -0.2776  0.2300 -0.6029
 2891TIP3    H130088   3.673   0.894  12.642  0.2515 -0.0965 -1.6843
 2891TIP3    H230089   3.776   0.913  12.752 -1.7465  0.3067  0.1587
 2892TIP3   OH230090   3.928   2.441  15.460  0.0544  0.1048 -0.0715
 2892TIP3    H130091   4.004   2.383  15.451 -0.3478 -0.2890 -1.0069
 2892TIP3    H230092   3.853   2.382  15.463 -0.3209  0.5539 -0.5345
 2893TIP3   OH230093   0.974   3.168   2.664 -0.0602 -0.3445  0.3808
 2893TIP3    H130094   0.975   3.262   2.685  0.3448  0.4169 -2.7476
 2893TIP3    H230095   1.065   3.140   2.675  0.6503  0.6277 -2.5675
 2894TIP3   OH230096   0.158   0.262  14.645 -0.5507 -0.6239 -0.0357
 2894TIP3    H130097   0.161   0.261  14.549  0.3606 -1.7102 -0.0045
 2894TIP3    H230098   0.224   0.328  14.670  1.4073 -2.4904 -0.1080
 2895TIP3   OH230099   4.704   6.521  16.981 -0.1128 -0.7589 -0.0508
 2895TIP3    H130100   4.645   6.595  16.971 -0.8006 -1.3811 -0.7142
 2895TIP3    H230101   4.768   6.530  16.910  0.6728 -0.0208  0.7345
 2896TIP3   OH230102   2.483   5.389  14.283  0.1096 -0.2754 -0.1202
 2896TIP3    H130103   2.512   5.479  14.300 -0.3209 -0.2236  0.3464
 2896TIP3    H230104   2.533   5.336  14.346 -0.8302 -0.1826  0.7161
 2897TIP3   OH230105   1.600   1.708   1.791  0.1075 -0.2824  0.2849
 2897TIP3    H130106   1.548   1.632   1.818 -0.9572  0.1408 -0.5427
 2897TIP3    H230107   1.646   1.679   1.712 -0.1141 -0.1459  0.1054
 2898TIP3   OH230108   4.377   3.246  14.256 -0.0106  0.9644  0.5104
 2898TIP3    H130109   4.433   3.321  14.237  0.6610  0.6207  1.0738
 2898TIP3    H230110   4.424   3.171  14.220  0.0276  0.6389  1.2143
 2899TIP3   OH230111   0.673   2.472  15.500  0.1261  0.4142 -0.4056
 2899TIP3    H130112   0.747   2.510  15.453  0.4982  0.8890  0.5550
 2899TIP3    H230113   0.711   2.437  15.581 -0.5727 -0.0422 -0.2660
 2900TIP3   OH230114   5.180   0.586   4.048 -0.0060  0.3726  0.3423
 2900TIP3    H130115   5.226   0.536   3.980 -2.2845  1.3864 -2.0476
 2900TIP3    H230116   5.245   0.646   4.082  0.9228  0.6141 -1.7629
 2901TIP3   OH230117   4.542   3.654   0.050  0.1835  0.6334 -0.2711
 2901TIP3    H130118   4.529   3.680   0.142 -0.9704  0.5574 -0.4125
 2901TIP3    H230119   4.611   3.588   0.054  0.1659  0.6548  0.5432
 2902TIP3   OH230120   4.846   5.011   3.075  0.6503 -0.1768 -0.2794
 2902TIP3    H130121   4.811   5.070   3.008  0.4156  0.8275  0.7146
 2902TIP3    H230122   4.907   5.065   3.125  0.9748 -0.9750  0.1920
 2903TIP3   OH230123   5.458   5.952   1.755 -0.1966 -0.1074 -0.6504
 2903TIP3    H130124   5.450   5.949   1.850  0.5796 -0.8036 -0.5928
 2903TIP3    H230125   5.472   5.860   1.730 -2.5499 -0.2328 -1.6432
 2904TIP3   OH230126   4.458   3.118  13.092  0.8407 -0.1558 -0.3050
 2904TIP3    H130127   4.416   3.169  13.161  0.2242  0.3026 -1.0173
 2904TIP3    H230128   4.549   3.150  13.091  0.6329  0.4458 -0.2833
 2905TIP3   OH230129   1.925   5.502  11.848 -0.0541 -0.4178  0.2466
 2905TIP3    H130130   1.982   5.500  11.772 -0.8137 -1.2482 -0.3117
 2905TIP3    H230131   1.984   5.496  11.923  0.9521  3.5088 -0.1412
 2906TIP3   OH230132   5.911   0.168  14.643 -0.2521 -0.4256 -0.5015
 2906TIP3    H130133   5.962   0.094  14.677 -0.0657 -0.3536 -0.6259
 2906TIP3    H230134   5.833   0.171  14.699  0.4897  0.2552  0.5016
 2907TIP3   OH230135   0.733   4.926   5.449  0.0670 -0.1746  0.1458
 2907TIP3    H130136   0.744   4.979   5.528 -1.9324  0.2179  0.1942
 2907TIP3    H230137   0.764   4.982   5.378 -3.1739  1.6368  0.0387
 2908TIP3   OH230138   3.555   3.241   1.759  0.3156 -0.3366 -0.2265
 2908TIP3    H130139   3.593   3.232   1.846 -0.8155  0.1056  0.3347
 2908TIP3    H230140   3.476   3.293   1.774  0.8363  0.9016 -1.7266
 2909TIP3   OH230141   2.890   5.003   1.377 -0.1137  0.6256 -0.1724
 2909TIP3    H130142   2.844   5.009   1.461 -0.6579  0.9127 -0.4924
 2909TIP3    H230143   2.956   4.935   1.391  0.3376  1.2438  0.7470
 2910TIP3   OH230144   3.230   4.766  15.949 -0.3562  0.2351  0.6323
 2910TIP3    H130145   3.199   4.767  16.039  2.1385  3.0843  1.5489
 2910TIP3    H230146   3.320   4.735  15.954  0.1158  1.3004 -0.7308
 2911TIP3   OH230147   5.376   0.169  12.953 -0.7824 -0.6416 -0.1037
 2911TIP3    H130148   5.416   0.123  12.879 -2.6076 -1.6049 -0.5220
 2911TIP3    H230149   5.434   0.149  13.027  0.1136 -1.0948 -0.9091
 2912TIP3   OH230150   0.043   3.623  13.118  0.7100  0.2567  0.2054
 2912TIP3    H130151   0.018   3.554  13.180 -0.7706  2.0612  1.6727
 2912TIP3    H230152   0.137   3.632  13.128  0.6599 -0.3604  1.2841
 2913TIP3   OH230153   2.031   3.640   3.640  0.1660 -0.3791  0.0965
 2913TIP3    H130154   1.953   3.691   3.664  1.2170  1.5749 -0.4738
 2913TIP3    H230155   2.090   3.652   3.715  1.2707  1.0763 -0.9873
 2914TIP3   OH230156   4.286   3.753   1.786 -0.0532 -0.2453 -0.0660
 2914TIP3    H130157   4.353   3.713   1.842  0.2159 -0.2767 -0.4122
 2914TIP3    H230158   4.283   3.844   1.815 -1.0491 -0.6405  1.0921
 2915TIP3   OH230159   6.753   3.029   0.320 -0.6856  0.2928 -0.1356
 2915TIP3    H130160   6.662   3.018   0.347 -0.8439  1.2747 -0.2272
 2915TIP3    H230161   6.763   2.971   0.245 -1.4848  0.7880 -0.6392
 2916TIP3   OH230162   6.081   5.751   0.133 -0.2269 -0.0225 -0.0772
 2916TIP3    H130163   6.064   5.804   0.055  2.0492  0.4704 -0.2799
 2916TIP3    H230164   6.007   5.691   0.138  0.0989 -0.8001 -3.2623
 2917TIP3   OH230165   2.998   4.260  12.742  0.8106  0.1879 -0.3367
 2917TIP3    H130166   3.019   4.344  12.702  0.1126  1.4629  1.8565
 2917TIP3    H230167   3.077   4.237  12.791  1.4421 -1.0647 -1.8917
 2918TIP3   OH230168   1.700   4.782   1.259 -0.5074  0.3634 -0.1364
 2918TIP3    H130169   1.628   4.775   1.322  0.2654 -0.8884  0.6316
 2918TIP3    H230170   1.690   4.869   1.221 -2.1466  0.3860  0.2997
 2919TIP3   OH230171   4.573   3.046   5.637 -0.2223  0.0264 -0.5425
 2919TIP3    H130172   4.634   3.046   5.564  0.5820  3.2692  0.0539
 2919TIP3    H230173   4.627   3.064   5.714 -1.4778 -0.2418  0.4299
 2920TIP3   OH230174   5.924   4.518   0.379 -0.3356  0.5999  0.3709
 2920TIP3    H130175   5.955   4.566   0.456  1.3252  0.2595 -0.0640
 2920TIP3    H230176   5.965   4.432   0.387 -2.4882 -0.4470  0.6247
 2921TIP3   OH230177   5.226   3.457  12.344  0.4028 -0.0073  0.2733
 2921TIP3    H130178   5.275   3.377  12.366 -0.4617 -0.3496  0.9593
 2921TIP3    H230179   5.195   3.442  12.255  0.3924 -0.3667  0.3358
 2922TIP3   OH230180   4.421   2.460   2.546  0.1797 -0.0337 -0.2800
 2922TIP3    H130181   4.402   2.377   2.589 -1.3420 -1.2563 -3.1309
 2922TIP3    H230182   4.374   2.526   2.596 -0.9442 -1.3025  0.3588
 2923TIP3   OH230183   3.084   0.220   0.950 -0.9466 -0.1368  0.1623
 2923TIP3    H130184   3.051   0.234   0.861 -1.8179 -1.2196  0.2974
 2923TIP3    H230185   3.079   0.125   0.962  0.5192 -0.1393  0.8584
 2924TIP3   OH230186   2.716   6.568  11.868 -0.6700  0.5739 -0.0985
 2924TIP3    H130187   2.685   6.546  11.780 -1.9658  0.7831  0.2996
 2924TIP3    H230188   2.704   6.487  11.918 -1.1017  0.8194  0.1970
 2925TIP3   OH230189   1.021   0.040  16.551 -0.5255 -0.2058 -0.1064
 2925TIP3    H130190   1.056   0.019  16.637 -1.6100 -1.6278  0.0119
 2925TIP3    H230191   1.090   0.015  16.490  0.0552  0.3535  0.3169
 2926TIP3   OH230192   3.445   3.631   4.220 -0.0405 -0.1630  0.3264
 2926TIP3    H130193   3.394   3.642   4.140  0.3129  0.8413  0.2266
 2926TIP3    H230194   3.383   3.596   4.283 -0.2252 -1.3432 -0.4966
 2927TIP3   OH230195   0.546   5.220   0.158 -0.3755 -0.0678  0.2554
 2927TIP3    H130196   0.513   5.288   0.216 -1.3373 -0.3928  0.0862
 2927TIP3    H230197   0.604   5.167   0.214 -1.4826 -0.5216  0.9747
 2928TIP3   OH230198   2.762   3.136  13.014  0.5677 -1.0123 -0.5917
 2928TIP3    H130199   2.723   3.100  12.934  1.7796 -1.8604 -0.8140
 2928TIP3    H230200   2.689   3.141  13.076 -0.2565 -0.9246 -1.5426
 2929TIP3   OH230201   1.194   3.484  14.258  0.0124 -0.3605 -0.3794
 2929TIP3    H130202   1.261   3.416  14.250 -0.1805 -0.4258 -1.5204
 2929TIP3    H230203   1.111   3.437  14.251 -0.1331 -0.0923 -0.4648
 2930TIP3   OH230204   6.744   2.205   5.967 -0.0435  0.2698 -0.4191
 2930TIP3    H130205   6.767   2.236   6.054  0.2630 -1.6589  0.2129
 2930TIP3    H230206   6.719   2.284   5.919  0.8606  1.4871  1.0696
 2931TIP3   OH230207   3.866   2.992  13.842  0.1098 -0.7739  0.3916
 2931TIP3    H130208   3.919   2.918  13.812 -0.1002 -0.6039 -0.4185
 2931TIP3    H230209   3.928   3.055  13.877  0.4686 -0.5317 -0.6441
 2932TIP3   OH230210   3.300   6.541   1.515  0.4093  1.1249  0.6075
 2932TIP3    H130211   3.228   6.515   1.458  0.5077 -0.8020  1.3198
 2932TIP3    H230212   3.378   6.509   1.471  0.5355  0.1886  1.4852
 2933TIP3   OH230213   1.115   0.064  13.762  1.1452 -0.2119 -0.2988
 2933TIP3    H130214   1.122   0.158  13.744 -0.1128  0.4549  2.3401
 2933TIP3    H230215   1.205   0.036  13.776  1.4241  0.9128  0.2490
 2934TIP3   OH230216   4.984   1.863  15.037  0.4150  0.1414 -0.1166
 2934TIP3    H130217   5.057   1.904  14.990  1.1415 -1.6749 -0.6291
 2934TIP3    H230218   5.014   1.859  15.128  0.8068 -0.2625 -0.2609
 2935TIP3   OH230219   3.005   5.726   4.175 -0.1237 -0.3518 -0.1469
 2935TIP3    H130220   3.083   5.693   4.219  0.3701 -1.6932 -1.9664
 2935TIP3    H230221   2.932   5.683   4.220  0.2604 -0.3304  0.5048
 2936TIP3   OH230222   3.489   0.070   4.608 -0.0769  0.2853  0.0437
 2936TIP3    H130223   3.408   0.050   4.561 -1.2509  0.3704  2.0013
 2936TIP3    H230224   3.527  -0.015   4.628  0.1075  0.2370 -0.5035
 2937TIP3   OH230225   6.196   0.831  15.668  0.6688 -0.3634 -0.3088
 2937TIP3    H130226   6.160   0.912  15.632  1.9181  0.1774 -0.3523
 2937TIP3    H230227   6.160   0.827  15.757 -0.5396 -0.5063 -0.7909
 2938TIP3   OH230228   0.715   4.629   0.773 -0.2866 -0.4968 -0.0663
 2938TIP3    H130229   0.721   4.604   0.865  0.0656 -1.5153 -0.3538
 2938TIP3    H230230   0.696   4.723   0.774 -0.2958 -0.5072  1.0383
 2939TIP3   OH230231   6.450   4.551  10.428  0.0244 -0.6242 -0.9935
 2939TIP3    H130232   6.372   4.607  10.432  0.3381 -0.0898 -2.0536
 2939TIP3    H230233   6.523   4.611  10.437  0.3431 -0.9806 -1.2044
 2940TIP3   OH230234   4.509   0.435   4.946  0.3803 -0.7963 -0.1287
 2940TIP3    H130235   4.524   0.525   4.972 -1.7800 -1.4472  3.7245
 2940TIP3    H230236   4.592   0.406   4.907  1.2232  2.6358 -1.0300
 2941TIP3   OH230237   1.643   3.273   3.235  0.0219  0.4923 -0.4485
 2941TIP3    H130238   1.713   3.263   3.299 -0.6568 -0.4978  0.1632
 2941TIP3    H230239   1.563   3.277   3.287 -0.4482  0.7908 -1.1809
 2942TIP3   OH230240   0.777   3.376  10.926 -0.5936  0.0582 -0.5168
 2942TIP3    H130241   0.803   3.367  11.018 -1.1380  0.6774 -0.2985
 2942TIP3    H230242   0.771   3.286  10.894 -0.0416 -0.1480 -0.0484
 2943TIP3   OH230243   6.221   4.259  17.140 -0.5082  0.6655 -0.8040
 2943TIP3    H130244   6.175   4.269  17.224 -3.1756 -1.3080 -1.9439
 2943TIP3    H230245   6.193   4.334  17.088 -1.0150  0.4291 -0.8720
 2944TIP3   OH230246   3.123   2.749   5.110  1.3665  0.1948 -0.3022
 2944TIP3    H130247   3.126   2.726   5.202  1.6563  1.8263  0.1024
 2944TIP3    H230248   3.033   2.731   5.083  0.3043  3.0702  1.1907
 2945TIP3   OH230249   0.032   0.719   0.759 -0.7536 -0.3294 -0.2693
 2945TIP3    H130250  -0.015   0.788   0.711  1.1577  0.0488 -1.6515
 2945TIP3    H230251   0.093   0.767   0.816 -1.2586 -0.8377  0.7145
 2946TIP3   OH230252   0.347   4.737  11.049 -0.2070 -0.2006  0.2954
 2946TIP3    H130253   0.407   4.683  11.101 -1.3104 -0.6240  1.1495
 2946TIP3    H230254   0.404   4.794  10.998  0.9479 -1.1849  0.4629
 2947TIP3   OH230255   5.533   1.214  13.689 -0.0360  0.5845  0.0423
 2947TIP3    H130256   5.543   1.160  13.611 -0.0218  1.5329 -0.6200
 2947TIP3    H230257   5.443   1.198  13.718  0.2810 -0.5691  0.4525
 2948TIP3   OH230258   0.787   3.169  13.283  0.4595  0.4881  0.3537
 2948TIP3    H130259   0.775   3.201  13.193 -1.8602  2.6008  1.3709
 2948TIP3    H230260   0.846   3.233  13.323  0.5112  0.2298  0.6899
 2949TIP3   OH230261   5.237   1.929  12.929 -0.5031  0.2333  0.1044
 2949TIP3    H130262   5.142   1.929  12.943 -0.5329 -0.0132 -0.0928
 2949TIP3    H230263   5.269   1.855  12.981 -0.4658  0.0814 -0.1338
 2950TIP3   OH230264   0.757   5.379  16.715 -0.5631 -0.7971 -0.3023
 2950TIP3    H130265   0.710   5.380  16.798 -0.5793  0.1288 -0.3199
 2950TIP3    H230266   0.718   5.451  16.664  0.7807 -0.1004 -0.3576
 2951TIP3   OH230267   0.422   1.601   3.366 -0.5314 -0.5219  0.0718
 2951TIP3    H130268   0.448   1.660   3.437  0.7359 -0.4438 -0.4394
 2951TIP3    H230269   0.397   1.660   3.295  0.0474 -0.5800 -0.1911
 2952TIP3   OH230270   4.903   0.309  13.876 -0.4021 -0.5401  0.1954
 2952TIP3    H130271   4.954   0.320  13.796  0.4740 -1.7522  0.5763
 2952TIP3    H230272   4.889   0.398  13.908 -1.4109  0.0160 -1.6946
 2953TIP3   OH230273   3.641   6.618  11.006 -0.5197  0.3930  0.6873
 2953TIP3    H130274   3.674   6.622  10.917 -0.5610 -0.4196  0.6311
 2953TIP3    H230275   3.709   6.659  11.059 -0.7909  1.4817  0.2063
 2954TIP3   OH230276   6.161   0.523   1.264 -0.3348 -0.5307 -0.1524
 2954TIP3    H130277   6.146   0.472   1.184 -1.0240  0.7987 -0.8768
 2954TIP3    H230278   6.256   0.519   1.277 -0.1421 -0.2163 -1.4017
 2955TIP3   OH230279   5.736   1.177  11.077  0.1419 -0.1115  0.4787
 2955TIP3    H130280   5.745   1.124  10.998 -0.0736 -1.1127  1.1193
 2955TIP3    H230281   5.733   1.267  11.045  2.2315 -0.3487 -0.5245
 2956TIP3   OH230282   3.222   0.107  14.301 -0.8175  0.2569  0.1422
 2956TIP3    H130283   3.216   0.093  14.207 -2.9611  1.5655  0.0482
 2956TIP3    H230284   3.312   0.137  14.315 -0.1977 -0.8464 -1.3348
 2957TIP3   OH230285   5.775   0.996   5.986 -0.6592  0.3200 -0.1483
 2957TIP3    H130286   5.732   1.050   5.919  0.7986 -0.9065 -2.1499
 2957TIP3    H230287   5.843   0.950   5.938  1.1728  0.2489  2.4549
 2958TIP3   OH230288   2.576   5.189  16.437 -0.5122  0.1287 -0.0798
 2958TIP3    H130289   2.560   5.277  16.473  0.9300 -0.3025  1.6729
 2958TIP3    H230290   2.637   5.204  16.366 -2.0421  0.7918 -1.2888
 2959TIP3   OH230291   4.436   0.635   2.227 -0.0837  0.4576 -0.2036
 2959TIP3    H130292   4.430   0.661   2.319 -1.9063  0.4863 -0.3189
 2959TIP3    H230293   4.427   0.717   2.179 -2.4406  0.0664 -0.4774
 2960TIP3   OH230294   5.004   4.444  11.465 -0.2783 -0.2981  0.2937
 2960TIP3    H130295   5.010   4.421  11.372  0.1173 -0.7508  0.4349
 2960TIP3    H230296   4.982   4.538  11.464  1.8152  0.2069 -0.2470
 2961TIP3   OH230297   4.822   3.763   3.832  0.1809 -0.2525 -0.1978
 2961TIP3    H130298   4.874   3.740   3.754  1.0608  5.3798 -1.4966
 2961TIP3    H230299   4.743   3.804   3.796 -1.2134 -1.0945  1.8802
 2962TIP3   OH230300   0.715   2.557  14.801  0.1993 -0.0426  0.2246
 2962TIP3    H130301   0.763   2.554  14.718  0.7143  2.0829  0.4175
 2962TIP3    H230302   0.777   2.595  14.863 -0.1852 -1.6110  1.5996
 2963TIP3   OH230303   1.892   2.337   4.879 -0.1734  0.4062  0.2155
 2963TIP3    H130304   1.942   2.418   4.868  2.0198 -0.7345  1.4754
 2963TIP3    H230305   1.831   2.356   4.950  2.2727  0.1053  2.4619
 2964TIP3   OH230306   0.472   1.522   1.035 -0.2449 -0.4148  0.0609
 2964TIP3    H130307   0.448   1.612   1.054 -2.1643 -1.0248  0.6181
 2964TIP3    H230308   0.535   1.528   0.963 -0.6455  1.3347 -0.1453
 2965TIP3   OH230309   1.309   3.532   2.756  0.3446  0.0708  0.3091
 2965TIP3    H130310   1.232   3.587   2.770 -0.7527 -1.1899 -0.6075
 2965TIP3    H230311   1.325   3.535   2.662  1.2169  0.0559  0.4495
 2966TIP3   OH230312   4.919   6.153   5.797 -0.2879 -0.6215  0.2324
 2966TIP3    H130313   4.942   6.234   5.751 -0.2671 -0.3635  0.6937
 2966TIP3    H230314   4.931   6.174   5.890 -1.9972 -0.6139  0.4618
 2967TIP3   OH230315   2.004   2.949   0.584 -0.0444 -0.5016 -0.3492
 2967TIP3    H130316   1.939   2.923   0.519 -0.4128  0.1985 -0.2670
 2967TIP3    H230317   1.990   3.043   0.596  0.9584 -0.3470 -0.3035
 2968TIP3   OH230318   5.588   5.178   0.742 -0.1777  0.0420 -0.7787
 2968TIP3    H130319   5.526   5.205   0.675  1.6532  1.4011 -1.9940
 2968TIP3    H230320   5.674   5.190   0.701  0.9340 -0.3086  1.3632
 2969TIP3   OH230321   4.298   1.927  12.314  0.0356  0.0549  0.1898
 2969TIP3    H130322   4.349   2.005  12.337 -1.1631  0.6799  0.7592
 2969TIP3    H230323   4.219   1.933  12.367 -1.1485 -0.3239 -1.4774
 2970TIP3   OH230324   2.543   1.589   2.238 -0.0661  0.6173  0.1956
 2970TIP3    H130325   2.610   1.657   2.233 -0.2285  0.9255  1.7356
 2970TIP3    H230326   2.464   1.636   2.263 -0.4669  0.0285  0.0505
 2971TIP3   OH230327   1.155   1.194   1.311  0.4905  0.0847 -0.1296
 2971TIP3    H130328   1.236   1.217   1.356 -0.0191  2.4435 -0.3715
 2971TIP3    H230329   1.086   1.211   1.375 -0.0415  0.9945 -0.9482
 2972TIP3   OH230330   6.323   0.314   6.123 -0.1553 -0.1246  0.3563
 2972TIP3    H130331   6.384   0.249   6.089 -0.7794  0.1823 -1.3610
 2972TIP3    H230332   6.380   0.387   6.150  0.5112 -1.2078  1.9876
 2973TIP3   OH230333   5.902   0.444  15.717  0.2533 -0.6206  0.4213
 2973TIP3    H130334   5.829   0.501  15.694  0.2120 -0.4586  0.9460
 2973TIP3    H230335   5.917   0.390  15.639  0.6019  0.4256 -0.2403
 2974TIP3   OH230336   1.820   1.667  17.208 -0.1611 -0.0700 -0.3139
 2974TIP3    H130337   1.827   1.696  17.299 -0.0871  0.6096 -0.5313
 2974TIP3    H230338   1.908   1.677  17.172 -0.5046  1.0652 -0.8673
 2975TIP3   OH230339   5.144   5.469  12.533  0.0597 -0.2900 -0.1834
 2975TIP3    H130340   5.219   5.528  12.532 -0.3434  0.3614  2.9325
 2975TIP3    H230341   5.180   5.385  12.561 -0.0392 -0.5250 -0.7516
 2976TIP3   OH230342   6.753   1.476  14.758 -0.5722 -0.5228 -0.5878
 2976TIP3    H130343   6.778   1.391  14.723  1.7699  0.4557 -1.3797
 2976TIP3    H230344   6.815   1.493  14.829  0.3783  1.4580 -1.8384
 2977TIP3   OH230345   2.709   3.609  13.283 -0.1818  0.2898  0.0370
 2977TIP3    H130346   2.794   3.622  13.241 -0.2134 -0.7579 -0.3715
 2977TIP3    H230347   2.695   3.689  13.334  0.4651  1.0087 -0.8940
 2978TIP3   OH230348   4.311   3.765  12.653  0.0671  0.1027  0.2289
 2978TIP3    H130349   4.314   3.820  12.731 -0.4950 -0.7789  0.8844
 2978TIP3    H230350   4.227   3.785  12.612  0.5106  0.8144 -0.3372
 2979TIP3   OH230351   5.611   3.946  12.574  0.5470 -0.0189 -0.1374
 2979TIP3    H130352   5.685   3.905  12.617 -0.2483 -0.0141  1.2688
 2979TIP3    H230353   5.538   3.886  12.588 -0.2410  1.0678  0.4960
 2980TIP3   OH230354   1.551   3.560   4.737  0.2952  0.6259  0.0760
 2980TIP3    H130355   1.605   3.619   4.788 -0.9932  2.2148 -0.3711
 2980TIP3    H230356   1.486   3.616   4.695 -0.1592 -0.9324 -1.3911
 2981TIP3   OH230357   6.378   2.401   4.933 -0.1842  0.2022  0.2510
 2981TIP3    H130358   6.461   2.439   4.905  0.2371 -2.3701 -2.1482
 2981TIP3    H230359   6.402   2.340   5.003 -0.1605  0.1826  0.2260
 2982TIP3   OH230360   5.926   2.223  10.452 -0.4585  1.0874  0.2955
 2982TIP3    H130361   5.834   2.244  10.434 -0.5950  2.0011  1.9201
 2982TIP3    H230362   5.953   2.287  10.517 -0.1633 -2.1785  3.5858
 2983TIP3   OH230363   1.815   1.303  12.336  0.2830  0.8126  0.2682
 2983TIP3    H130364   1.762   1.382  12.321 -0.4895  0.3044  0.3153
 2983TIP3    H230365   1.755   1.230  12.320  0.6935  0.2358  1.3315
 2984TIP3   OH230366   2.909   6.240   4.928  0.7128 -0.5006 -0.2572
 2984TIP3    H130367   3.000   6.249   4.902  0.8938 -1.0285  0.1699
 2984TIP3    H230368   2.910   6.255   5.023 -0.0041  1.8811 -0.6004
 2985TIP3   OH230369   2.115   4.578  13.891  0.2326 -0.1082  0.4681
 2985TIP3    H130370   2.160   4.516  13.833  2.7966  2.0820  0.0095
 2985TIP3    H230371   2.182   4.605  13.953 -1.7860 -0.3684  2.8410
 2986TIP3   OH230372   4.490   4.521  14.948  0.3164  0.6318  0.3923
 2986TIP3    H130373   4.409   4.545  14.905  0.5389  1.5439  0.4662
 2986TIP3    H230374   4.527   4.604  14.979  0.9340  0.1615  0.9580
 2987TIP3   OH230375   5.141   3.739  12.158  0.5573  0.3394  0.2435
 2987TIP3    H130376   5.144   3.651  12.122  0.3192 -0.4018  1.9906
 2987TIP3    H230377   5.229   3.754  12.192  0.8555  1.1332 -0.8516
 2988TIP3   OH230378   3.671   1.664  15.591  0.0668 -0.8007 -0.2465
 2988TIP3    H130379   3.668   1.709  15.507 -0.0778 -2.6365 -1.2473
 2988TIP3    H230380   3.762   1.674  15.621  0.0723 -0.0012 -0.5345
 2989TIP3   OH230381   5.692   1.072   3.377 -0.7246 -0.0741  0.7216
 2989TIP3    H130382   5.659   1.160   3.362  1.4626  0.4236 -1.4426
 2989TIP3    H230383   5.665   1.023   3.299 -0.6515 -0.9473  1.2372
 2990TIP3   OH230384   0.588   5.331  16.362  0.0519 -0.0827 -0.7268
 2990TIP3    H130385   0.563   5.357  16.450  0.7019 -0.2332 -0.4978
 2990TIP3    H230386   0.575   5.237  16.359  0.9629 -0.2238 -0.4773
 2991TIP3   OH230387   0.264   3.095  14.679  0.0461 -0.2717  0.1207
 2991TIP3    H130388   0.209   3.159  14.723  2.1905  1.3459  0.5403
 2991TIP3    H230389   0.238   3.011  14.717 -0.7767  0.6840  1.7319
 2992TIP3   OH230390   1.184   2.221  10.534  0.2533 -0.4137  0.0242
 2992TIP3    H130391   1.088   2.214  10.530  0.0972  1.8117 -0.8710
 2992TIP3    H230392   1.202   2.311  10.507  2.6309 -0.8961 -0.0552
 2993TIP3   OH230393   0.324   0.759   0.464 -0.3943 -0.1320 -0.1195
 2993TIP3    H130394   0.234   0.792   0.459 -0.2242  0.6715  1.7642
 2993TIP3    H230395   0.314   0.664   0.462 -1.2336 -0.0325 -0.8043
 2994TIP3   OH230396   6.722   0.352  12.290 -0.3925  0.4500 -0.0534
 2994TIP3    H130397   6.741   0.400  12.370  0.4745 -3.2808  2.1188
 2994TIP3    H230398   6.639   0.308  12.307  0.8419 -2.0864 -0.2709
 2995TIP3   OH230399   4.494   5.385  13.368  0.2695 -0.7223 -0.2162
 2995TIP3    H130400   4.442   5.388  13.448  0.5506  1.1549 -0.0986
 2995TIP3    H230401   4.566   5.326  13.389  1.0591  0.7823  1.3644
 2996TIP3   OH230402   0.639   3.078  14.121  0.4979  0.0226  0.1441
 2996TIP3    H130403   0.609   3.020  14.191 -0.5548 -0.4804 -0.7071
 2996TIP3    H230404   0.615   3.033  14.040 -1.0355  1.9662 -0.5441
 2997TIP3   OH230405   4.552   0.624  17.076  0.4663  0.0605 -0.0655
 2997TIP3    H130406   4.627   0.653  17.128  0.0521  1.5608 -0.2687
 2997TIP3    H230407   4.500   0.571  17.137 -0.8017  3.0272  1.6094
 2998TIP3   OH230408   1.139   5.244   2.850  0.0571  0.2514 -0.7725
 2998TIP3    H130409   1.116   5.228   2.942  0.5020  0.0980 -0.6865
 2998TIP3    H230410   1.139   5.157   2.810 -0.9167  0.3960 -1.1071
 2999TIP3   OH230411   2.118   2.174  17.120 -0.3986 -0.3350 -0.0225
 2999TIP3    H130412   2.115   2.107  17.052  1.9543 -0.8203  0.3034
 2999TIP3    H230413   2.179   2.240  17.086 -0.7018  0.3629  0.7771
 3000TIP3   OH230414   4.371   2.001  16.653 -0.6062  0.2120 -0.6025
 3000TIP3    H130415   4.347   2.005  16.746  0.7106  1.6508 -0.3150
 3000TIP3    H230416   4.377   1.907  16.634 -0.9629 -0.0939  0.7454
 3001TIP3   OH230417   3.323   1.163  12.551  0.0668 -0.2625 -0.2416
 3001TIP3    H130418   3.297   1.256  12.551 -1.3225 -0.6275 -0.8424
 3001TIP3    H230419   3.372   1.152  12.632  0.3586  1.0314 -0.2210
 3002TIP3   OH230420   5.884   4.040  14.231 -0.0015 -0.6453  0.0628
 3002TIP3    H130421   5.796   4.007  14.250 -0.2112 -0.2977 -0.2974
 3002TIP3    H230422   5.915   4.076  14.315  0.2676 -1.8396  0.4802
 3003TIP3   OH230423   5.164   0.944  16.718 -0.2002 -0.6318  0.8825
 3003TIP3    H130424   5.075   0.914  16.736 -0.5679 -1.5607 -2.2725
 3003TIP3    H230425   5.172   0.941  16.623  3.7310 -2.0512  1.1618
 3004TIP3   OH230426   0.977   1.573  11.253 -0.2988 -0.4710 -0.3407
 3004TIP3    H130427   1.065   1.610  11.251 -0.0006 -1.0904  0.8174
 3004TIP3    H230428   0.977   1.515  11.329 -1.9711  0.2108  0.2142
 3005TIP3   OH230429   0.468   5.955   0.257  0.1262  0.2891 -0.5783
 3005TIP3    H130430   0.514   5.942   0.174  1.5435  0.0286  0.2354
 3005TIP3    H230431   0.516   5.902   0.320 -1.0295  0.3720  0.3849
 3006TIP3   OH230432   6.174   2.939   4.400 -0.0157 -0.0381  0.4380
 3006TIP3    H130433   6.122   2.869   4.439 -0.0898  0.6081  1.4898
 3006TIP3    H230434   6.202   2.993   4.473  1.4990  0.0578 -0.1911
 3007TIP3   OH230435   6.244   4.735  16.831 -0.0665  0.2745  0.1291
 3007TIP3    H130436   6.305   4.793  16.787  1.1420  0.9319  2.5821
 3007TIP3    H230437   6.192   4.792  16.888 -1.0499 -0.6502  0.1940
 3008TIP3   OH230438   0.719   4.134  15.547  0.3373  0.0566 -0.3881
 3008TIP3    H130439   0.814   4.131  15.557  0.3076 -0.3356 -0.2263
 3008TIP3    H230440   0.698   4.055  15.497  0.1140  0.2271 -0.5651
 3009TIP3   OH230441   5.092   2.159   2.205 -0.4565  0.0566  0.1752
 3009TIP3    H130442   5.032   2.226   2.239  1.0286  1.5944 -0.1345
 3009TIP3    H230443   5.161   2.153   2.271  0.6953  0.6300 -0.9533
 3010TIP3   OH230444   4.139   2.262   5.891  0.0800  0.0611 -0.0525
 3010TIP3    H130445   4.048   2.239   5.910  0.5769 -1.0855  1.0084
 3010TIP3    H230446   4.190   2.188   5.925  1.3922  0.6251 -0.7785
 3011TIP3   OH230447   1.824   6.223  16.273  0.0290 -0.2951  0.0840
 3011TIP3    H130448   1.884   6.248  16.203 -0.2453 -1.1312 -0.4676
 3011TIP3    H230449   1.760   6.294  16.277  0.3966  0.0464 -0.1002
 3012TIP3   OH230450   4.550   0.615   2.941  0.6831 -0.3856  0.3298
 3012TIP3    H130451   4.609   0.606   3.016 -2.4482 -0.8515  2.8130
 3012TIP3    H230452   4.494   0.689   2.963  0.0214 -0.2478 -1.7724
 3013TIP3   OH230453   6.049   3.538   3.003  0.0987 -0.0965 -0.6721
 3013TIP3    H130454   6.110   3.597   2.959  1.4376 -0.2687  0.9251
 3013TIP3    H230455   5.977   3.527   2.940  1.7080  0.0712 -2.5968
 3014TIP3   OH230456   3.495   3.905  16.247  1.0270 -1.0177  0.0502
 3014TIP3    H130457   3.423   3.868  16.297  2.0729 -3.7763 -0.3803
 3014TIP3    H230458   3.455   3.934  16.165 -0.2517  1.2038  1.4236
 3015TIP3   OH230459   0.226   1.390   0.879 -0.6187 -0.0953 -0.5534
 3015TIP3    H130460   0.314   1.422   0.898 -0.9136 -0.3641  1.3015
 3015TIP3    H230461   0.196   1.443   0.805  0.9137  0.3203 -0.8798
 3016TIP3   OH230462   0.877   0.156  15.703  0.2923 -0.3275 -0.0794
 3016TIP3    H130463   0.818   0.135  15.630 -0.0555 -3.4051  1.0322
 3016TIP3    H230464   0.947   0.090  15.697  1.0386  0.2927  1.4985
 3017TIP3   OH230465   3.790   6.443   3.218  0.0301 -0.2472  0.3861
 3017TIP3    H130466   3.831   6.356   3.217  0.6562 -0.0078 -3.3670
 3017TIP3    H230467   3.861   6.503   3.194 -1.0335  0.9831  0.2611
 3018TIP3   OH230468   1.785   2.702   1.215 -0.1685  0.7608  0.3881
 3018TIP3    H130469   1.744   2.788   1.224 -0.8145  0.5534 -0.5235
 3018TIP3    H230470   1.839   2.693   1.293  0.4396  2.2823  0.1564
 3019TIP3   OH230471   3.088   6.773   3.796 -0.4183 -0.3397 -0.3349
 3019TIP3    H130472   3.171   6.809   3.766  0.3092 -0.1894  1.7611
 3019TIP3    H230473   3.022   6.808   3.736  1.0490 -0.6720 -2.1767
 3020TIP3   OH230474   5.025   4.572   4.782 -0.0536 -0.3597  0.4175
 3020TIP3    H130475   5.013   4.585   4.687 -0.7011 -0.8283  0.4254
 3020TIP3    H230476   5.047   4.479   4.790 -0.1495 -0.3535  0.7360
 3021TIP3   OH230477   1.728   1.893  15.069 -0.1303  0.2444 -0.0534
 3021TIP3    H130478   1.769   1.891  14.983 -0.4947 -0.1814 -0.2162
 3021TIP3    H230479   1.640   1.857  15.055  0.0269 -0.4217  0.6082
 3022TIP3   OH230480   4.408   2.552   1.015 -0.2597  0.0346 -0.6940
 3022TIP3    H130481   4.487   2.533   0.964 -1.7816 -0.6842 -2.8772
 3022TIP3    H230482   4.381   2.639   0.986 -1.7557 -0.8334 -2.0165
 3023TIP3   OH230483   4.136   3.946  16.789  0.4655  1.1202  0.2670
 3023TIP3    H130484   4.216   3.962  16.739  0.4910  0.2045 -0.0020
 3023TIP3    H230485   4.162   3.881  16.855 -0.3867 -0.2733 -0.7408
 3024TIP3   OH230486   1.693   0.131   5.196  0.1926 -0.1511 -0.6236
 3024TIP3    H130487   1.703   0.226   5.194  0.2075 -0.1694 -2.1036
 3024TIP3    H230488   1.645   0.113   5.277 -0.0164  1.1352 -0.4593
 3025TIP3   OH230489   5.916   6.619  13.276 -0.4099  0.0305  0.1599
 3025TIP3    H130490   5.868   6.608  13.358 -1.6471 -0.4676 -0.6034
 3025TIP3    H230491   5.849   6.608  13.208  0.6208  0.2826 -0.9169
 3026TIP3   OH230492   1.694   1.848   4.369 -0.1749  0.3305 -0.2387
 3026TIP3    H130493   1.711   1.931   4.414 -0.7247  0.3139  0.0055
 3026TIP3    H230494   1.615   1.865   4.318  0.2223  0.2271 -0.8901
 3027TIP3   OH230495   0.706   1.898  12.926 -0.5767 -0.0486 -0.1217
 3027TIP3    H130496   0.688   1.805  12.921 -1.1432  0.0729 -0.4216
 3027TIP3    H230497   0.636   1.934  12.981  0.9866 -0.1414  1.9809
 3028TIP3   OH230498   0.271   3.379   4.478 -0.2192  0.4120  0.7236
 3028TIP3    H130499   0.218   3.345   4.550 -0.7112  1.8926  1.0642
 3028TIP3    H230500   0.210   3.391   4.406  0.1864 -0.6032  0.1940
 3029TIP3   OH230501   2.935   1.139  10.501 -0.5421  0.0794  0.0929
 3029TIP3    H130502   3.015   1.189  10.482 -0.0933 -0.6110  0.1313
 3029TIP3    H230503   2.871   1.205  10.527 -0.7866  0.9596 -2.5070
 3030TIP3   OH230504   5.137   5.652   0.167 -0.6296 -0.2169  0.2619
 3030TIP3    H130505   5.070   5.616   0.109 -1.0841  0.6871  0.2040
 3030TIP3    H230506   5.105   5.633   0.256 -0.1516 -1.2164  0.2201
 3031TIP3   OH230507   0.989   2.684   2.432 -0.1332  0.9740 -0.5088
 3031TIP3    H130508   0.952   2.733   2.358  0.8198  0.8831 -1.0507
 3031TIP3    H230509   1.077   2.719   2.443  0.4133 -0.3387 -0.6496
 3032TIP3   OH230510   1.025   1.871   3.507  0.7819  0.3524 -0.2267
 3032TIP3    H130511   1.043   1.834   3.420  1.7816 -0.1753  0.2015
 3032TIP3    H230512   0.930   1.867   3.515  0.7027  0.0980 -1.1629
 3033TIP3   OH230513   5.235   0.198   1.023  0.3517  0.6738 -0.1375
 3033TIP3    H130514   5.191   0.216   0.940  0.6755  0.1640 -0.4209
 3033TIP3    H230515   5.328   0.209   1.003  0.5198 -0.8140 -0.1788
 3034TIP3   OH230516   0.317   5.111  16.820  0.0907  0.4957  0.0039
 3034TIP3    H130517   0.281   5.045  16.880  0.4601  1.4818  1.3299
 3034TIP3    H230518   0.374   5.061  16.761  0.1999 -0.4021  0.8592
 3035TIP3   OH230519   0.125   0.854  12.423 -0.5769  0.0477  0.4738
 3035TIP3    H130520   0.152   0.815  12.340 -0.9670  0.0588  0.3420
 3035TIP3    H230521   0.180   0.810  12.489  0.8613  1.1752  0.0501
 3036TIP3   OH230522   0.962   5.953   1.272  0.1712 -0.4811 -0.9791
 3036TIP3    H130523   0.877   5.997   1.278  1.4150  1.7577  1.7923
 3036TIP3    H230524   1.026   6.024   1.275  2.2395 -2.3136  1.8739
 3037TIP3   OH230525   5.884   5.245   5.720 -0.0656  0.1443  0.1299
 3037TIP3    H130526   5.973   5.213   5.739  0.6370  2.6490  1.2298
 3037TIP3    H230527   5.882   5.254   5.625  0.9020  0.1781  0.1022
 3038TIP3   OH230528   4.431   3.948  17.178 -0.0203  0.0253 -0.8037
 3038TIP3    H130529   4.434   3.853  17.193  1.1208  0.2743  0.6519
 3038TIP3    H230530   4.522   3.975  17.177 -0.3823  1.2922 -0.0681
 3039TIP3   OH230531   1.298   0.421  16.862  0.1566  0.1601 -0.2770
 3039TIP3    H130532   1.388   0.388  16.858  0.8569  1.8645  0.8423
 3039TIP3    H230533   1.306   0.515  16.846 -1.1525  0.7465  2.2199
 3040TIP3   OH230534   0.776   1.236  12.715 -0.3999 -0.3012 -0.1808
 3040TIP3    H130535   0.858   1.188  12.708 -0.0816  0.4105 -1.7854
 3040TIP3    H230536   0.708   1.171  12.701 -0.1139 -0.9407  1.4142
 3041TIP3   OH230537   6.232   3.244   0.697 -0.2191  0.3230 -0.0196
 3041TIP3    H130538   6.167   3.194   0.648 -0.6063  0.6640  0.1510
 3041TIP3    H230539   6.301   3.263   0.632  0.0950 -0.7190 -0.0044
 3042TIP3   OH230540   6.623   3.227  11.521 -0.2406 -0.3399  0.0283
 3042TIP3    H130541   6.568   3.293  11.564 -1.4179 -1.2289 -0.0823
 3042TIP3    H230542   6.648   3.167  11.591 -0.9160 -0.9481 -0.2422
 3043TIP3   OH230543   1.833   1.489   4.120 -0.0072 -0.0108  0.7328
 3043TIP3    H130544   1.768   1.464   4.055  0.4278 -0.0529  0.3087
 3043TIP3    H230545   1.831   1.585   4.120 -1.5520 -0.0197  2.2374
 3044TIP3   OH230546   6.524   2.030  14.485 -0.0559  0.1546  0.3452
 3044TIP3    H130547   6.576   1.976  14.426 -0.5884  0.2284 -0.1882
 3044TIP3    H230548   6.519   2.115  14.442  0.0363  0.3753  0.7653
 3045TIP3   OH230549   1.177   1.639   5.956 -0.0078  0.2422 -0.2167
 3045TIP3    H130550   1.126   1.604   5.883 -1.2187  1.2745  0.1084
 3045TIP3    H230551   1.206   1.725   5.925 -0.3856  0.6109  0.4405
 3046TIP3   OH230552   6.166   3.811   4.021 -0.6300 -0.2568  0.1651
 3046TIP3    H130553   6.227   3.807   4.094  0.1630  0.0009 -0.4752
 3046TIP3    H230554   6.220   3.839   3.947 -1.3181 -1.0167 -0.6263
 3047TIP3   OH230555   0.913   4.165   1.758  0.3862  0.0774 -0.1283
 3047TIP3    H130556   0.831   4.210   1.741  0.5647 -0.5985 -2.9901
 3047TIP3    H230557   0.887   4.087   1.808 -0.6008  0.3516 -0.2059
 3048TIP3   OH230558   6.107   6.408   3.019 -0.3857 -0.7867  0.0766
 3048TIP3    H130559   6.069   6.330   3.058 -1.3586 -1.0391 -1.3315
 3048TIP3    H230560   6.121   6.468   3.093 -1.0744 -1.7024  0.9548
 3049TIP3   OH230561   2.200   6.382   4.277  0.3504 -0.0858 -0.0954
 3049TIP3    H130562   2.206   6.432   4.195  1.4571  0.8912  0.5786
 3049TIP3    H230563   2.230   6.442   4.344  0.5834 -1.2883  0.8911
 3050TIP3   OH230564   3.270   4.803  12.701  0.0855  0.4334 -0.1038
 3050TIP3    H130565   3.239   4.893  12.694  1.5931  0.9700 -0.0669
 3050TIP3    H230566   3.319   4.788  12.619 -0.5321 -0.5040 -0.3165
 3051TIP3   OH230567   1.359   1.008   2.755 -0.1431  0.1948  0.0043
 3051TIP3    H130568   1.266   1.007   2.730  0.2689 -0.5910 -1.5148
 3051TIP3    H230569   1.406   1.009   2.672  1.2365 -1.9830  0.7122
 3052TIP3   OH230570   1.623   5.233  12.600  0.4893  0.0356  0.2341
 3052TIP3    H130571   1.658   5.279  12.523  0.3552  0.9378  0.7111
 3052TIP3    H230572   1.539   5.198  12.570 -0.9004  2.7769  0.7708
 3053TIP3   OH230573   6.648   1.411  16.493  0.6368 -0.2486 -0.1341
 3053TIP3    H130574   6.569   1.397  16.545  0.4793  0.0827 -0.2858
 3053TIP3    H230575   6.719   1.408  16.557  0.4511  0.0595  0.0866
 3054TIP3   OH230576   3.677   0.889  11.723 -0.7181 -0.6100 -0.0357
 3054TIP3    H130577   3.753   0.944  11.743 -0.5851 -0.1581 -1.7110
 3054TIP3    H230578   3.617   0.947  11.676 -0.9795 -1.6510 -1.0028
 3055TIP3   OH230579   3.807   1.276  11.314  0.0133 -0.2246 -0.1823
 3055TIP3    H130580   3.763   1.244  11.392 -0.7803  0.5968 -0.2864
 3055TIP3    H230581   3.751   1.249  11.241 -0.1136  0.4711 -0.3472
 3056TIP3   OH230582   3.783   3.436  14.628 -0.0695  0.3577  0.2851
 3056TIP3    H130583   3.866   3.405  14.666 -0.1037 -1.8689 -1.3053
 3056TIP3    H230584   3.753   3.504  14.687  2.0464 -0.0086  1.8429
 3057TIP3   OH230585   4.438   2.646  15.932 -0.2070 -0.2196  0.2116
 3057TIP3    H130586   4.523   2.650  15.975 -1.2517  1.4779  2.2601
 3057TIP3    H230587   4.379   2.611  15.999 -1.3096 -0.4349 -0.8507
 3058TIP3   OH230588   6.382   6.173  12.741 -0.3490 -0.1824  0.2838
 3058TIP3    H130589   6.387   6.258  12.697 -1.6422  0.2927  1.0259
 3058TIP3    H230590   6.472   6.139  12.738 -0.1818  0.3962 -1.5954
 3059TIP3   OH230591   1.424   3.083   0.859  0.2035 -0.6985 -0.6504
 3059TIP3    H130592   1.440   3.006   0.914  0.8701 -0.3115 -0.2900
 3059TIP3    H230593   1.477   3.069   0.781 -0.0181 -0.8117 -0.7806
 3060TIP3   OH230594   3.169   4.831  13.470 -0.3764 -0.0209 -0.1506
 3060TIP3    H130595   3.224   4.812  13.394 -2.3987 -2.5344 -1.1036
 3060TIP3    H230596   3.096   4.769  13.461 -1.4648  0.7472  2.9943
 3061TIP3   OH230597   0.682   5.616  15.990 -0.0993  0.5567 -0.6464
 3061TIP3    H130598   0.733   5.574  16.060 -0.9069 -2.0637 -1.5761
 3061TIP3    H230599   0.600   5.640  16.032 -1.4679 -2.9849 -1.1106
 3062TIP3   OH230600   4.241   6.545  11.594 -0.2661 -0.1433  0.0068
 3062TIP3    H130601   4.329   6.510  11.603  0.1789  1.3236  1.6203
 3062TIP3    H230602   4.184   6.469  11.604  0.7934 -1.0030 -0.3947
 3063TIP3   OH230603   4.545   4.817  15.061  0.3559  0.1024  0.1998
 3063TIP3    H130604   4.588   4.901  15.045  1.1653 -0.6557 -1.7255
 3063TIP3    H230605   4.463   4.822  15.011  0.7149 -0.5074 -0.4483
 3064TIP3   OH230606   2.154   3.900  13.894  0.2223  0.1383 -0.4212
 3064TIP3    H130607   2.195   3.817  13.871  0.0940  0.4593 -1.8711
 3064TIP3    H230608   2.086   3.877  13.957  1.6312 -0.5842  0.8558
 3065TIP3   OH230609   6.632   5.121   5.744 -0.1951 -0.1603 -0.4261
 3065TIP3    H130610   6.709   5.117   5.801  1.7801 -0.6549 -3.0564
 3065TIP3    H230611   6.576   5.050   5.774  0.2825  0.2991  1.6096
 3066TIP3   OH230612   5.353   0.694   0.130  0.9237  0.2510  0.4817
 3066TIP3    H130613   5.383   0.674   0.219  0.3744 -0.2950  0.5500
 3066TIP3    H230614   5.360   0.610   0.084  0.9917  0.4824  0.0709
 3067TIP3   OH230615   5.709   3.869   3.394  0.7140 -0.3959  0.4569
 3067TIP3    H130616   5.786   3.840   3.345  0.9283  1.6122 -0.4661
 3067TIP3    H230617   5.730   3.959   3.419 -1.8236  0.6155 -0.8904
 3068TIP3   OH230618   5.986   4.327   0.781 -0.0470 -0.1462  0.4507
 3068TIP3    H130619   5.993   4.406   0.836 -0.7090  0.7128 -0.6826
 3068TIP3    H230620   5.895   4.299   0.791  0.2897 -1.0182  1.1677
 3069TIP3   OH230621   6.316   0.270  16.441 -0.8976 -0.1862  0.1901
 3069TIP3    H130622   6.377   0.232  16.503 -1.2594 -0.6421  0.2620
 3069TIP3    H230623   6.341   0.232  16.356  1.4579  2.5771 -0.4730
 3070TIP3   OH230624   6.750   2.802  10.953 -0.5732 -0.4878 -0.0277
 3070TIP3    H130625   6.831   2.845  10.924 -0.9534  0.3731  0.1895
 3070TIP3    H230626   6.776   2.753  11.031 -0.2092 -0.4178 -0.1030
 3071TIP3   OH230627   1.182   4.708   2.753 -0.0647  0.0769  0.3819
 3071TIP3    H130628   1.260   4.715   2.698  1.3724 -4.0765  1.7493
 3071TIP3    H230629   1.133   4.635   2.716 -0.9808 -0.3414  2.3657
 3072TIP3   OH230630   3.481   0.316   4.212 -0.0307  0.1247  0.2732
 3072TIP3    H130631   3.531   0.346   4.287 -0.9189 -1.1224  1.3916
 3072TIP3    H230632   3.436   0.237   4.243 -3.2493  1.5847 -0.4760
 3073TIP3   OH230633   5.529   4.303   1.416 -0.0287  0.0804 -0.3882
 3073TIP3    H130634   5.452   4.341   1.459  0.1230 -0.4193  0.3413
 3073TIP3    H230635   5.531   4.343   1.329  0.2044  1.8531  0.4077
 3074TIP3   OH230636   5.991   3.056  15.324 -0.6217  0.0188 -0.2032
 3074TIP3    H130637   5.969   2.967  15.299 -2.3832  0.5580 -0.5890
 3074TIP3    H230638   5.915   3.109  15.300 -0.1902  1.4077  1.3292
 3075TIP3   OH230639   3.725   3.719  13.136  0.3304  0.2505 -0.4171
 3075TIP3    H130640   3.807   3.674  13.156 -0.4727 -0.8375  0.4908
 3075TIP3    H230641   3.686   3.669  13.065  0.4257  0.7362 -0.8135
 3076TIP3   OH230642   4.390   3.882   6.630  0.2684 -0.0567 -0.3945
 3076TIP3    H130643   4.475   3.910   6.597  0.2648  1.4797  0.8190
 3076TIP3    H230644   4.327   3.943   6.592 -0.4925 -1.9796 -2.3345
 3077TIP3   OH230645   4.953   2.672   1.279 -0.0525 -0.4499 -0.1511
 3077TIP3    H130646   4.910   2.755   1.296  1.0202  0.0628  0.1109
 3077TIP3    H230647   5.038   2.679   1.323 -0.0285 -1.7596  0.0580
 3078TIP3   OH230648   1.304   1.985  15.986 -0.3672  0.1144 -0.0983
 3078TIP3    H130649   1.260   2.068  16.002 -1.8810 -0.6898  0.0082
 3078TIP3    H230650   1.391   2.009  15.955 -0.2716  1.7350  1.3679
 3079TIP3   OH230651   4.761   0.285  14.244 -0.6375  0.0828  0.4703
 3079TIP3    H130652   4.766   0.193  14.219 -0.0441 -0.0389  1.0236
 3079TIP3    H230653   4.671   0.311  14.224 -1.0739 -0.8688  1.1817
 3080TIP3   OH230654   4.857   4.681   1.014 -0.5519 -0.2535 -0.1475
 3080TIP3    H130655   4.922   4.738   1.054 -0.3329 -0.8780  0.4024
 3080TIP3    H230656   4.830   4.727   0.935 -0.9152  0.9372  0.6663
 3081TIP3   OH230657   2.612   3.770   2.443 -0.0685 -0.2954 -0.3082
 3081TIP3    H130658   2.614   3.811   2.357  0.0229  1.7419  0.6122
 3081TIP3    H230659   2.703   3.777   2.475 -0.4951  0.7507  0.7289
 3082TIP3   OH230660   3.709   4.573   4.289 -0.1671  0.2223 -0.3500
 3082TIP3    H130661   3.641   4.548   4.226  0.0984 -0.9761 -0.1746
 3082TIP3    H230662   3.706   4.504   4.356 -2.9716  3.3371  2.9505
 3083TIP3   OH230663   0.783   5.411  12.624 -0.4036  0.1046 -0.0049
 3083TIP3    H130664   0.753   5.482  12.567  1.9300  0.8699 -0.3683
 3083TIP3    H230665   0.805   5.455  12.707 -1.6245 -0.6492  0.7371
 3084TIP3   OH230666   4.072   2.925  13.068 -0.1722  0.2215 -0.1677
 3084TIP3    H130667   4.060   2.854  13.005  0.7166 -0.0847 -0.0058
 3084TIP3    H230668   4.104   2.881  13.148  1.6371  0.9162 -0.4800
 3085TIP3   OH230669   6.238   1.757   3.237  0.0713  0.1015 -0.2219
 3085TIP3    H130670   6.327   1.724   3.253 -0.1420 -0.1222  0.5425
 3085TIP3    H230671   6.226   1.826   3.302 -0.6160 -0.4550  0.2644
 3086TIP3   OH230672   0.452   3.865  13.670  0.2098  0.1103  0.0783
 3086TIP3    H130673   0.386   3.912  13.619 -0.6810 -0.9187  0.2511
 3086TIP3    H230674   0.496   3.808  13.607  0.6664  0.5008  0.0394
 3087TIP3   OH230675   0.321   4.076  12.413 -0.3780 -0.3280 -0.0210
 3087TIP3    H130676   0.256   4.141  12.386  1.6005  1.8409  0.2307
 3087TIP3    H230677   0.318   4.076  12.508 -0.1700 -0.3687 -0.0123
 3088TIP3   OH230678   5.831   4.698  14.075 -0.4655  0.1211 -0.1696
 3088TIP3    H130679   5.888   4.741  14.011 -2.0714  0.8374 -1.1469
 3088TIP3    H230680   5.758   4.758  14.086 -0.7528 -0.5166  1.5206
 3089TIP3   OH230681   0.707   3.799   0.667 -0.2099  0.4422 -0.5836
 3089TIP3    H130682   0.658   3.717   0.661 -1.6891  1.3394 -1.0439
 3089TIP3    H230683   0.683   3.835   0.753  0.2281  0.5318 -0.4962
 3090TIP3   OH230684   6.746   1.887  13.236 -0.0857  0.3115  0.8682
 3090TIP3    H130685   6.798   1.894  13.156 -0.2675  0.3101  0.7496
 3090TIP3    H230686   6.756   1.795  13.262 -1.0440  0.0013  0.1557
 3091TIP3   OH230687   4.341   6.423   4.432  0.1274  0.1335 -0.1809
 3091TIP3    H130688   4.295   6.339   4.430  2.9160 -1.4521 -0.9884
 3091TIP3    H230689   4.358   6.439   4.525  0.5650 -0.7737 -0.0988
 3092TIP3   OH230690   2.946   4.512  11.746 -0.5597 -0.6693 -0.0885
 3092TIP3    H130691   3.000   4.542  11.672 -2.9721 -0.6346 -1.9232
 3092TIP3    H230692   2.955   4.417  11.746 -0.6111 -0.6739 -0.4712
 3093TIP3   OH230693   2.565   2.176  14.899  0.1936 -0.2160  0.2794
 3093TIP3    H130694   2.548   2.251  14.842  0.9683 -0.9872 -1.0007
 3093TIP3    H230695   2.481   2.132  14.908 -0.0991  0.3647  0.4036
 3094TIP3   OH230696   3.814   2.635  12.286  0.4319 -0.2125 -0.4846
 3094TIP3    H130697   3.821   2.579  12.363  3.2069  0.7742  0.0448
 3094TIP3    H230698   3.720   2.650  12.275 -0.1022 -1.8273  1.6207
 3095TIP3   OH230699   6.379   3.492   2.094 -0.3988  0.0517 -0.2714
 3095TIP3    H130700   6.433   3.489   2.015 -2.3890 -2.5154 -1.6240
 3095TIP3    H230701   6.299   3.537   2.066 -2.1968 -3.1772 -0.4955
 3096TIP3   OH230702   5.806   4.975  11.034 -0.8677 -0.1593  0.0386
 3096TIP3    H130703   5.888   4.931  11.013 -1.0498 -0.3144 -0.3627
 3096TIP3    H230704   5.763   4.916  11.096  0.0730  0.7278  1.5679
 3097TIP3   OH230705   0.600   2.265   1.503  0.8872 -0.0530 -0.0225
 3097TIP3    H130706   0.646   2.285   1.585  1.0437  1.9083 -0.5880
 3097TIP3    H230707   0.633   2.329   1.440 -2.1277  0.9817 -0.6185
 3098TIP3   OH230708   5.418   2.659  17.003 -0.2080 -0.1834  0.3177
 3098TIP3    H130709   5.383   2.572  16.983 -1.3170  0.5148 -0.9074
 3098TIP3    H230710   5.420   2.704  16.919 -1.3671  1.5732  1.1825
 3099TIP3   OH230711   3.079   4.621  15.593  0.1061 -0.0707 -0.0273
 3099TIP3    H130712   3.009   4.566  15.629  0.1245  0.0409  0.1789
 3099TIP3    H230713   3.108   4.574  15.515  0.3095 -0.4958  0.2992
 3100TIP3   OH230714   6.500   3.887  12.681  0.7672  0.3018 -0.0758
 3100TIP3    H130715   6.523   3.798  12.655 -0.4122  0.4075 -1.5569
 3100TIP3    H230716   6.420   3.877  12.732  0.8780  0.4661  0.1299
 3101TIP3   OH230717   6.771   4.348  15.077 -0.1249 -0.1599 -0.7055
 3101TIP3    H130718   6.783   4.443  15.076  0.8800 -0.2792 -0.8096
 3101TIP3    H230719   6.700   4.332  15.015  1.2349  0.3348 -2.4359
 3102TIP3   OH230720   5.067   2.647   0.050 -0.1356 -0.3163 -0.1287
 3102TIP3    H130721   5.015   2.622  -0.027  0.6195 -2.9567  0.1651
 3102TIP3    H230722   5.105   2.732   0.027 -3.0800  0.8379 -1.0685
 3103TIP3   OH230723   4.341   6.418  14.039  0.1556 -0.4071 -0.7177
 3103TIP3    H130724   4.398   6.455  13.972  0.5146  0.4294  0.0465
 3103TIP3    H230725   4.381   6.442  14.122 -1.5504  0.6053 -0.1635
 3104TIP3   OH230726   0.887   2.951  13.537  0.2106  0.3102 -0.0953
 3104TIP3    H130727   0.943   3.006  13.482  0.2681  0.6823  0.3367
 3104TIP3    H230728   0.835   3.012  13.588  1.3311 -0.0175  1.4790
 3105TIP3   OH230729   1.205   0.820  11.736 -0.5315  0.3454 -0.2086
 3105TIP3    H130730   1.173   0.767  11.809  1.4837  3.1921  2.9046
 3105TIP3    H230731   1.153   0.900  11.740  1.0164  1.3976 -0.5413
 3106TIP3   OH230732   6.198   1.261   5.241  0.3962 -0.6483  0.1454
 3106TIP3    H130733   6.139   1.224   5.306 -0.2695  0.1247 -0.0097
 3106TIP3    H230734   6.142   1.285   5.167  0.8242  0.4798  0.1630
 3107TIP3   OH230735   1.185   4.185  17.178  0.2609  0.4300 -0.5018
 3107TIP3    H130736   1.277   4.193  17.204  0.1230  0.5428 -0.0490
 3107TIP3    H230737   1.179   4.233  17.096  1.3186 -2.2220 -2.1895
 3108TIP3   OH230738   4.479   2.583   0.738 -0.3061 -0.3195  0.0902
 3108TIP3    H130739   4.537   2.657   0.753 -1.3236  0.1628  1.7247
 3108TIP3    H230740   4.507   2.547   0.654  1.1111  1.0514 -0.0361
 3109TIP3   OH230741   0.869   4.254   4.247 -0.1688  0.2371 -0.1008
 3109TIP3    H130742   0.837   4.169   4.215 -1.9170  0.2667  1.4928
 3109TIP3    H230743   0.792   4.295   4.287  0.6524  2.6157 -0.8811
 3110TIP3   OH230744   2.602   2.552  13.228  0.3791  0.0944 -0.0518
 3110TIP3    H130745   2.526   2.531  13.282 -0.1819  0.2330 -0.7758
 3110TIP3    H230746   2.620   2.471  13.180 -0.3209  0.5370 -1.0819
 3111TIP3   OH230747   3.698   3.785   6.309  0.3045 -0.0825  0.0323
 3111TIP3    H130748   3.777   3.757   6.262  0.9234 -0.1802  1.1238
 3111TIP3    H230749   3.711   3.878   6.325 -0.5893  0.2921 -1.3006
 3112TIP3   OH230750   2.935   6.692   3.233 -0.6147 -0.6825  0.1293
 3112TIP3    H130751   2.919   6.600   3.213 -1.0012 -0.1757 -1.9847
 3112TIP3    H230752   2.863   6.739   3.191 -0.6324  0.5676  1.5155
 3113TIP3   OH230753   1.134   2.510  13.345 -0.5176  0.3757 -0.2340
 3113TIP3    H130754   1.220   2.501  13.388 -0.6627  0.6584  0.1202
 3113TIP3    H230755   1.080   2.444  13.387 -0.8488  1.1065  0.5018
 3114TIP3   OH230756   1.285   6.332  12.370 -0.1024 -0.1340 -1.1967
 3114TIP3    H130757   1.335   6.264  12.326  2.1534  0.1475  0.7954
 3114TIP3    H230758   1.243   6.288  12.443 -0.5476  0.1545 -1.2761
 3115TIP3   OH230759   2.631   0.710  13.053 -0.2342  0.3876 -0.0064
 3115TIP3    H130760   2.576   0.774  13.099 -0.8640  0.7157 -1.1945
 3115TIP3    H230761   2.720   0.733  13.079 -0.5082  1.2230  0.2295
 3116TIP3   OH230762   2.383   0.881  14.462 -0.1279 -0.4244 -0.1862
 3116TIP3    H130763   2.440   0.954  14.438 -0.2109  0.1046  1.1862
 3116TIP3    H230764   2.323   0.873  14.388  0.0362  0.7395 -0.4627
 3117TIP3   OH230765   1.365   4.006  11.380 -0.1245  0.2284 -0.1900
 3117TIP3    H130766   1.407   3.959  11.451 -2.1428  0.9283  1.5308
 3117TIP3    H230767   1.294   4.055  11.422 -0.9833  1.1451 -2.5903
 3118TIP3   OH230768   4.731   5.458   6.079  0.2023 -0.1740 -0.1626
 3118TIP3    H130769   4.713   5.461   6.173 -0.8183 -1.1186 -0.3103
 3118TIP3    H230770   4.691   5.537   6.044  0.1795 -0.0547  0.1351
 3119TIP3   OH230771   2.952   0.117   4.040  0.3577 -0.0127 -0.3864
 3119TIP3    H130772   2.993   0.086   4.121  1.3663  1.6130 -0.2700
 3119TIP3    H230773   2.988   0.061   3.971 -0.5913 -1.4808  0.2805
 3120TIP3   OH230774   3.931   4.248  10.930 -0.2544 -0.3129  0.3252
 3120TIP3    H130775   3.936   4.160  10.893 -1.0264 -0.4173  0.4618
 3120TIP3    H230776   4.021   4.281  10.926 -0.0083 -1.0113  0.0446
 3121TIP3   OH230777   3.269   5.032   6.026  0.3854 -0.1235  0.2126
 3121TIP3    H130778   3.219   4.955   6.053  0.9052 -0.9528 -1.1240
 3121TIP3    H230779   3.260   5.094   6.099 -0.6395 -1.1654  0.9830
 3122TIP3   OH230780   0.603   1.342   1.955 -0.2794 -0.2763  0.2709
 3122TIP3    H130781   0.676   1.290   1.919  0.1870  0.1017  0.6751
 3122TIP3    H230782   0.644   1.401   2.017 -1.2578 -1.8423  2.4552
 3123TIP3   OH230783   0.308   5.217  14.448 -0.2747  0.1844 -0.4425
 3123TIP3    H130784   0.363   5.269  14.389 -0.0972 -0.3222 -0.7265
 3123TIP3    H230785   0.353   5.133  14.455  0.4853  0.7110  1.5489
 3124TIP3   OH230786   2.537   1.637  14.040  0.4451 -0.1129 -0.4962
 3124TIP3    H130787   2.607   1.586  13.999  0.1745  0.5603 -1.8185
 3124TIP3    H230788   2.566   1.728  14.035 -0.0937  0.0793 -0.1879
 3125TIP3   OH230789   3.247   0.201  12.913 -0.2112 -0.4168  0.0745
 3125TIP3    H130790   3.177   0.263  12.931 -0.7991 -0.1119 -2.9120
 3125TIP3    H230791   3.223   0.162  12.829  1.4430 -2.8562  0.6813
 3126TIP3   OH230792   2.849   0.236   5.114  0.9012 -0.3895  0.4471
 3126TIP3    H130793   2.763   0.270   5.139  0.2763 -1.4187 -0.2759
 3126TIP3    H230794   2.864   0.268   5.025  0.3320 -1.9122 -0.2195
 3127TIP3   OH230795   0.156   6.608  15.303 -0.0020 -0.0814  0.4474
 3127TIP3    H130796   0.101   6.637  15.230  0.0870 -1.8290 -0.3198
 3127TIP3    H230797   0.116   6.649  15.380 -1.1334  0.3617 -0.3532
 3128TIP3   OH230798   5.055   2.734  11.712  0.2220 -0.2416  0.3397
 3128TIP3    H130799   4.991   2.785  11.762  0.2156 -0.7872  0.8985
 3128TIP3    H230800   5.004   2.667  11.667  0.0484  1.1400 -1.5873
 3129TIP3   OH230801   3.787   1.412  15.540 -0.5553 -0.4030  0.2606
 3129TIP3    H130802   3.810   1.495  15.582 -0.1817  0.5597 -1.7838
 3129TIP3    H230803   3.829   1.346  15.594  1.0266  0.8881  0.6672
 3130TIP3   OH230804   3.992   4.172  12.892 -0.3815  0.1394  0.0158
 3130TIP3    H130805   4.078   4.211  12.905 -0.8204  0.5404  1.8232
 3130TIP3    H230806   3.954   4.223  12.820  1.2270 -0.6494 -1.4346
 3131TIP3   OH230807   3.744   4.453   2.147 -0.7767  0.0280 -0.4629
 3131TIP3    H130808   3.798   4.460   2.069  0.9192 -2.0869  0.4702
 3131TIP3    H230809   3.798   4.406   2.210 -2.7020  0.2741  1.4470
 3132TIP3   OH230810   3.471   3.579   6.274 -0.0176 -0.5690  0.0242
 3132TIP3    H130811   3.554   3.627   6.278 -0.3358 -0.1048  1.3596
 3132TIP3    H230812   3.423   3.620   6.202  1.0558 -1.0852 -0.9984
 3133TIP3   OH230813   4.333   0.056   0.735 -0.4435  0.1724 -0.3168
 3133TIP3    H130814   4.377   0.082   0.816 -0.4944  0.1475 -0.2802
 3133TIP3    H230815   4.374   0.108   0.666  0.6257 -0.8734 -0.4882
 3134TIP3   OH230816   4.272   1.534  16.845  0.3902  0.1058  0.4073
 3134TIP3    H130817   4.262   1.483  16.926  3.7881 -1.5023 -0.0924
 3134TIP3    H230818   4.265   1.470  16.775 -1.6475  1.3631 -0.5938
 3135TIP3   OH230819   4.374   3.968   0.509  0.2887  0.0862 -0.2791
 3135TIP3    H130820   4.435   3.962   0.583 -0.4391 -1.2836  0.2292
 3135TIP3    H230821   4.426   3.946   0.432  0.6637 -0.0805  0.0235
 3136TIP3   OH230822   4.556   4.051  14.179 -0.0072 -0.1502 -0.2321
 3136TIP3    H130823   4.551   4.146  14.172  2.5539 -0.0551 -1.3379
 3136TIP3    H230824   4.541   4.020  14.090  0.0583 -0.7382 -0.0396
 3137TIP3   OH230825   2.952   4.695  14.311  0.4064 -0.7689  0.6921
 3137TIP3    H130826   2.931   4.783  14.281 -0.4212 -1.0702  0.3767
 3137TIP3    H230827   2.868   4.651  14.318  0.9102 -1.9921 -0.5567
 3138TIP3   OH230828   5.738   1.281   0.751 -0.2699 -0.2073  0.2732
 3138TIP3    H130829   5.792   1.232   0.689  0.1696 -1.2702  1.4908
 3138TIP3    H230830   5.802   1.326   0.807 -0.6662  1.3938 -0.5296
 3139TIP3   OH230831   5.458   2.003   0.921 -0.4158  0.4121 -0.5252
 3139TIP3    H130832   5.436   2.084   0.874 -1.8902  1.1980  1.4622
 3139TIP3    H230833   5.520   2.030   0.988  0.8925 -0.5420 -1.3192
 3140TIP3   OH230834   5.957   4.136   5.236  0.1403  0.0765  0.0373
 3140TIP3    H130835   5.877   4.098   5.199 -0.2313  0.1946  0.6975
 3140TIP3    H230836   6.016   4.062   5.247 -1.0974 -0.6061  2.6669
 3141TIP3   OH230837   5.718   3.662   3.587 -0.0932 -0.5963 -0.2632
 3141TIP3    H130838   5.722   3.730   3.521  2.6896 -1.1745 -0.7424
 3141TIP3    H230839   5.769   3.696   3.661  0.0265 -1.5245  0.0951
 3142TIP3   OH230840   4.940   3.851  13.318  0.3159  0.0468 -0.1651
 3142TIP3    H130841   4.899   3.766  13.332  1.9755 -0.8200 -0.4493
 3142TIP3    H230842   4.951   3.887  13.406 -1.6232  0.5787 -0.1250
 3143TIP3   OH230843   1.000   5.683   1.397  0.0092 -0.2700  0.4042
 3143TIP3    H130844   1.032   5.676   1.486  1.2343 -0.2671 -0.0294
 3143TIP3    H230845   1.006   5.777   1.377 -0.5326 -0.2319  0.4153
 3144TIP3   OH230846   2.877   6.354  16.142 -0.1682 -0.8604 -0.3209
 3144TIP3    H130847   2.841   6.359  16.230 -0.5963  0.5596 -0.5743
 3144TIP3    H230848   2.960   6.401  16.147  0.3468 -1.7437 -0.4111
 3145TIP3   OH230849   2.312   5.650  10.478 -0.8335  0.3022 -0.2704
 3145TIP3    H130850   2.394   5.607  10.500 -0.6307  1.2240  0.8355
 3145TIP3    H230851   2.273   5.595  10.410  1.1982  0.4353 -1.5883
 3146TIP3   OH230852   3.358   3.344  14.811  0.2930  0.3509 -0.3745
 3146TIP3    H130853   3.407   3.303  14.740 -0.1391  0.5768 -0.7988
 3146TIP3    H230854   3.267   3.342  14.783  0.2258  1.2626 -0.2340
 3147TIP3   OH230855   4.753   4.361  15.084 -0.0727 -0.0552 -0.1889
 3147TIP3    H130856   4.668   4.396  15.058 -1.0518 -0.5904  2.1726
 3147TIP3    H230857   4.752   4.270  15.055 -0.1996  0.0090 -0.3818
 3148TIP3   OH230858   6.072   6.111  16.135  0.0578  0.1837  0.1263
 3148TIP3    H130859   6.123   6.149  16.207 -0.7702 -0.3883  1.0215
 3148TIP3    H230860   5.994   6.166  16.129 -0.0281  0.0362 -0.1278
 3149TIP3   OH230861   4.428   1.915  17.213 -0.1675  0.5048 -0.3155
 3149TIP3    H130862   4.403   1.903  17.121  0.0046 -0.5153 -0.2338
 3149TIP3    H230863   4.363   1.864  17.262  0.3847  0.1619  0.0642
 3150TIP3   OH230864   1.743   2.425   3.180 -0.2789 -0.3762 -0.1017
 3150TIP3    H130865   1.669   2.479   3.151  2.3536  1.8719 -2.9304
 3150TIP3    H230866   1.789   2.479   3.244 -0.3881 -1.3290  0.8053
 3151TIP3   OH230867   0.462   2.605  14.744  0.0502  0.1326  0.4179
 3151TIP3    H130868   0.465   2.691  14.702  0.0398  0.8793  1.9173
 3151TIP3    H230869   0.554   2.582  14.756  0.0503  0.2336  0.6120
 3152TIP3   OH230870   5.926   5.070   4.235 -0.0956  0.1686 -0.2522
 3152TIP3    H130871   5.897   4.979   4.241  1.4395 -0.3513 -0.4912
 3152TIP3    H230872   5.902   5.108   4.320  1.8519 -1.2706  1.0014
 3153TIP3   OH230873   5.565   4.899   0.794  0.2086 -0.4880 -0.1932
 3153TIP3    H130874   5.578   4.994   0.790  0.5252 -0.4173  1.9033
 3153TIP3    H230875   5.472   4.888   0.813  0.2783 -0.5644  0.1200
 3154TIP3   OH230876   4.590   3.214   6.221  0.5341  0.1483 -0.0790
 3154TIP3    H130877   4.644   3.134   6.221 -0.6784 -0.6867 -1.8807
 3154TIP3    H230878   4.534   3.204   6.298 -1.1537 -1.8574 -1.4799
 3155TIP3   OH230879   3.445   4.531  10.923 -0.5661  0.6715  0.2280
 3155TIP3    H130880   3.533   4.536  10.962 -0.3287  0.3937 -0.2691
 3155TIP3    H230881   3.442   4.606  10.863  0.2172 -0.6710 -1.5521
 3156TIP3   OH230882   2.921   5.984  11.236  0.4480  0.5557  0.0978
 3156TIP3    H130883   2.997   5.969  11.293 -0.5228 -1.7231  0.8353
 3156TIP3    H230884   2.959   5.992  11.148  1.4798 -1.9242  0.2642
 3157TIP3   OH230885   0.469   3.211  14.846 -0.6614 -0.2541 -0.0651
 3157TIP3    H130886   0.526   3.134  14.845  0.5573  0.6187 -0.8982
 3157TIP3    H230887   0.427   3.211  14.760  0.1097  0.5404 -0.4534
 3158TIP3   OH230888   0.997   3.800   0.870  0.0784  0.5811  0.2258
 3158TIP3    H130889   0.997   3.771   0.779  1.2383  0.3928  0.2736
 3158TIP3    H230890   0.922   3.756   0.910  0.7974 -1.0305 -0.1290
 3159TIP3   OH230891   6.031   2.941  14.103 -0.4692 -0.4561 -0.2206
 3159TIP3    H130892   6.012   3.004  14.173  0.7806 -0.0536 -0.2405
 3159TIP3    H230893   5.959   2.953  14.041 -0.7965  0.2181  0.2792
 3160TIP3   OH230894   1.058   6.124  14.783 -0.3101  0.6091  0.6638
 3160TIP3    H130895   1.121   6.139  14.712 -1.0930 -1.1390 -0.4409
 3160TIP3    H230896   1.106   6.147  14.863  1.8789 -1.0332 -0.1101
 3161TIP3   OH230897   5.465   3.364  15.302  0.2009 -0.0468 -0.2754
 3161TIP3    H130898   5.518   3.430  15.347 -0.0771 -1.2940  1.9602
 3161TIP3    H230899   5.379   3.406  15.292 -0.3710 -0.5169  2.3508
 3162TIP3   OH230900   4.970   0.963   3.142 -0.3646 -0.0818  0.2045
 3162TIP3    H130901   5.017   0.957   3.225 -1.4908  1.1595  0.9605
 3162TIP3    H230902   4.912   1.039   3.153 -1.0697 -0.3648 -1.4357
 3163TIP3   OH230903   5.987   2.680   4.422 -0.4780 -0.6434 -0.0791
 3163TIP3    H130904   5.945   2.724   4.348 -0.7756 -0.1158  0.3982
 3163TIP3    H230905   6.046   2.616   4.382  0.3379  0.5393 -0.7865
 3164TIP3   OH230906   0.206   2.747  13.562  0.2431 -0.1623  0.2936
 3164TIP3    H130907   0.272   2.683  13.536  0.1335 -0.1016 -0.1383
 3164TIP3    H230908   0.253   2.810  13.617  0.2984 -0.7474  0.9184
 3165TIP3   OH230909   3.576   3.977  13.936 -0.0385  0.3966 -0.2273
 3165TIP3    H130910   3.592   3.927  14.017 -0.2020  1.4326  0.4594
 3165TIP3    H230911   3.495   3.941  13.902  0.7432 -0.9893 -0.6741
 3166TIP3   OH230912   5.131   6.520  16.092 -0.0170  0.3812  0.0210
 3166TIP3    H130913   5.047   6.540  16.133 -0.5596  0.5662 -1.1501
 3166TIP3    H230914   5.138   6.582  16.019  1.7584  1.2580  0.8926
 3167TIP3   OH230915   6.655   0.115  14.326 -0.0617 -0.0136  0.0495
 3167TIP3    H130916   6.710   0.066  14.388  1.6163 -0.8130 -2.0386
 3167TIP3    H230917   6.610   0.179  14.381  1.0750 -0.9659  2.1722
 3168TIP3   OH230918   5.440   5.095  16.785  0.0358  0.0019  0.0289
 3168TIP3    H130919   5.374   5.085  16.716  1.5929  0.2976 -1.5642
 3168TIP3    H230920   5.468   5.186  16.778  0.7633 -0.1776  0.5483
 3169TIP3   OH230921   1.829   5.763   5.591 -0.2059 -0.2443  0.1584
 3169TIP3    H130922   1.873   5.845   5.569  1.7259 -0.7394  1.9934
 3169TIP3    H230923   1.883   5.695   5.552 -0.8433 -0.7253  0.1128
 3170TIP3   OH230924   4.201   4.705   5.141  0.2877 -0.0308 -0.5288
 3170TIP3    H130925   4.258   4.694   5.065  2.1300 -1.0287  0.9606
 3170TIP3    H230926   4.184   4.799   5.145  1.4473  0.2203 -1.2806
 3171TIP3   OH230927   5.357   5.916   5.001 -0.1914 -0.1511  0.0171
 3171TIP3    H130928   5.375   5.956   4.916 -1.5870 -0.7002 -0.5474
 3171TIP3    H230929   5.411   5.836   5.001 -2.0287 -1.4303 -1.3808
 3172TIP3   OH230930   6.470   2.250   2.258 -0.0441  0.2012  0.1668
 3172TIP3    H130931   6.376   2.267   2.271  0.2969  2.0846  0.3923
 3172TIP3    H230932   6.481   2.250   2.163 -0.1123  1.0778  0.1491
 3173TIP3   OH230933   2.740   3.302  14.738  0.2325  0.3970  0.7375
 3173TIP3    H130934   2.720   3.395  14.750 -0.3444  0.1974  1.3878
 3173TIP3    H230935   2.695   3.259  14.811 -0.9493 -0.5775 -0.5475
 3174TIP3   OH230936   1.359   0.893  15.867 -0.0572  0.4444 -0.7771
 3174TIP3    H130937   1.300   0.965  15.844 -1.6694 -0.2676  1.0086
 3174TIP3    H230938   1.305   0.814  15.856 -0.0713 -0.0901  2.6847
 3175TIP3   OH230939   0.963   0.854   0.145  0.2771 -0.0100  0.0767
 3175TIP3    H130940   1.029   0.903   0.096  1.5993  0.4783  2.2587
 3175TIP3    H230941   0.966   0.766   0.108 -0.1161  0.8189 -1.9844
 3176TIP3   OH230942   1.169   5.155  12.265  0.2546 -0.1960  0.0075
 3176TIP3    H130943   1.117   5.109  12.199  3.0802 -2.2846 -0.8426
 3176TIP3    H230944   1.130   5.128  12.349 -1.0983 -0.3487 -0.6531
 3177TIP3   OH230945   3.329   6.308  10.284 -0.2389  0.2430 -0.5033
 3177TIP3    H130946   3.268   6.378  10.259  0.2443  0.5022 -0.9676
 3177TIP3    H230947   3.409   6.355  10.308 -0.4666 -0.0438  0.8578
 3178TIP3   OH230948   4.981   0.733  13.669 -0.0645  0.0894  0.5995
 3178TIP3    H130949   4.966   0.666  13.602  1.4223  0.4876 -0.1555
 3178TIP3    H230950   5.004   0.684  13.748 -0.6632 -0.3346  0.5188
 3179TIP3   OH230951   0.941   6.405   5.263  0.5616 -0.9094 -0.2792
 3179TIP3    H130952   0.921   6.481   5.208  0.0812 -0.7552  0.1059
 3179TIP3    H230953   0.881   6.337   5.233 -2.5854  0.3918  2.7468
 3180TIP3   OH230954   1.677   6.152  14.997  0.0035  0.2268  0.2350
 3180TIP3    H130955   1.742   6.089  14.965 -1.5580 -0.7210 -1.1153
 3180TIP3    H230956   1.697   6.233  14.949  0.8505  0.2660  0.6287
 3181TIP3   OH230957   6.588   2.003   4.547  0.0023  0.2716 -0.4554
 3181TIP3    H130958   6.498   2.032   4.533 -0.3361 -0.7106 -0.3847
 3181TIP3    H230959   6.586   1.958   4.632  0.5075  0.0389 -0.5643
 3182TIP3   OH230960   5.989   1.940   5.638 -0.0586  0.3482  0.6723
 3182TIP3    H130961   5.934   1.984   5.573 -1.0630  0.1081  1.3568
 3182TIP3    H230962   5.934   1.870   5.673  0.5995  0.2665  1.5549
 3183TIP3   OH230963   5.440   3.794   3.454 -0.3136 -1.0857  0.4232
 3183TIP3    H130964   5.525   3.832   3.431  0.1381 -2.0206  0.5183
 3183TIP3    H230965   5.389   3.798   3.373  0.1441 -1.3727  0.1161
 3184TIP3   OH230966   3.127   4.667   0.468 -0.2847 -0.4078  0.5728
 3184TIP3    H130967   3.038   4.686   0.439 -0.4724  0.5739  1.7146
 3184TIP3    H230968   3.129   4.697   0.559  0.6093 -2.3164  1.2113
 3185TIP3   OH230969   2.070   3.831   2.832 -0.3865  0.2447  0.3561
 3185TIP3    H130970   2.064   3.796   2.742  0.7051  0.4647  0.1865
 3185TIP3    H230971   1.984   3.815   2.869 -0.6608 -0.4377 -0.5285
 3186TIP3   OH230972   3.942   6.246   3.415  0.6616  0.5487 -0.0506
 3186TIP3    H130973   4.025   6.250   3.367  1.6556 -0.8577  1.4888
 3186TIP3    H230974   3.942   6.324   3.470  0.5749  0.9734 -0.6437
 3187TIP3   OH230975   5.980   1.122  12.242 -0.5719 -0.1214  1.2605
 3187TIP3    H130976   6.066   1.151  12.274 -0.3118  0.1870  0.2812
 3187TIP3    H230977   5.955   1.053  12.303  0.0956  0.2053  1.9202
 3188TIP3   OH230978   5.245   1.754   5.207 -0.3108 -0.5847  0.1908
 3188TIP3    H130979   5.184   1.680   5.205  0.4495 -1.1864 -1.3649
 3188TIP3    H230980   5.312   1.729   5.270 -0.4966 -0.8626  0.2773
 3189TIP3   OH230981   4.346   5.027  11.455  0.0912  0.6341 -0.0241
 3189TIP3    H130982   4.417   4.962  11.455  0.4828  1.0578  0.6367
 3189TIP3    H230983   4.297   5.009  11.374  0.0490 -0.6451  0.2774
 3190TIP3   OH230984   0.056   5.307   4.512 -0.6229  0.0526 -0.2174
 3190TIP3    H130985   0.092   5.289   4.598 -0.4797 -0.7131 -0.4260
 3190TIP3    H230986   0.132   5.328   4.458 -0.4440 -1.6660 -0.6821
 3191TIP3   OH230987   5.873   0.973  11.388 -0.2059  0.0949  0.1282
 3191TIP3    H130988   5.838   0.979  11.478  0.0063  0.3434  0.1939
 3191TIP3    H230989   5.946   1.034  11.387  0.2937 -0.5069  0.0183
 3192TIP3   OH230990   6.402   0.471  14.911 -0.0597 -0.0314  0.1589
 3192TIP3    H130991   6.373   0.514  14.992 -2.1448  0.8282 -0.9983
 3192TIP3    H230992   6.488   0.434  14.933  0.0395  1.3797  2.3450
 3193TIP3   OH230993   4.241   2.216   2.949 -0.2246 -0.0287 -0.3560
 3193TIP3    H130994   4.314   2.154   2.960  0.0988  0.2767 -0.7432
 3193TIP3    H230995   4.284   2.301   2.938 -0.6448  0.1628 -0.5094
 3194TIP3   OH230996   5.475   1.394   3.639 -0.0644 -0.3417  0.8497
 3194TIP3    H130997   5.461   1.299   3.634  2.4788 -0.6509 -2.2678
 3194TIP3    H230998   5.424   1.429   3.567  0.1827  0.5084  1.0885
 3195TIP3   OH230999   0.243   3.448   5.683  0.5585 -0.3453  0.2689
 3195TIP3    H131000   0.248   3.480   5.592 -2.1941 -1.3515 -0.2749
 3195TIP3    H231001   0.333   3.422   5.704  1.8381  2.7252 -1.0963
 3196TIP3   OH231002   0.369   3.123   4.648  0.4534  0.0542 -0.1645
 3196TIP3    H131003   0.419   3.091   4.574 -0.2991 -1.5914  0.0139
 3196TIP3    H231004   0.410   3.206   4.672  2.5401 -0.8553 -0.5449
 3197TIP3   OH231005   1.246   2.494  15.458  0.3457 -0.6118  0.0363
 3197TIP3    H131006   1.332   2.451  15.452  1.5805  1.6475  0.8956
 3197TIP3    H231007   1.201   2.446  15.527  0.5080 -2.4449 -1.0731
 3198TIP3   OH231008   3.512   2.645  14.511 -0.2361  1.0391 -1.0720
 3198TIP3    H131009   3.422   2.619  14.493 -0.3612  0.8214 -0.1654
 3198TIP3    H231010   3.505   2.705  14.585  0.4322  0.4395 -0.5202
 3199TIP3   OH231011   4.641   6.672  16.109 -0.2619 -0.6079 -0.0369
 3199TIP3    H131012   4.657   6.678  16.203  0.2827 -0.2809 -0.1489
 3199TIP3    H231013   4.638   6.763  16.080  0.5281 -0.7184 -0.4908
 3200TIP3   OH231014   1.269   1.096   1.905 -0.0773 -0.4589 -0.1603
 3200TIP3    H131015   1.311   1.143   1.833 -1.0318  2.0170  0.8646
 3200TIP3    H231016   1.332   1.028   1.929  2.5936  2.0556  0.1636
 3201TIP3   OH231017   2.266   2.399  17.012 -0.2862  0.1527 -0.4820
 3201TIP3    H131018   2.210   2.465  16.971  0.0045  0.7366  0.0500
 3201TIP3    H231019   2.285   2.435  17.099 -0.0511 -0.5903 -0.2235
 3202TIP3   OH231020   4.630   5.671  10.709  0.3430  0.0660 -0.0621
 3202TIP3    H131021   4.534   5.662  10.709  0.4701 -1.4489  1.0094
 3202TIP3    H231022   4.661   5.591  10.667  1.1321  0.8372 -0.9687
 3203TIP3   OH231023   0.321   1.230   5.361  0.2718 -0.3381  0.5164
 3203TIP3    H131024   0.324   1.255   5.269  0.8222 -2.3337 -0.0155
 3203TIP3    H231025   0.305   1.313   5.407  0.8080  0.8015 -1.2884
 3204TIP3   OH231026   0.855   3.500  11.953  0.4734  0.6679  0.4347
 3204TIP3    H131027   0.783   3.539  11.903  0.8655  0.6665 -0.1433
 3204TIP3    H231028   0.901   3.575  11.990  0.5092  0.6970  0.3323
 3205TIP3   OH231029   1.717   3.122  13.195  0.3379  0.1325 -0.3329
 3205TIP3    H131030   1.779   3.166  13.137 -1.3923  2.2890 -0.6155
 3205TIP3    H231031   1.753   3.135  13.283  1.2711 -0.2645 -0.6605
 3206TIP3   OH231032   6.427   5.308   1.961 -0.0140  0.4866 -0.4644
 3206TIP3    H131033   6.393   5.388   1.921 -2.4793  0.6636  1.8343
 3206TIP3    H231034   6.506   5.336   2.007  1.1425  0.8666 -2.6306
 3207TIP3   OH231035   3.341   4.997   0.119  0.3015 -0.3008 -0.1988
 3207TIP3    H131036   3.268   4.934   0.125 -1.0223  1.1890 -0.3759
 3207TIP3    H231037   3.321   5.047   0.040  1.5555  0.0986 -0.2597
 3208TIP3   OH231038   2.043   2.089   4.017  0.0263  0.7550  0.2244
 3208TIP3    H131039   2.064   2.139   3.938 -1.2401  1.3849  0.2722
 3208TIP3    H231040   2.109   2.116   4.080  0.5904  0.8232 -0.3915
 3209TIP3   OH231041   0.518   0.483   1.312 -0.6745  0.0580  0.3659
 3209TIP3    H131042   0.578   0.555   1.294  0.5312 -0.8073  0.8898
 3209TIP3    H231043   0.551   0.410   1.260 -1.1404 -0.4940  0.8302
 3210TIP3   OH231044   6.556   2.220   5.624 -0.1274 -0.4791 -0.3108
 3210TIP3    H131045   6.587   2.130   5.639 -0.9527 -0.6363  0.5097
 3210TIP3    H231046   6.507   2.242   5.703 -1.9046 -0.1496 -1.4504
 3211TIP3   OH231047   3.431   2.785   0.968  0.0952  0.1190  0.0068
 3211TIP3    H131048   3.420   2.690   0.965 -0.4910  0.1556  0.8425
 3211TIP3    H231049   3.393   2.817   0.886 -0.4217 -0.3009  0.0853
 3212TIP3   OH231050   0.072   5.295   0.916  0.7165  0.2039 -0.3220
 3212TIP3    H131051   0.029   5.293   1.002  0.2842 -0.0336 -0.5383
 3212TIP3    H231052   0.161   5.323   0.934 -0.3011  3.5693 -0.1839
 3213TIP3   OH231053   5.945   1.823   6.529  0.6586  0.3998  0.0409
 3213TIP3    H131054   5.892   1.746   6.509 -0.4942  1.4635 -1.1254
 3213TIP3    H231055   5.935   1.835   6.623 -1.2314  0.6128 -0.1706
 3214TIP3   OH231056   4.223   6.463   4.185 -0.6724 -0.3097  0.1803
 3214TIP3    H131057   4.272   6.465   4.267 -1.6453  0.4173  0.7655
 3214TIP3    H231058   4.276   6.514   4.124  0.3591 -1.3790  0.1819
 3215TIP3   OH231059   6.088   3.579  13.296  0.1512 -0.7745 -0.3194
 3215TIP3    H131060   6.141   3.529  13.358  0.0231 -0.6316 -0.0929
 3215TIP3    H231061   6.095   3.669  13.327 -1.0321 -0.8842  0.3044
 3216TIP3   OH231062   5.138   2.212  14.326 -0.1938  0.3805  0.4770
 3216TIP3    H131063   5.155   2.288  14.381 -2.6798  1.1720  0.2122
 3216TIP3    H231064   5.043   2.201  14.328  0.1191 -2.8414  0.6535
 3217TIP3   OH231065   1.453   4.688  12.423  0.5910 -0.3343  0.1226
 3217TIP3    H131066   1.543   4.717  12.439  0.8752 -1.2555  0.1807
 3217TIP3    H231067   1.403   4.770  12.417  0.9476  0.1200  2.7856
 3218TIP3   OH231068   5.094   2.854   3.557  0.7969  0.2249  0.7840
 3218TIP3    H131069   5.165   2.800   3.523  0.1982  0.5064 -0.9641
 3218TIP3    H231070   5.038   2.793   3.605  0.1529 -0.7199 -1.1296
 3219TIP3   OH231071   5.162   3.090  13.241 -0.9795  0.6309  0.2177
 3219TIP3    H131072   5.147   3.079  13.335 -2.4765 -1.6440 -0.2377
 3219TIP3    H231073   5.084   3.052  13.200 -0.1843  1.2883 -1.9585
 3220TIP3   OH231074   6.145   5.411   4.285 -0.2114  0.4240  0.0193
 3220TIP3    H131075   6.236   5.382   4.291 -0.2774  0.6611  2.7944
 3220TIP3    H231076   6.103   5.346   4.230  1.8782  0.9468 -2.2681
 3221TIP3   OH231077   3.802   4.563  17.203  0.5694  0.2400  0.0899
 3221TIP3    H131078   3.848   4.480  17.215  0.0373 -0.2479 -1.1314
 3221TIP3    H231079   3.862   4.629  17.238  0.7619 -0.6964  1.5724
 3222TIP3   OH231080   3.511   5.090  15.805  0.4239  0.0351  0.4536
 3222TIP3    H131081   3.538   5.182  15.812  0.7956 -0.0683  0.3809
 3222TIP3    H231082   3.416   5.094  15.798  0.4538  0.4259  0.2373
 3223TIP3   OH231083   5.972   4.298   2.164 -1.3126  0.5489  0.0881
 3223TIP3    H131084   5.937   4.322   2.079 -0.1795  0.1982 -0.4861
 3223TIP3    H231085   6.062   4.269   2.146 -1.5867 -1.0461  1.1665
 3224TIP3   OH231086   2.494   4.680   2.031  0.3446  0.4888 -0.0684
 3224TIP3    H131087   2.587   4.692   2.047  0.2102 -1.3544  2.4002
 3224TIP3    H231088   2.489   4.618   1.959  1.0424 -1.3681  1.4634
 3225TIP3   OH231089   6.264   2.958  14.494  0.4400 -0.3524 -0.7789
 3225TIP3    H131090   6.308   2.874  14.507  0.0818 -0.3445  0.4816
 3225TIP3    H231091   6.333   3.015  14.459  1.3444 -0.4680  0.7606
 3226TIP3   OH231092   3.439   4.844   5.584 -0.8702  0.0075  0.3307
 3226TIP3    H131093   3.368   4.780   5.585 -2.3474  1.5816 -0.3965
 3226TIP3    H231094   3.439   4.880   5.672 -1.1950  0.2240  0.2453
 3227TIP3   OH231095   5.972   1.065   3.349 -0.0892 -0.2250  0.4962
 3227TIP3    H131096   5.977   1.089   3.256 -1.6915 -1.7305  0.0009
 3227TIP3    H231097   5.880   1.073   3.372  0.1756 -0.6486  1.7602
 3228TIP3   OH231098   3.656   3.816  14.983  0.5135  0.2875 -0.3443
 3228TIP3    H131099   3.566   3.835  14.958  1.0121  0.6889 -1.9053
 3228TIP3    H231100   3.668   3.860  15.067 -0.6377  0.4940 -0.2815
 3229TIP3   OH231101   5.977   0.350   3.811  0.1776 -0.1750  0.4315
 3229TIP3    H131102   6.005   0.272   3.858  1.0742  1.2751  2.3589
 3229TIP3    H231103   5.973   0.419   3.878 -2.5539  0.9862 -0.8316
 3230TIP3   OH231104   1.311   3.539  11.920  0.2801  0.1140  0.5589
 3230TIP3    H131105   1.253   3.615  11.919 -1.2530 -1.0442  0.0599
 3230TIP3    H231106   1.397   3.575  11.898 -0.2907  1.8096  1.0032
 3231TIP3   OH231107   4.686   3.917  11.201 -0.6142 -0.7617  0.0764
 3231TIP3    H131108   4.668   3.828  11.172  0.0402 -0.1150 -2.4449
 3231TIP3    H231109   4.608   3.967  11.175 -1.5626 -0.8298  2.6877
 3232TIP3   OH231110   2.629   5.474   1.643 -0.2289  0.3053 -0.4523
 3232TIP3    H131111   2.540   5.458   1.674 -0.0287 -1.4970 -0.7648
 3232TIP3    H231112   2.620   5.483   1.548  0.0324 -0.8585 -0.5982
 3233TIP3   OH231113   3.276   0.026   1.959  0.1249 -0.0639  0.2125
 3233TIP3    H131114   3.221   0.097   1.992 -0.6386 -0.3645 -0.3775
 3233TIP3    H231115   3.253  -0.049   2.013  0.8668  0.1184  0.7776
 3234TIP3   OH231116   1.169   1.908  16.355 -0.1439 -0.5557  0.1972
 3234TIP3    H131117   1.228   1.981  16.337 -0.9173 -0.5567 -2.4885
 3234TIP3    H231118   1.166   1.858  16.273 -0.7660 -2.7970  1.5322
 3235TIP3   OH231119   2.048   1.565   0.405  0.9168 -0.1915 -0.3918
 3235TIP3    H131120   2.048   1.592   0.497 -3.1330  1.4292 -0.7656
 3235TIP3    H231121   2.065   1.471   0.407  1.2952 -0.1068  1.9604
 3236TIP3   OH231122   5.181   1.163  11.671  0.3176  0.2556 -0.1292
 3236TIP3    H131123   5.230   1.244  11.660  0.1937  0.4992  1.0732
 3236TIP3    H231124   5.204   1.133  11.759 -0.8247 -0.2140  0.0111
 3237TIP3   OH231125   6.082   4.646   1.896  0.2416 -0.4605  0.3271
 3237TIP3    H131126   6.120   4.732   1.881  0.3826 -0.9770 -2.4491
 3237TIP3    H231127   5.992   4.653   1.863  0.0636 -1.2297  0.6295
 3238TIP3   OH231128   5.982   3.493   4.953  0.0255  0.3194 -0.6026
 3238TIP3    H131129   6.023   3.578   4.965 -0.2779  0.4258 -0.3001
 3238TIP3    H231130   5.910   3.492   5.016  0.7773 -0.6330  0.2652
 3239TIP3   OH231131   3.529   3.799  12.897 -0.5095 -0.0870  0.6856
 3239TIP3    H131132   3.463   3.730  12.897 -1.2663  0.5870 -1.2303
 3239TIP3    H231133   3.604   3.760  12.852 -0.4210 -0.1184  0.8606
 3240TIP3   OH231134   2.923   0.147   2.396 -0.6553  0.0683  0.6202
 3240TIP3    H131135   2.888   0.119   2.481 -0.2794 -0.9727  0.4489
 3240TIP3    H231136   2.948   0.238   2.408 -0.2302 -0.1897  1.7524
 3241TIP3   OH231137   2.050   5.929   6.449  1.1696  0.4420 -0.2589
 3241TIP3    H131138   2.008   5.876   6.516  1.7574 -0.5461 -0.6495
 3241TIP3    H231139   2.125   5.970   6.493  0.3564  1.4485  0.1975
 3242TIP3   OH231140   4.550   1.369   4.464  0.3051 -0.0503  0.1613
 3242TIP3    H131141   4.567   1.455   4.502  0.2864  0.7795 -1.6427
 3242TIP3    H231142   4.599   1.369   4.382 -1.5919 -0.8227 -1.0228
 3243TIP3   OH231143   5.081   2.440  14.793 -0.0332 -0.6332  0.0525
 3243TIP3    H131144   5.026   2.515  14.772 -1.2136 -1.8599 -1.3450
 3243TIP3    H231145   5.086   2.439  14.888 -0.1241  1.1241  0.0852
 3244TIP3   OH231146   5.481   3.515   3.400 -0.3806  0.4705 -0.1692
 3244TIP3    H131147   5.390   3.492   3.379  0.0519 -1.1576 -0.3425
 3244TIP3    H231148   5.475   3.602   3.438 -2.1068  0.1096  0.4633
 3245TIP3   OH231149   5.515   2.766  17.227 -0.2964 -0.5218 -0.0474
 3245TIP3    H131150   5.510   2.862  17.234 -1.4204 -0.5255 -0.7193
 3245TIP3    H231151   5.468   2.746  17.146 -1.1524 -1.7589  0.7471
 3246TIP3   OH231152   4.989   6.369   5.008 -0.0303  0.1869 -0.3618
 3246TIP3    H131153   5.004   6.425   4.932  0.3175 -0.7876 -1.0253
 3246TIP3    H231154   4.942   6.293   4.973 -1.6240  0.6356  0.7450
 3247TIP3   OH231155   3.070   5.656   3.531  0.1917  0.0606  0.0682
 3247TIP3    H131156   3.106   5.706   3.604  1.2735  0.3041 -0.6231
 3247TIP3    H231157   3.033   5.577   3.571  1.9652 -0.4450  0.7346
 3248TIP3   OH231158   6.777   1.289   0.475  0.5458 -0.0422  0.4435
 3248TIP3    H131159   6.789   1.218   0.412 -2.2024 -1.2684  1.2066
 3248TIP3    H231160   6.866   1.314   0.501  1.5803 -2.8309 -0.2597
 3249TIP3   OH231161   3.122   2.231  16.938 -0.5579 -0.3397  0.2080
 3249TIP3    H131162   3.035   2.202  16.912 -1.1681  0.1844  1.6126
 3249TIP3    H231163   3.142   2.181  17.017 -0.4188  0.9651  1.0195
 3250TIP3   OH231164   4.431   6.007   4.846 -0.0382  0.2892 -0.1501
 3250TIP3    H131165   4.389   6.073   4.901  2.4303  1.2702  0.6566
 3250TIP3    H231166   4.497   5.967   4.903 -0.1635 -1.4864 -1.2246
 3251TIP3   OH231167   1.803   4.959  15.847  0.1107  0.2195 -0.5730
 3251TIP3    H131168   1.802   4.888  15.911 -0.1314 -1.0336 -1.9392
 3251TIP3    H231169   1.773   5.036  15.896  0.4513 -0.5992  0.9402
 3252TIP3   OH231170   6.607   2.698   3.182 -0.0481 -0.5603 -0.2186
 3252TIP3    H131171   6.627   2.669   3.093  0.0984  1.4881 -0.8839
 3252TIP3    H231172   6.517   2.730   3.177  0.9574  2.4279 -0.4252
 3253TIP3   OH231173   6.664   1.453  11.497 -0.3662 -0.3600  0.3808
 3253TIP3    H131174   6.644   1.546  11.503 -0.4053 -0.5142  2.7998
 3253TIP3    H231175   6.580   1.409  11.505 -0.2674 -0.6428 -0.0694
 3254TIP3   OH231176   3.148   2.234  12.488  0.5454 -0.0494 -0.2783
 3254TIP3    H131177   3.180   2.264  12.573 -1.4162 -2.5136  1.4226
 3254TIP3    H231178   3.135   2.314  12.437  0.0860  1.6262  2.3553
 3255TIP3   OH231179   0.588   3.120   5.261  0.7580 -0.3531 -0.3055
 3255TIP3    H131180   0.672   3.149   5.224  0.7993  0.5350  0.4484
 3255TIP3    H231181   0.522   3.155   5.201  0.8595  0.3972  0.0072
 3256TIP3   OH231182   6.545   6.618   5.422 -0.2805 -0.3162  0.1651
 3256TIP3    H131183   6.638   6.631   5.441 -0.0980 -0.5710 -0.5121
 3256TIP3    H231184   6.539   6.525   5.396 -0.6576 -0.2103 -0.1320
 3257TIP3   OH231185   4.832   5.389  14.236 -0.4121  0.2688  0.2063
 3257TIP3    H131186   4.781   5.350  14.165  0.3771  0.6570 -0.5853
 3257TIP3    H231187   4.889   5.453  14.192  3.2723 -2.5959  0.5917
 3258TIP3   OH231188   3.109   1.913   3.148  0.1140  0.1005 -0.2969
 3258TIP3    H131189   3.086   1.970   3.075 -1.7239 -1.2801 -0.8549
 3258TIP3    H231190   3.067   1.830   3.127  0.4399 -0.6293  1.8116
 3259TIP3   OH231191   5.996   4.274  12.745 -0.1595  0.4463 -0.3992
 3259TIP3    H131192   5.950   4.236  12.670  2.3284 -0.2402 -1.6385
 3259TIP3    H231193   6.020   4.362  12.716 -0.1924  0.5970  0.0365
 3260TIP3   OH231194   4.868   0.856   1.256 -0.0262 -0.6783 -0.1505
 3260TIP3    H131195   4.894   0.765   1.242 -0.2332 -0.6738 -0.5602
 3260TIP3    H231196   4.866   0.866   1.352  0.3218 -1.0085 -0.1052
 3261TIP3   OH231197   2.282   6.434  15.208 -0.3902  0.0129  0.4495
 3261TIP3    H131198   2.273   6.441  15.113  1.1967 -1.9269  0.1131
 3261TIP3    H231199   2.192   6.441  15.241 -0.6601  3.7926 -0.9124
 3262TIP3   OH231200   5.802   3.990   4.078 -0.0355  1.0850 -0.0628
 3262TIP3    H131201   5.837   3.942   4.153 -0.6371  0.3409 -0.2524
 3262TIP3    H231202   5.861   4.065   4.067  1.2611  0.0709 -0.1257
 3263TIP3   OH231203   2.224   0.875   3.644  0.0466  0.5591 -0.0092
 3263TIP3    H131204   2.191   0.865   3.733  0.0353 -0.8307 -0.1657
 3263TIP3    H231205   2.319   0.859   3.652 -0.4370 -3.2354 -0.7949
 3264TIP3   OH231206   5.438   6.251   0.265  0.0412  0.5158 -0.2274
 3264TIP3    H131207   5.412   6.256   0.357  0.9911 -2.0760  0.2014
 3264TIP3    H231208   5.359   6.274   0.216 -1.3452 -1.1387  1.1920
 3265TIP3   OH231209   0.436   6.706  12.158 -0.6929 -0.6747 -0.3870
 3265TIP3    H131210   0.384   6.714  12.078 -0.0222  0.1575 -0.7443
 3265TIP3    H231211   0.436   6.612  12.177 -3.9503 -0.5188  0.7196
 3266TIP3   OH231212   5.960   1.735   5.844 -0.0797  0.3067 -0.1157
 3266TIP3    H131213   6.038   1.701   5.800 -0.3122 -0.8598  0.3631
 3266TIP3    H231214   5.902   1.660   5.852 -0.8451  0.9451  0.4457
 3267TIP3   OH231215   0.610   1.775   1.134 -0.6924 -0.1000  0.3189
 3267TIP3    H131216   0.550   1.812   1.069 -0.8430 -0.1639  0.4212
 3267TIP3    H231217   0.692   1.762   1.087 -0.5417  0.6506  0.3562
 3268TIP3   OH231218   3.109   5.964   4.329  0.2879 -0.1264 -0.1926
 3268TIP3    H131219   3.174   5.956   4.259  0.9070 -2.1206  0.5867
 3268TIP3    H231220   3.051   5.889   4.318 -0.2982  0.1717  0.7425
 3269TIP3   OH231221   3.486   0.705   3.234  0.4066 -0.1090  0.2467
 3269TIP3    H131222   3.561   0.765   3.230 -0.2465  0.6948 -0.1942
 3269TIP3    H231223   3.509   0.635   3.173 -0.6236  1.8404 -2.5214
 3270TIP3   OH231224   0.475   2.573  16.358  0.1017  0.4199  0.1456
 3270TIP3    H131225   0.436   2.547  16.441 -1.2622  2.0349  0.0477
 3270TIP3    H231226   0.418   2.534  16.291 -0.9062  2.0489  0.0038
 3271TIP3   OH231227   1.370   6.318  17.231  0.3512 -0.0468  0.1170
 3271TIP3    H131228   1.337   6.305  17.142  0.5753 -3.2207  0.4296
 3271TIP3    H231229   1.291   6.321  17.285  0.2922 -0.0085  0.0296
 3272TIP3   OH231230   0.165   6.710  13.955  0.0228 -0.6031 -0.5022
 3272TIP3    H131231   0.248   6.663  13.960  0.1595 -0.5277 -1.7449
 3272TIP3    H231232   0.099   6.643  13.970  0.3486 -0.1764  3.2626
 3273TIP3   OH231233   5.442   3.906  10.992  0.0004 -0.1482 -0.5187
 3273TIP3    H131234   5.380   3.851  11.041  0.7575 -0.4289  0.1448
 3273TIP3    H231235   5.391   3.980  10.963 -0.5484 -0.1453  0.4309
 3274TIP3   OH231236   4.959   5.725  16.481  0.4466  0.0671 -0.4610
 3274TIP3    H131237   4.998   5.678  16.407 -0.0514 -0.0950 -0.6246
 3274TIP3    H231238   4.955   5.816  16.452  0.2804  0.0092 -0.6269
 3275TIP3   OH231239   2.218   3.678   2.246 -0.4628 -0.3919 -0.2661
 3275TIP3    H131240   2.169   3.757   2.267 -2.6755 -1.9783  0.7420
 3275TIP3    H231241   2.173   3.642   2.170  1.6238  0.2178 -1.8365
 3276TIP3   OH231242   2.898   5.604   1.493 -0.2767  0.0893  0.7718
 3276TIP3    H131243   2.897   5.531   1.554  0.0311 -0.0482  0.6129
 3276TIP3    H231244   2.989   5.611   1.465 -0.3025  0.5405  0.7942
 3277TIP3   OH231245   3.453   0.248  14.331 -0.2366 -0.1469 -0.2427
 3277TIP3    H131246   3.534   0.197  14.331 -0.6642 -0.9466  3.0110
 3277TIP3    H231247   3.481   0.336  14.360 -0.2946 -0.0053 -0.6219
 3278TIP3   OH231248   4.298   6.683   1.349 -0.0115  0.6804 -0.3101
 3278TIP3    H131249   4.267   6.615   1.409 -0.9925  0.5129 -0.9794
 3278TIP3    H231250   4.325   6.755   1.405  1.1579 -0.2950  0.4221
 3279TIP3   OH231251   4.761   0.053  13.230  0.1911  0.4625 -0.0602
 3279TIP3    H131252   4.715  -0.030  13.246 -0.8808  1.0955  0.1812
 3279TIP3    H231253   4.697   0.120  13.253  1.5263  1.3558  1.0438
 3280TIP3   OH231254   1.337   0.774   1.600  0.1450  0.3891 -0.4419
 3280TIP3    H131255   1.415   0.826   1.581  0.2849  0.2101 -0.3567
 3280TIP3    H231256   1.366   0.683   1.594 -0.5539  0.2837 -2.5157
 3281TIP3   OH231257   4.161   2.784  15.117 -0.0990 -0.4239 -0.1369
 3281TIP3    H131258   4.090   2.743  15.167 -0.4361  0.0411 -0.2369
 3281TIP3    H231259   4.233   2.790  15.179 -1.2778  2.3570  1.0267
 3282TIP3   OH231260   2.275   2.944   0.520  0.4739  0.0398  0.9151
 3282TIP3    H131261   2.298   3.016   0.578 -0.2756  1.2893 -0.3206
 3282TIP3    H231262   2.185   2.921   0.545 -0.7616  2.1976 -1.3217
 3283TIP3   OH231263   4.209   0.921   1.768  0.1230 -0.5473 -0.4485
 3283TIP3    H131264   4.275   0.986   1.792 -0.2693 -0.3896  0.1975
 3283TIP3    H231265   4.256   0.860   1.711  0.7605 -0.2923 -0.1998
 3284TIP3   OH231266   1.748   4.874  15.004 -0.4948 -0.3465  0.1299
 3284TIP3    H131267   1.652   4.878  14.997 -0.5738 -0.9106  0.9009
 3284TIP3    H231268   1.779   4.909  14.920 -1.3682  0.3965  0.1075
 3285TIP3   OH231269   6.299   5.399   0.561  0.2999  0.2732  0.3929
 3285TIP3    H131270   6.210   5.367   0.575  0.3440 -0.2887 -0.5934
 3285TIP3    H231271   6.295   5.492   0.584 -0.4506  0.1698  0.6981
 3286TIP3   OH231272   0.835   3.966   1.915 -0.1431 -0.2212 -0.0140
 3286TIP3    H131273   0.807   3.909   1.842 -1.2278 -0.2878  0.4473
 3286TIP3    H231274   0.756   4.011   1.942  0.8702  2.2199 -0.9519
 3287TIP3   OH231275   3.472   3.951  12.014  0.2492 -0.1346 -0.8957
 3287TIP3    H131276   3.451   3.915  12.100  1.2314 -1.5218 -1.2141
 3287TIP3    H231277   3.430   3.891  11.952  0.7868  0.0083 -1.4077
 3288TIP3   OH231278   1.555   1.356  16.239  0.3510 -0.0155  0.2569
 3288TIP3    H131279   1.493   1.421  16.207  0.4956 -0.1839 -0.3927
 3288TIP3    H231280   1.542   1.354  16.333 -0.8534 -0.2826  0.0897
 3289TIP3   OH231281   1.389   0.548   3.874 -0.1758 -0.1867 -0.4146
 3289TIP3    H131282   1.404   0.561   3.780 -1.6720 -0.0510 -0.6517
 3289TIP3    H231283   1.452   0.605   3.917  0.1358  0.1856 -1.3509
 3290TIP3   OH231284   4.299   3.358  17.091 -0.3712 -0.4996 -0.1624
 3290TIP3    H131285   4.304   3.404  17.175  0.0792 -1.3353  0.2707
 3290TIP3    H231286   4.390   3.348  17.063 -0.5806  1.2214 -1.5552
 3291TIP3   OH231287   5.844   3.052   2.351  0.1770  0.5108 -0.3721
 3291TIP3    H131288   5.884   2.980   2.401  0.1987 -0.5212 -1.8421
 3291TIP3    H231289   5.912   3.120   2.349  0.4160  0.3075  0.4256
 3292TIP3   OH231290   2.039   4.035   4.469  0.0284 -0.1801 -0.0558
 3292TIP3    H131291   2.104   4.015   4.536 -0.6634 -0.8672  0.4267
 3292TIP3    H231292   2.019   3.951   4.428  0.1805  0.1815 -0.8909
 3293TIP3   OH231293   6.712   2.724   0.832  0.0982 -0.0546  0.1170
 3293TIP3    H131294   6.785   2.750   0.776  0.0090 -1.5434 -0.6918
 3293TIP3    H231295   6.640   2.705   0.772 -0.0643 -1.4408  0.7223
 3294TIP3   OH231296   4.848   5.098   1.701 -0.4358  0.1533 -0.1472
 3294TIP3    H131297   4.767   5.052   1.723  0.1766 -0.4101  0.9743
 3294TIP3    H231298   4.881   5.130   1.785  0.5894  0.2419 -0.5752
 3295TIP3   OH231299   0.772   0.726   6.282 -0.4624  0.2417  0.4812
 3295TIP3    H131300   0.848   0.674   6.311 -0.6306  0.7134  1.7720
 3295TIP3    H231301   0.731   0.756   6.363 -0.7482  1.8513 -0.2522
 3296TIP3   OH231302   3.268   5.245  15.051 -0.4225 -0.3679 -0.0140
 3296TIP3    H131303   3.192   5.272  15.103  0.0275 -1.2819  1.1376
 3296TIP3    H231304   3.327   5.320  15.054 -0.3352 -0.4697  0.9314
 3297TIP3   OH231305   6.505   3.021   0.099 -0.4279  0.2957 -0.1890
 3297TIP3    H131306   6.515   3.114   0.119 -2.2340  0.0510  2.2275
 3297TIP3    H231307   6.503   2.979   0.185  0.9891 -2.0653 -1.2703
 3298TIP3   OH231308   1.674   2.177  13.120  0.1087 -0.6946  0.2432
 3298TIP3    H131309   1.586   2.146  13.142 -0.1523 -0.8553 -0.9804
 3298TIP3    H231310   1.732   2.116  13.164 -0.3922 -0.9104  0.6146
 3299TIP3   OH231311   1.790   2.242   1.160 -0.5256 -0.1288  0.0306
 3299TIP3    H131312   1.759   2.162   1.203 -1.9238  1.5784  2.3364
 3299TIP3    H231313   1.859   2.274   1.217 -2.3180  2.1172  1.0160
 3300TIP3   OH231314   6.499   1.994   0.826  0.0876 -0.0275 -0.1784
 3300TIP3    H131315   6.587   2.027   0.842 -0.1172 -0.9907  3.3655
 3300TIP3    H231316   6.455   2.065   0.778  1.3433  2.4860  2.2366
 3301TIP3   OH231317   3.260   0.629  11.270  0.4260  0.5279  0.8180
 3301TIP3    H131318   3.320   0.568  11.228 -1.2354 -1.6537  1.5421
 3301TIP3    H231319   3.314   0.679  11.331  1.8743  0.0773 -0.0893
 3302TIP3   OH231320   6.343   6.320  13.655 -0.1628 -0.0927 -0.0440
 3302TIP3    H131321   6.336   6.254  13.587  2.2160 -1.0322  0.5382
 3302TIP3    H231322   6.319   6.274  13.736  0.9403 -0.1166  0.2825
 3303TIP3   OH231323   4.912   5.680  14.878 -0.7441  0.4773  0.4381
 3303TIP3    H131324   4.986   5.731  14.845 -1.1153 -0.4169 -1.8716
 3303TIP3    H231325   4.837   5.738  14.866 -1.0313 -0.2472 -1.3021
 3304TIP3   OH231326   0.266   5.724   1.992  0.0955 -0.3994  0.2087
 3304TIP3    H131327   0.309   5.701   2.074  0.5677 -1.2713 -0.2804
 3304TIP3    H231328   0.174   5.737   2.016 -0.1415 -2.5219  0.5594
 3305TIP3   OH231329   6.422   6.559   0.843 -0.0386 -0.1647  0.8435
 3305TIP3    H131330   6.385   6.471   0.830  0.1661 -0.4769  2.3087
 3305TIP3    H231331   6.433   6.593   0.754 -2.1174 -0.7878  0.3044
 3306TIP3   OH231332   3.137   3.888   2.529 -1.1173 -0.5861 -0.2678
 3306TIP3    H131333   3.157   3.802   2.491  0.1311 -1.0118  1.2881
 3306TIP3    H231334   3.218   3.914   2.573 -1.1496  1.8846 -1.6109
 3307TIP3   OH231335   2.142   0.164   0.021 -0.5455 -0.2715 -0.1154
 3307TIP3    H131336   2.052   0.158   0.054 -0.2487  1.2730  1.0246
 3307TIP3    H231337   2.196   0.164   0.099  0.3355  0.6877 -0.7103
 3308TIP3   OH231338   1.039   5.348  14.617  0.5412  0.8877  0.4437
 3308TIP3    H131339   0.982   5.421  14.639  1.6625  1.0746  2.8269
 3308TIP3    H231340   1.127   5.381  14.635  1.2178 -0.3533 -0.5147
 3309TIP3   OH231341   1.096   4.097   2.378  0.4025 -0.3730 -0.4285
 3309TIP3    H131342   1.103   4.176   2.431 -0.0036 -1.1614  0.8394
 3309TIP3    H231343   1.031   4.118   2.311 -0.1397  0.1708  0.2626
 3310TIP3   OH231344   6.111   4.140  14.329  0.3268 -0.8628  0.2409
 3310TIP3    H131345   6.099   4.234  14.345  1.0428 -0.8704  0.8468
 3310TIP3    H231346   6.099   4.130  14.235  0.5653 -0.1075  0.1242
 3311TIP3   OH231347   3.313   1.529   2.952  0.0620  0.1931 -0.3993
 3311TIP3    H131348   3.260   1.511   2.874 -0.0926 -0.0557 -0.2384
 3311TIP3    H231349   3.336   1.621   2.944  0.7333 -0.0316 -1.1601
 3312TIP3   OH231350   4.982   5.948  10.888 -0.1292  0.0130 -0.0493
 3312TIP3    H131351   5.061   5.894  10.885 -0.0346  0.1577 -0.1766
 3312TIP3    H231352   5.010   6.028  10.934 -0.3567 -0.1908  0.4500
 3313TIP3   OH231353   3.953   2.887   2.710 -0.2799 -0.3704 -0.0188
 3313TIP3    H131354   3.892   2.893   2.636 -1.6887 -0.7675  1.0777
 3313TIP3    H231355   4.028   2.839   2.676 -1.3163 -1.3754 -0.9285
 3314TIP3   OH231356   2.351   6.543   5.190  0.3106 -0.0308  0.1723
 3314TIP3    H131357   2.356   6.476   5.258  1.4413  0.0798  0.2054
 3314TIP3    H231358   2.335   6.624   5.238 -1.9617 -0.3781  0.0699
 3315TIP3   OH231359   1.075   6.536   1.086  0.0496 -0.5565 -0.9366
 3315TIP3    H131360   1.099   6.478   1.158 -0.7499 -0.6242 -0.7220
 3315TIP3    H231361   1.118   6.619   1.107 -0.5710 -0.4314 -0.1295
 3316TIP3   OH231362   2.594   4.121  14.851  0.6920  0.3879 -0.3657
 3316TIP3    H131363   2.519   4.065  14.871  2.1487 -2.0015 -1.3299
 3316TIP3    H231364   2.559   4.210  14.849 -1.7267 -0.5054  1.0477
 3317TIP3   OH231365   3.438   0.504   2.318  0.2295 -0.3775 -0.2300
 3317TIP3    H131366   3.467   0.439   2.382  1.2876  2.7761  2.6431
 3317TIP3    H231367   3.347   0.522   2.343  0.3775  0.2541 -0.1605
 3318TIP3   OH231368   6.448   6.523  13.852  0.1585 -0.1333  0.3842
 3318TIP3    H131369   6.381   6.557  13.911  1.8816  0.4293  2.0432
 3318TIP3    H231370   6.425   6.559  13.766 -0.6329  1.5250  1.2759
 3319TIP3   OH231371   1.829   1.904  12.005 -0.0022  0.4138  0.2912
 3319TIP3    H131372   1.765   1.835  11.988 -1.8728  2.0928  0.3408
 3319TIP3    H231373   1.880   1.910  11.924  0.1483 -0.9865  0.2761
 3320TIP3   OH231374   2.719   3.825  16.212 -0.2518  0.2779 -0.1679
 3320TIP3    H131375   2.792   3.874  16.173 -1.8926  1.0623 -2.4321
 3320TIP3    H231376   2.759   3.750  16.254  1.8976  0.9170 -1.0111
 3321TIP3   OH231377   0.051   0.410  12.045 -0.5989  0.1469 -0.8781
 3321TIP3    H131378   0.013   0.401  12.133 -1.0498  1.6064 -0.9196
 3321TIP3    H231379   0.018   0.494  12.013  2.0303  1.0656 -1.2462
 3322TIP3   OH231380   3.226   6.343  15.122  0.2788 -0.0265  0.4492
 3322TIP3    H131381   3.282   6.387  15.058  0.6912 -0.5924  0.4155
 3322TIP3    H231382   3.253   6.379  15.206  2.3886 -2.0398  0.6856
 3323TIP3   OH231383   5.153   0.530  12.078  0.2292 -0.0115 -0.3551
 3323TIP3    H131384   5.078   0.470  12.070  1.0679 -1.1343 -0.0031
 3323TIP3    H231385   5.229   0.472  12.086  1.1649  1.1125 -0.9078
 3324TIP3   OH231386   2.905   3.586  15.600  0.6205 -0.4769  0.1715
 3324TIP3    H131387   2.885   3.667  15.646 -0.9783 -0.7754  0.0562
 3324TIP3    H231388   2.928   3.613  15.511  0.6335 -0.1124  0.2885
 3325TIP3   OH231389   0.967   3.763   4.237  0.0383  0.3997 -0.0101
 3325TIP3    H131390   0.918   3.758   4.155  0.3599 -0.9572 -0.1307
 3325TIP3    H231391   1.058   3.747   4.213  0.0392 -0.7507  0.6879
 3326TIP3   OH231392   6.479   5.929   0.075  0.2603 -0.0499  0.0069
 3326TIP3    H131393   6.418   5.951   0.146 -0.4245 -0.3401 -0.4837
 3326TIP3    H231394   6.481   5.833   0.073  1.3318 -0.0429  0.5238
 3327TIP3   OH231395   3.987   4.077   2.692 -0.5437 -0.7857 -0.3266
 3327TIP3    H131396   3.902   4.034   2.685  0.8894 -4.2263  2.1085
 3327TIP3    H231397   4.027   4.064   2.606 -0.9313 -2.6642 -0.2518
 3328TIP3   OH231398   2.464   5.264   0.124  0.5257 -0.5471  0.0598
 3328TIP3    H131399   2.431   5.309   0.201 -0.0120  0.4168 -0.7291
 3328TIP3    H231400   2.404   5.287   0.054  1.8221 -0.2380 -0.9845
 3329TIP3   OH231401   0.330   5.535   5.147 -0.2337 -0.1255  0.2261
 3329TIP3    H131402   0.400   5.474   5.171  0.7103  0.6261 -0.6091
 3329TIP3    H231403   0.311   5.582   5.228 -0.1876 -0.7435  0.6015
 3330TIP3   OH231404   0.815   1.047  11.151  0.3080  0.3080  0.8568
 3330TIP3    H131405   0.881   1.087  11.208 -1.7964  0.2494  3.3838
 3330TIP3    H231406   0.787   1.117  11.093  0.7547  0.9816  1.4501
 3331TIP3   OH231407   6.008   4.685  16.703 -0.6237  0.1487  0.2014
 3331TIP3    H131408   6.101   4.690  16.722 -0.0647  0.0507 -2.3816
 3331TIP3    H231409   5.989   4.764  16.654 -1.3844 -0.9475 -1.3206
 3332TIP3   OH231410   1.281   6.237   6.615  0.5851 -0.1188  0.3793
 3332TIP3    H131411   1.353   6.184   6.580  1.1397  0.9289 -0.0896
 3332TIP3    H231412   1.320   6.287   6.685  0.0092 -0.4710  0.9570
 3333TIP3   OH231413   3.640   4.263  16.246  0.3904 -0.0932 -0.3820
 3333TIP3    H131414   3.597   4.192  16.293  1.1536 -0.1124  0.3042
 3333TIP3    H231415   3.572   4.330  16.234 -0.4924 -1.1914 -1.5747
 3334TIP3   OH231416   2.377   3.086  12.169  0.2929 -0.1249  0.4410
 3334TIP3    H131417   2.442   3.080  12.240  0.8691  1.5661  0.0865
 3334TIP3    H231418   2.333   3.169  12.184  1.4551  0.9936 -2.0400
 3335TIP3   OH231419   5.579   5.638  15.947  0.5184  0.0746  0.5666
 3335TIP3    H131420   5.559   5.545  15.936  0.0581  0.2593 -0.1806
 3335TIP3    H231421   5.626   5.663  15.868  0.2393  0.5887  0.5555
 3336TIP3   OH231422   4.397   4.941  11.873 -0.2696 -0.2872  0.3759
 3336TIP3    H131423   4.407   5.004  11.945 -0.8370  0.6601 -0.3768
 3336TIP3    H231424   4.471   4.882  11.884  0.8411  1.0931  0.5074
 3337TIP3   OH231425   2.596   0.285   2.957  0.0493 -0.0983 -0.0379
 3337TIP3    H131426   2.624   0.372   2.928 -1.9226  0.6540  0.1994
 3337TIP3    H231427   2.576   0.239   2.876 -1.3356  0.5531 -0.0874
 3338TIP3   OH231428   3.339   3.680   0.386 -0.3711 -0.0577  0.0427
 3338TIP3    H131429   3.433   3.677   0.368 -0.3207  1.1622  0.0599
 3338TIP3    H231430   3.315   3.589   0.401  0.4750 -0.5750 -1.6384
 3339TIP3   OH231431   6.659   6.454  12.713  0.0467  0.7996 -0.5110
 3339TIP3    H131432   6.574   6.436  12.753 -0.1421 -1.0587 -1.6777
 3339TIP3    H231433   6.709   6.498  12.782 -1.3346  0.4924  0.7128
 3340TIP3   OH231434   3.627   5.310  12.676  0.1842  0.0282  0.5205
 3340TIP3    H131435   3.603   5.312  12.583  2.8436 -2.3900 -0.2775
 3340TIP3    H231436   3.722   5.317  12.676  0.0596  2.4545  3.2419
 3341TIP3   OH231437   5.299   6.672   3.581  0.2737  0.4219 -0.4204
 3341TIP3    H131438   5.269   6.641   3.495  0.0498 -0.8991  0.1145
 3341TIP3    H231439   5.392   6.648   3.583 -0.2200 -1.4787  0.5352
 3342TIP3   OH231440   5.322   0.037   0.601 -0.2479 -0.8907  0.0394
 3342TIP3    H131441   5.246  -0.009   0.567 -1.4752  0.8193  0.4295
 3342TIP3    H231442   5.317   0.025   0.696 -2.1092  2.2431  0.4211
 3343TIP3   OH231443   0.686   2.225   2.869 -0.0647 -0.1501  0.0202
 3343TIP3    H131444   0.735   2.275   2.803 -0.2329  0.6494  0.4917
 3343TIP3    H231445   0.595   2.229   2.840 -0.5535  2.6016  1.7608
 3344TIP3   OH231446   4.224   4.103  14.998 -0.0790 -0.1682 -0.5139
 3344TIP3    H131447   4.199   4.174  14.940 -0.5751  0.5751  0.5866
 3344TIP3    H231448   4.141   4.066  15.029  0.1604  0.0171  0.3871
 3345TIP3   OH231449   6.266   6.560  14.062  0.5433 -0.1691 -0.2132
 3345TIP3    H131450   6.288   6.481  14.110  1.0032 -0.7094 -1.2961
 3345TIP3    H231451   6.326   6.626  14.095  2.7572 -1.2239 -2.0045
 3346TIP3   OH231452   4.129   1.524  12.523 -0.1230  0.0820  0.2635
 3346TIP3    H131453   4.195   1.558  12.583  0.2036 -1.7303  0.9830
 3346TIP3    H231454   4.174   1.520  12.439  0.0320  0.8041  0.3087
 3347TIP3   OH231455   5.783   1.525   5.848 -0.4007 -0.2155 -0.3419
 3347TIP3    H131456   5.753   1.439   5.876 -1.0493 -0.5541 -1.9977
 3347TIP3    H231457   5.766   1.527   5.754  0.9963  1.1603 -0.5931
 3348TIP3   OH231458   4.999   3.905  12.766  0.3900  0.1077 -0.2824
 3348TIP3    H131459   5.037   3.848  12.699  0.1818  0.6459 -0.8695
 3348TIP3    H231460   4.926   3.855  12.802  0.1717  0.0194 -0.8337
 3349TIP3   OH231461   1.433   2.008   3.431 -0.1760 -0.1975 -0.1806
 3349TIP3    H131462   1.492   1.991   3.358  1.3233 -0.4716  1.0712
 3349TIP3    H231463   1.490   2.011   3.508 -1.7788 -0.3777  1.0442
 3350TIP3   OH231464   5.876   4.589  15.846  0.0333  0.2063  0.2583
 3350TIP3    H131465   5.916   4.560  15.764  0.6270  0.2056  0.5461
 3350TIP3    H231466   5.938   4.651  15.883 -1.7071  2.6687 -0.8649
 3351TIP3   OH231467   0.589   6.246   4.758  0.3200  0.2424 -0.0707
 3351TIP3    H131468   0.499   6.275   4.742  0.2566 -0.3685 -0.8387
 3351TIP3    H231469   0.581   6.152   4.774  0.5331  0.5746  2.2747
 3352TIP3   OH231470   5.051   1.974  13.160 -0.1868  0.4578 -0.0145
 3352TIP3    H131471   4.991   2.020  13.219 -0.3001 -0.8414  0.9211
 3352TIP3    H231472   5.054   2.028  13.081 -1.2158  1.4468  0.6081
 3353TIP3   OH231473   5.093   1.618   3.288 -0.2367  0.6722 -0.3151
 3353TIP3    H131474   5.028   1.556   3.320  1.0152 -0.6792 -0.3244
 3353TIP3    H231475   5.173   1.596   3.336  0.2009  2.3684 -0.2259
 3354TIP3   OH231476   1.251   1.667   0.154 -0.1749 -0.4854 -0.3558
 3354TIP3    H131477   1.161   1.679   0.123 -0.5487 -2.6635 -0.2112
 3354TIP3    H231478   1.288   1.599   0.097  0.9377 -0.5644  0.4293
 3355TIP3   OH231479   1.593   0.290  13.152  0.3607  0.2567  0.1113
 3355TIP3    H131480   1.680   0.250  13.139 -0.4957 -1.8269  0.4955
 3355TIP3    H231481   1.567   0.319  13.065 -0.4493 -3.2520 -0.9280
 3356TIP3   OH231482   1.227   3.797  12.209 -0.3428 -0.3668 -0.0612
 3356TIP3    H131483   1.321   3.777  12.214 -0.1678  0.4176 -0.2591
 3356TIP3    H231484   1.222   3.892  12.208 -1.2317 -0.3822  1.4599
 3357TIP3   OH231485   2.504   2.273  16.917  0.3166  0.2661  0.4448
 3357TIP3    H131486   2.416   2.310  16.919  0.4224  0.6440 -0.9816
 3357TIP3    H231487   2.515   2.244  16.826  2.5971  2.5614 -0.0633
 3358TIP3   OH231488   2.832   6.514  13.045  0.0545  0.1240 -0.2060
 3358TIP3    H131489   2.832   6.587  13.108  1.2643  0.4903 -0.6294
 3358TIP3    H231490   2.884   6.445  13.088 -0.2640 -0.1297 -0.2247
 3359TIP3   OH231491   6.787   2.224  12.316  0.0868 -0.1550 -0.1031
 3359TIP3    H131492   6.853   2.163  12.282  1.2233  0.7933  0.4118
 3359TIP3    H231493   6.748   2.263  12.238  1.8678  1.1330 -0.3505
 3360TIP3   OH231494   1.915   0.560   2.909 -0.1528  0.0645 -0.5417
 3360TIP3    H131495   1.971   0.614   2.853 -1.2149 -1.7943 -3.5196
 3360TIP3    H231496   1.850   0.621   2.944  0.9009  1.3737 -0.8518
 3361TIP3   OH231497   5.473   0.130   0.956  0.6315  0.1687 -0.2505
 3361TIP3    H131498   5.541   0.170   0.902 -0.1253  0.0183 -1.3252
 3361TIP3    H231499   5.518   0.105   1.037  1.6889  0.7407 -0.6565
 3362TIP3   OH231500   2.295   4.430   1.270  0.3230 -0.2282 -0.2308
 3362TIP3    H131501   2.213   4.470   1.242 -0.2810 -2.8900 -2.5094
 3362TIP3    H231502   2.363   4.481   1.225  0.0127  2.1149  1.8338
 3363TIP3   OH231503   2.883   4.093   3.594 -0.1374  0.0514 -0.4488
 3363TIP3    H131504   2.942   4.064   3.525  1.2044  0.0389  0.6786
 3363TIP3    H231505   2.867   4.015   3.646 -0.3516  0.2728 -0.1806
 3364TIP3   OH231506   3.370   5.494   0.036 -0.7806 -0.1389  0.6436
 3364TIP3    H131507   3.430   5.520  -0.033 -0.7609 -0.9905  0.3380
 3364TIP3    H231508   3.421   5.501   0.116 -0.4182 -0.4044  0.4345
 3365TIP3   OH231509   1.411   2.660   3.306  0.0253  0.0073  0.0480
 3365TIP3    H131510   1.409   2.589   3.243  0.4538  1.5608 -1.7467
 3365TIP3    H231511   1.500   2.694   3.302 -0.0274  0.3266  1.2563
 3366TIP3   OH231512   5.239   1.552   0.292  0.1214  0.0490 -0.5284
 3366TIP3    H131513   5.268   1.539   0.383 -0.9869 -0.3799 -0.2279
 3366TIP3    H231514   5.188   1.632   0.295 -0.8937 -0.5841 -0.5322
 3367TIP3   OH231515   4.172   2.146   2.656  0.6190 -0.5536 -0.2534
 3367TIP3    H131516   4.249   2.191   2.622 -0.5729 -0.2074 -2.6080
 3367TIP3    H231517   4.180   2.153   2.751  1.9197  2.1184 -0.5249
 3368TIP3   OH231518   2.083   1.520  16.328 -0.2385  0.3674 -0.1247
 3368TIP3    H131519   1.989   1.525  16.347 -0.4871 -1.7379 -0.5950
 3368TIP3    H231520   2.098   1.427  16.307  2.0365  0.5795  0.4202
 3369TIP3   OH231521   1.864   1.539   0.654  0.0707 -0.2420  0.2203
 3369TIP3    H131522   1.801   1.603   0.622 -0.9130 -2.2338 -2.0487
 3369TIP3    H231523   1.849   1.535   0.748 -0.5035  2.1279  0.2575
 3370TIP3   OH231524   0.283   2.581   0.453 -0.3756 -0.0072 -0.2786
 3370TIP3    H131525   0.254   2.601   0.364 -0.6844 -1.8739 -0.6186
 3370TIP3    H231526   0.300   2.487   0.452  1.9483  0.3439  0.9876
 3371TIP3   OH231527   1.633   0.386   0.549 -0.2701 -0.0895 -0.4044
 3371TIP3    H131528   1.590   0.468   0.574 -0.3183 -0.1562 -0.2672
 3371TIP3    H231529   1.655   0.345   0.633  2.4476  1.2030 -0.4353
 3372TIP3   OH231530   5.470   5.757   0.683 -0.3068 -0.5809 -0.8113
 3372TIP3    H131531   5.487   5.813   0.607 -0.7472 -2.1886 -2.1177
 3372TIP3    H231532   5.555   5.716   0.702  0.0272  0.5324  0.1744
 3373TIP3   OH231533   5.639   5.903  12.229 -0.2067 -0.2218 -0.2362
 3373TIP3    H131534   5.607   5.875  12.144  0.5073 -2.7053  0.2820
 3373TIP3    H231535   5.718   5.953  12.209 -0.4681 -0.1297 -1.0698
 3374TIP3   OH231536   6.721   2.599  12.733  0.2263  0.2980  0.5025
 3374TIP3    H131537   6.715   2.687  12.696 -0.8551  0.2146  0.4766
 3374TIP3    H231538   6.782   2.608  12.807 -1.4209  1.4950  1.7521
 3375TIP3   OH231539   3.749   2.989   0.179  0.0347  0.1640 -0.7480
 3375TIP3    H131540   3.794   2.983   0.094  0.7442  1.5942 -0.4916
 3375TIP3    H231541   3.812   3.034   0.236 -0.6180 -0.3806  0.4215
 3376TIP3   OH231542   4.979   4.820   4.076  0.3534  0.0061  0.5907
 3376TIP3    H131543   5.053   4.778   4.119  1.6297  0.9543 -0.6502
 3376TIP3    H231544   4.913   4.750   4.069  1.0014 -0.7680  1.9400
 3377TIP3   OH231545   3.959   5.854  15.738  0.7393  0.1759  0.4706
 3377TIP3    H131546   3.895   5.903  15.688  1.2015  0.0035 -0.2921
 3377TIP3    H231547   3.911   5.824  15.816  0.1293  0.7609  0.3233
 3378TIP3   OH231548   0.906   0.134  14.162  0.8351  0.4736 -0.4437
 3378TIP3    H131549   0.985   0.130  14.108  1.4426 -0.9485  0.5204
 3378TIP3    H231550   0.936   0.114  14.250 -1.1451 -4.0339 -0.6662
 3379TIP3   OH231551   1.777   2.891  13.066  0.1601  0.2176  0.5488
 3379TIP3    H131552   1.711   2.958  13.081 -1.9850 -1.7610  0.1673
 3379TIP3    H231553   1.828   2.889  13.147 -0.0482  1.9632  0.7359
 3380TIP3   OH231554   0.407   3.242   5.092 -0.3546  0.0084  0.6534
 3380TIP3    H131555   0.341   3.184   5.053  0.4875  0.2928 -1.2551
 3380TIP3    H231556   0.372   3.330   5.077 -0.0777  0.1182  0.6590
 3381TIP3   OH231557   6.511   0.488   3.250  0.2251 -0.0147  0.3717
 3381TIP3    H131558   6.535   0.515   3.338 -0.6490 -1.0523  0.9398
 3381TIP3    H231559   6.428   0.531   3.233 -0.4841 -1.2252  0.7449
 3382TIP3   OH231560   6.295   6.243   5.427 -0.4093 -0.2690  0.0126
 3382TIP3    H131561   6.382   6.212   5.454 -0.9634 -2.2932 -0.4160
 3382TIP3    H231562   6.261   6.290   5.503  0.7704 -0.0878  0.4345
 3383TIP3   OH231563   5.478   3.260  14.834 -0.1872 -0.3675 -0.9788
 3383TIP3    H131564   5.555   3.203  14.829  0.7500  0.7832  0.0631
 3383TIP3    H231565   5.504   3.340  14.789  0.1209  0.9871  1.5494
 3384TIP3   OH231566   0.510   4.023  17.090  0.6905  0.1360 -0.2562
 3384TIP3    H131567   0.419   4.031  17.118  0.5511 -0.0605 -0.6558
 3384TIP3    H231568   0.543   4.112  17.092  0.0386  0.4202 -1.6391
 3385TIP3   OH231569   6.421   5.907  10.979  0.1647 -0.2396  0.7261
 3385TIP3    H131570   6.500   5.960  10.990  0.2995 -0.2615 -0.0738
 3385TIP3    H231571   6.356   5.968  10.944  0.3610 -0.6174 -0.3291
 3386TIP3   OH231572   4.920   4.107   2.000  0.1220  0.5942 -0.1619
 3386TIP3    H131573   4.833   4.145   1.990 -0.7537 -1.5321 -0.9833
 3386TIP3    H231574   4.920   4.031   1.942  3.0043  1.3377 -1.2139
 3387TIP3   OH231575   5.522   0.943  12.398  0.9523  0.2293  0.4588
 3387TIP3    H131576   5.565   1.021  12.361  1.2111  0.9419  2.2004
 3387TIP3    H231577   5.485   0.973  12.481 -2.2921 -0.5824 -0.6304
 3388TIP3   OH231578   0.745   4.192  12.237  0.1855 -0.2691  0.0041
 3388TIP3    H131579   0.799   4.241  12.298  0.1881 -1.0579  0.6396
 3388TIP3    H231580   0.655   4.217  12.258  0.2883  0.9111 -0.9395
 3389TIP3   OH231581   6.503   5.061  14.875  0.0364 -0.0656  0.0555
 3389TIP3    H131582   6.591   5.064  14.838  0.1210  3.0614  0.3746
 3389TIP3    H231583   6.447   5.033  14.802  1.2272 -1.9766 -0.1716
 3390TIP3   OH231584   4.072   5.944  12.010 -0.0168  0.5246 -0.4233
 3390TIP3    H131585   4.113   6.011  11.956 -0.8221  1.5874  0.2546
 3390TIP3    H231586   4.035   5.992  12.084 -1.3213 -0.5641 -0.3335
 3391TIP3   OH231587   3.487   0.109  13.092  0.7365 -0.2120  0.5480
 3391TIP3    H131588   3.527   0.194  13.073  0.2643  0.6084  3.0490
 3391TIP3    H231589   3.413   0.103  13.032  1.4874  0.5983 -0.4748
 3392TIP3   OH231590   1.678   2.282   6.638  0.1688 -0.6088  0.0722
 3392TIP3    H131591   1.744   2.214   6.636  0.8461  0.0901 -2.8888
 3392TIP3    H231592   1.726   2.363   6.622 -1.0181  0.2728  0.8019
 3393TIP3   OH231593   2.794   2.184  14.762 -0.3113  0.3897  0.2536
 3393TIP3    H131594   2.844   2.104  14.772  1.7285  1.8355  2.0727
 3393TIP3    H231595   2.727   2.179  14.831  0.2751  0.5734  0.8407
 3394TIP3   OH231596   4.282   0.928   5.365  0.0866  0.0194 -0.2865
 3394TIP3    H131597   4.373   0.949   5.388  0.2353 -0.6946 -0.1793
 3394TIP3    H231598   4.260   0.987   5.294  0.6756  0.1324 -0.3756
 3395TIP3   OH231599   2.306   0.261  11.498  0.3775  0.4339 -0.2321
 3395TIP3    H131600   2.287   0.249  11.405 -0.2199  1.0913 -0.1944
 3395TIP3    H231601   2.333   0.174  11.529  0.2631  0.1494 -0.9420
 3396TIP3   OH231602   5.937   0.276  15.466 -0.0060 -0.5637 -0.7201
 3396TIP3    H131603   6.025   0.238  15.476  0.8466  1.0440 -2.0773
 3396TIP3    H231604   5.921   0.276  15.372 -0.2420  1.8448 -0.7113
 3397TIP3   OH231605   5.856   3.165   4.282  0.0143 -0.0717  0.1966
 3397TIP3    H131606   5.902   3.103   4.338  1.7942  0.9976 -0.0539
 3397TIP3    H231607   5.859   3.248   4.330  1.8485  0.9391 -1.5815
 3398TIP3   OH231608   1.392   5.112  12.091  0.0923 -0.5370 -0.4786
 3398TIP3    H131609   1.342   5.159  12.158 -0.4237 -0.3438 -0.9919
 3398TIP3    H231610   1.383   5.167  12.013  2.2553  0.2210 -0.2202
 3399TIP3   OH231611   3.654   2.095   3.627 -0.2096 -0.1821 -0.0095
 3399TIP3    H131612   3.581   2.051   3.584  0.7844 -1.8906 -0.0020
 3399TIP3    H231613   3.678   2.037   3.700  0.4249  0.9085  0.6594
 3400TIP3   OH231614   0.066   5.684  11.497  0.3757 -0.3100 -0.1230
 3400TIP3    H131615   0.145   5.652  11.540  0.4536 -0.0161 -0.0482
 3400TIP3    H231616  -0.005   5.654  11.552  0.5373  1.2343  0.9640
 3401TIP3   OH231617   5.067   3.309  15.085 -0.0527 -0.1452 -0.6244
 3401TIP3    H131618   5.113   3.302  15.001 -1.2619  2.5791 -1.5538
 3401TIP3    H231619   4.991   3.364  15.066  0.1927  1.3326  2.5015
 3402TIP3   OH231620   4.546   3.022  12.059 -0.0947 -0.6742  0.3975
 3402TIP3    H131621   4.586   2.936  12.068  2.6380  0.5797  0.5720
 3402TIP3    H231622   4.609   3.083  12.097 -1.1263  1.6188 -1.4288
 3403TIP3   OH231623   6.521   3.970  12.365 -0.1178 -0.2517 -0.3065
 3403TIP3    H131624   6.429   3.994  12.358 -0.0265  0.1443 -0.1546
 3403TIP3    H231625   6.520   3.876  12.384 -0.5630  0.1252  1.7102
 3404TIP3   OH231626   0.888   3.979  14.244 -0.1227 -0.1321  0.3989
 3404TIP3    H131627   0.976   3.972  14.207 -1.2307 -1.1386 -2.1755
 3404TIP3    H231628   0.865   4.071  14.234  0.0974 -0.1440 -0.2550
 3405TIP3   OH231629   5.515   3.748  14.722  0.5638  0.3439 -0.0764
 3405TIP3    H131630   5.552   3.837  14.725 -0.8045  0.8897  1.0372
 3405TIP3    H231631   5.422   3.760  14.739  0.1579 -1.1971 -1.1808
 3406TIP3   OH231632   4.191   1.058  12.605 -0.2059 -0.2982 -0.0005
 3406TIP3    H131633   4.141   0.978  12.593 -0.5017 -0.1938  0.5349
 3406TIP3    H231634   4.128   1.121  12.641 -0.7665  1.0828 -3.1704
 3407TIP3   OH231635   3.673   5.003  12.934 -0.5687 -0.1992 -0.0437
 3407TIP3    H131636   3.740   4.979  12.870 -0.1053 -0.1199  0.4086
 3407TIP3    H231637   3.694   5.093  12.958 -0.6590 -0.2764  0.3274
 3408TIP3   OH231638   6.553   3.300  10.969 -0.3424 -0.0023 -0.1292
 3408TIP3    H131639   6.595   3.222  10.934 -0.5928  0.5293 -1.6669
 3408TIP3    H231640   6.475   3.312  10.914 -1.0918  0.5070  1.0152
 3409TIP3   OH231641   4.676   4.010  12.420 -0.2524 -0.1805 -0.6604
 3409TIP3    H131642   4.661   4.060  12.339  0.4717 -0.1247 -0.7678
 3409TIP3    H231643   4.729   3.936  12.392 -0.5072 -0.4868 -0.3312
 3410TIP3   OH231644   0.470   1.918  13.996 -0.0383 -0.3677  0.4497
 3410TIP3    H131645   0.379   1.929  13.969 -0.2737 -2.5703  0.2551
 3410TIP3    H231646   0.465   1.892  14.088  0.3832 -0.5462  0.4255
 3411TIP3   OH231647   4.886   0.180   3.689  0.0977  0.3127  0.1816
 3411TIP3    H131648   4.971   0.156   3.726 -1.1326 -0.7748  2.4316
 3411TIP3    H231649   4.859   0.104   3.638 -0.2394 -0.0047  0.8203
 3412TIP3   OH231650   0.028   3.369   3.531  0.2005 -0.0557 -0.1387
 3412TIP3    H131651   0.019   3.278   3.502 -0.1808 -0.0436 -0.0724
 3412TIP3    H231652  -0.043   3.379   3.595  1.3934 -0.2649  1.2376
 3413TIP3   OH231653   1.886   5.834  16.606 -0.2484  0.4870  0.3531
 3413TIP3    H131654   1.818   5.873  16.551  0.1186  1.6148  0.6913
 3413TIP3    H231655   1.948   5.796  16.544  0.0469  1.5554 -0.0138
 3414TIP3   OH231656   5.480   5.036  17.061 -0.7541 -0.1688 -0.2600
 3414TIP3    H131657   5.575   5.034  17.058 -0.6318 -1.0455  2.5580
 3414TIP3    H231658   5.452   5.023  16.971  1.7854 -0.0718 -1.0823
 3415TIP3   OH231659   6.234   4.662   5.383 -0.0047  0.1759  0.3800
 3415TIP3    H131660   6.290   4.589   5.358  0.8569  0.7862  0.4849
 3415TIP3    H231661   6.180   4.628   5.454 -0.9295 -0.9088 -0.8331
 3416TIP3   OH231662   2.606   3.504  11.219  0.2939 -0.0954  0.0343
 3416TIP3    H131663   2.586   3.411  11.227 -1.5147  0.4052  1.4776
 3416TIP3    H231664   2.535   3.541  11.167 -0.0780  0.8472  1.1889
 3417TIP3   OH231665   4.747   5.637  10.992  0.1571  0.4817  0.0498
 3417TIP3    H131666   4.740   5.717  11.044  0.8489 -0.0772  1.0131
 3417TIP3    H231667   4.697   5.656  10.912 -0.5295  1.5091  0.7121
 3418TIP3   OH231668   5.373   5.612   2.705  0.2090 -0.3011 -0.3771
 3418TIP3    H131669   5.467   5.618   2.722  0.7173 -3.4893 -1.6637
 3418TIP3    H231670   5.349   5.523   2.730 -2.8223  0.8858  1.2840
 3419TIP3   OH231671   3.354   1.214  13.513  0.3228  0.0649 -0.4035
 3419TIP3    H131672   3.298   1.271  13.461 -0.6039 -0.3415  0.1385
 3419TIP3    H231673   3.312   1.210  13.599  2.3347  1.5104  0.7092
 3420TIP3   OH231674   4.695   4.791  12.571 -0.0099 -0.3962  0.7510
 3420TIP3    H131675   4.624   4.846  12.537 -1.0843 -2.1390  0.0981
 3420TIP3    H231676   4.677   4.783  12.664  0.4961  0.8386  0.9658
 3421TIP3   OH231677   2.999   0.331  13.265  0.5629 -0.3140 -0.4931
 3421TIP3    H131678   3.036   0.379  13.191 -0.2289  0.1875 -0.5675
 3421TIP3    H231679   2.931   0.276  13.227  0.0892  0.0174 -0.1290
 3422TIP3   OH231680   1.450   5.857  14.006  0.0566 -0.5091 -0.6167
 3422TIP3    H131681   1.500   5.929  13.969  0.2927  0.0487  0.7590
 3422TIP3    H231682   1.391   5.830  13.935  0.8574  0.1752 -1.5602
 3423TIP3   OH231683   1.443   3.248  16.452  0.0477  0.3779 -0.2158
 3423TIP3    H131684   1.533   3.236  16.421 -0.2347 -2.0562 -0.1860
 3423TIP3    H231685   1.408   3.317  16.397  1.9293  1.3271 -0.2482
 3424TIP3   OH231686   5.017   1.673  15.819 -0.2109 -0.0737  0.4754
 3424TIP3    H131687   4.927   1.641  15.814 -0.5216  0.9591 -0.7820
 3424TIP3    H231688   5.069   1.605  15.776 -0.6362  0.2180 -0.5151
 3425TIP3   OH231689   1.772   6.738  14.840 -0.3855 -0.3034 -0.1467
 3425TIP3    H131690   1.815   6.713  14.759  0.1923  1.9843 -0.5679
 3425TIP3    H231691   1.791   6.666  14.901  2.9231  0.0235 -0.7009
 3426TIP3   OH231692   5.452   4.278  11.155 -0.4916  0.0528 -0.7615
 3426TIP3    H131693   5.467   4.351  11.095 -0.4531  0.4793 -0.2293
 3426TIP3    H231694   5.357   4.278  11.170 -0.2575  1.1562  0.7228
 3427TIP3   OH231695   0.906   4.672  16.971 -0.2581 -0.5007 -0.4803
 3427TIP3    H131696   0.810   4.664  16.966 -0.4832  1.0267  0.8988
 3427TIP3    H231697   0.938   4.582  16.975 -1.5721 -1.0564 -2.0830
 3428TIP3   OH231698   4.376   4.555   4.588 -0.4261  0.3499  0.1449
 3428TIP3    H131699   4.450   4.522   4.639 -0.7962  1.4487  1.4078
 3428TIP3    H231700   4.306   4.567   4.652 -2.1643 -1.9764 -1.2566
 3429TIP3   OH231701   6.209   4.050  13.814  0.6444 -0.2683 -0.5468
 3429TIP3    H131702   6.125   4.011  13.841  0.9014 -0.5618 -0.1549
 3429TIP3    H231703   6.261   4.050  13.894  0.7233  0.6986 -0.6017
 3430TIP3   OH231704   2.876   6.262  12.554  0.1482 -0.6615  0.4204
 3430TIP3    H131705   2.787   6.292  12.571  0.2204  0.1781 -0.6402
 3430TIP3    H231706   2.930   6.305  12.621 -0.1765 -0.8053  0.7730
 3431TIP3   OH231707   6.444   2.274   1.733  0.2020 -0.0138  0.0957
 3431TIP3    H131708   6.350   2.258   1.745 -0.1223  1.4933 -0.2999
 3431TIP3    H231709   6.463   2.237   1.647  0.1969 -1.2788  0.6427
 3432TIP3   OH231710   5.337   4.711  13.195 -0.2679  0.3449  0.7428
 3432TIP3    H131711   5.407   4.733  13.257  0.2039  0.2036  0.2696
 3432TIP3    H231712   5.372   4.637  13.145 -0.5636  0.5892  0.1763
 3433TIP3   OH231713   1.877   2.461   0.496 -0.0932  0.3970 -0.8597
 3433TIP3    H131714   1.934   2.466   0.573 -0.7804 -1.9244 -0.1512
 3433TIP3    H231715   1.789   2.477   0.531 -0.6649 -2.6731 -0.7616
 3434TIP3   OH231716   6.117   4.086  15.224 -0.9525  0.0830 -0.3567
 3434TIP3    H131717   6.211   4.068  15.224 -1.0211 -0.5082  1.9547
 3434TIP3    H231718   6.079   4.016  15.172 -0.2747 -0.8008  0.3197
 3435TIP3   OH231719   2.736   5.580   4.144 -0.2896 -0.4242 -0.0975
 3435TIP3    H131720   2.675   5.642   4.183 -1.1320 -0.7818 -0.8109
 3435TIP3    H231721   2.777   5.628   4.072 -0.4158 -0.4723 -0.2017
 3436TIP3   OH231722   1.673   5.934  14.690 -0.5828 -0.4510  0.0992
 3436TIP3    H131723   1.604   5.896  14.745 -0.3909  1.1900  1.5535
 3436TIP3    H231724   1.733   5.862  14.672 -1.4379 -1.3545  0.8433
 3437TIP3   OH231725   0.657   1.652  12.524  0.0152  0.1909 -0.5966
 3437TIP3    H131726   0.657   1.736  12.569  0.7994 -0.0354 -0.1649
 3437TIP3    H231727   0.722   1.662  12.455  1.7485 -0.7892  0.8534
 3438TIP3   OH231728   4.339   4.520   5.740  0.7236 -0.0264 -0.2308
 3438TIP3    H131729   4.345   4.590   5.804  2.6026 -0.6750  0.3238
 3438TIP3    H231730   4.306   4.563   5.661 -1.3854  0.8235  1.0525
 3439TIP3   OH231731   5.115   0.033   1.649  0.3226  0.2022 -0.7259
 3439TIP3    H131732   5.036   0.029   1.703 -0.6868 -2.2076 -2.3012
 3439TIP3    H231733   5.184  -0.005   1.705 -0.0622  0.4709 -0.0600
 3440TIP3   OH231734   2.275   6.123   1.483 -0.5263 -0.0168  0.7691
 3440TIP3    H131735   2.218   6.111   1.559 -0.5362 -0.1567  0.7387
 3440TIP3    H231736   2.248   6.207   1.446 -0.0175  0.4034  1.3537
 3441TIP3   OH231737   6.425   6.656   0.579  0.5350 -0.3302  0.7026
 3441TIP3    H131738   6.341   6.682   0.541 -0.0062 -1.6884  0.9489
 3441TIP3    H231739   6.477   6.737   0.580 -0.9153  0.6150  0.9546
 3442TIP3   OH231740   0.703   5.262   3.710 -0.1127 -0.5714 -0.0967
 3442TIP3    H131741   0.720   5.189   3.651  0.6742  0.5099 -1.2270
 3442TIP3    H231742   0.632   5.311   3.668  1.4296  1.0204 -0.9342
 3443TIP3   OH231743   3.142   3.432   0.655 -0.2906 -0.6078 -0.2536
 3443TIP3    H131744   3.163   3.343   0.681  2.5348  0.2596  0.6128
 3443TIP3    H231745   3.206   3.453   0.586 -1.7282  0.3301 -1.3476
 3444TIP3   OH231746   5.985   0.607  15.199 -0.2219 -0.3321  0.6979
 3444TIP3    H131747   5.964   0.637  15.110 -0.3210 -1.2603  0.4003
 3444TIP3    H231748   6.019   0.685  15.243 -2.0819  0.6293  0.4617
 3445TIP3   OH231749   2.019   4.978   5.203  0.5389 -0.4028 -0.3376
 3445TIP3    H131750   2.100   4.928   5.208  0.5914 -0.3490 -0.6459
 3445TIP3    H231751   1.972   4.940   5.129 -0.4420 -1.5095  0.8183
 3446TIP3   OH231752   3.308   5.852  15.546 -0.5509  0.4546  0.3103
 3446TIP3    H131753   3.231   5.844  15.603  1.3889 -1.0046  2.8067
 3446TIP3    H231754   3.315   5.767  15.503 -0.2372  0.5185  0.2348
 3447TIP3   OH231755   2.636   2.942   0.064 -0.6895  0.1715  0.0322
 3447TIP3    H131756   2.670   3.006   0.002  2.0700  1.5279  2.8259
 3447TIP3    H231757   2.612   2.866   0.010 -0.4685  2.1252 -2.8902
 3448TIP3   OH231758   5.803   6.228   5.491 -0.0891  0.0753  0.4035
 3448TIP3    H131759   5.765   6.142   5.472  2.4218 -1.1772  0.9211
 3448TIP3    H231760   5.834   6.221   5.582  0.2355  1.5124  0.4153
 3449TIP3   OH231761   3.153   4.127   2.194  0.1374 -0.2442 -0.1169
 3449TIP3    H131762   3.209   4.051   2.180  0.3950 -0.2860  1.0398
 3449TIP3    H231763   3.199   4.199   2.152  0.9722 -0.3204  0.6380
 3450TIP3   OH231764   3.053   5.260   5.342  0.3903  0.6142 -0.3269
 3450TIP3    H131765   3.048   5.339   5.396 -2.9818 -0.6717  1.3388
 3450TIP3    H231766   3.095   5.195   5.399  0.3851  0.3292 -0.6472
 3451TIP3   OH231767   3.661   2.651   4.354  0.2598  0.1414  0.0176
 3451TIP3    H131768   3.714   2.730   4.346 -0.0634  0.3498 -0.1098
 3451TIP3    H231769   3.711   2.583   4.309  0.8371  0.1191  0.6754
 3452TIP3   OH231770   0.717   5.835  17.114 -0.3509  0.0821 -0.3806
 3452TIP3    H131771   0.638   5.853  17.064 -0.7117  1.3751  0.6509
 3452TIP3    H231772   0.697   5.864  17.203  1.8231  1.9005 -0.4476
 3453TIP3   OH231773   1.497   1.849   5.255 -0.6402  0.0619  0.6278
 3453TIP3    H131774   1.518   1.942   5.269 -3.2847  0.7784  0.2130
 3453TIP3    H231775   1.506   1.836   5.161 -0.3363 -0.0936  0.6777
 3454TIP3   OH231776   2.392   4.030   3.478 -0.5376 -0.0675 -0.0766
 3454TIP3    H131777   2.353   4.022   3.565  0.4216 -1.9627  0.2088
 3454TIP3    H231778   2.354   3.959   3.427  0.6992 -0.4565 -0.4870
 3455TIP3   OH231779   1.312   0.043  11.134  0.4484  0.1325 -0.0548
 3455TIP3    H131780   1.332   0.125  11.089 -1.6122  0.5362 -0.2926
 3455TIP3    H231781   1.321  -0.025  11.067 -0.8936  0.5397 -0.6695
 3456TIP3   OH231782   4.128   0.677  16.918  0.5712 -0.9413 -0.0815
 3456TIP3    H131783   4.188   0.680  16.992  0.8398 -0.8716 -0.3039
 3456TIP3    H231784   4.126   0.584  16.893  2.2796 -0.6127 -1.4642
 3457TIP3   OH231785   6.053   5.552   1.734 -0.2452 -0.6317  0.2289
 3457TIP3    H131786   5.967   5.546   1.692 -0.5166  1.0071  0.5000
 3457TIP3    H231787   6.112   5.579   1.664 -0.2948 -0.0281  0.4129
 3458TIP3   OH231788   0.598   3.213  16.573 -0.0217 -0.0548  0.6463
 3458TIP3    H131789   0.610   3.305  16.549  0.6147 -0.3451 -0.1918
 3458TIP3    H231790   0.504   3.199  16.571 -0.1260  0.5845  0.8253
 3459TIP3   OH231791   1.941   1.280   3.856  0.3813  0.4336  0.3312
 3459TIP3    H131792   1.890   1.298   3.777 -1.2511 -1.1983  0.9960
 3459TIP3    H231793   1.990   1.361   3.871 -0.4665  1.3129 -1.4719
 3460TIP3   OH231794   4.459   6.647   2.255 -0.4860  0.9337  0.0542
 3460TIP3    H131795   4.381   6.649   2.310 -1.3365  1.7125 -1.1513
 3460TIP3    H231796   4.446   6.572   2.197 -0.2015  0.9053  0.0256
 3461TIP3   OH231797   5.976   0.458  16.875 -0.0194 -0.4240 -0.4547
 3461TIP3    H131798   6.032   0.382  16.890  0.2084 -0.2044 -0.1681
 3461TIP3    H231799   5.916   0.431  16.806 -1.6864 -1.7747  1.4865
 3462TIP3   OH231800   3.557   0.764  16.104  0.3479  0.1772  0.4257
 3462TIP3    H131801   3.478   0.790  16.151 -0.8286 -1.5359 -0.5515
 3462TIP3    H231802   3.581   0.680  16.143 -0.9448 -1.5268 -2.2864
 3463TIP3   OH231803   4.198   5.743  15.580 -0.5708 -0.2295 -0.2263
 3463TIP3    H131804   4.230   5.826  15.614 -0.5582 -0.6649  0.8297
 3463TIP3    H231805   4.159   5.766  15.495  0.9097  0.5788 -0.7149
 3464TIP3   OH231806   2.336   1.427  16.892 -0.1843  0.0819  0.4896
 3464TIP3    H131807   2.329   1.519  16.914  2.2347  0.7137 -1.1165
 3464TIP3    H231808   2.344   1.426  16.796 -0.2559 -1.7897  0.4837
 3465TIP3   OH231809   0.575   3.207   3.921 -0.2307 -0.4672 -0.0077
 3465TIP3    H131810   0.669   3.195   3.908 -0.2529  0.3211 -0.9413
 3465TIP3    H231811   0.541   3.227   3.834 -0.8743  1.7402  0.7157
 3466TIP3   OH231812   4.863   5.038  13.657  0.3471  0.0646  0.2184
 3466TIP3    H131813   4.891   5.071  13.571 -1.5731  0.6920 -0.1862
 3466TIP3    H231814   4.924   5.077  13.719  0.8446  0.7791 -0.7179
 3467TIP3   OH231815   1.441   3.059  11.473  0.1168 -0.2260  0.5869
 3467TIP3    H131816   1.461   2.984  11.528 -1.1182 -0.5286  0.6465
 3467TIP3    H231817   1.406   3.021  11.392 -1.9593  0.2962  1.2061
 3468TIP3   OH231818   3.762   4.073   3.534 -0.1253 -0.5938  0.3022
 3468TIP3    H131819   3.803   3.990   3.559  0.8416 -0.2020  0.0072
 3468TIP3    H231820   3.750   4.066   3.440  1.1086  0.1060  0.0798
 3469TIP3   OH231821   5.121   0.129  16.145 -0.0954  0.3480 -0.1452
 3469TIP3    H131822   5.055   0.165  16.205  1.9569 -0.6911  2.8838
 3469TIP3    H231823   5.175   0.072  16.200  0.2912 -2.8318 -3.5924
 3470TIP3   OH231824   5.118   1.131   2.233 -0.1107  0.7198  0.0357
 3470TIP3    H131825   5.083   1.217   2.254  0.9900  0.7422  1.8842
 3470TIP3    H231826   5.205   1.130   2.272  1.5713  0.2716 -3.5555
 3471TIP3   OH231827   0.268   4.869  16.101 -0.5043 -0.2532  0.4912
 3471TIP3    H131828   0.216   4.948  16.117 -1.1600 -0.6623  0.4012
 3471TIP3    H231829   0.357   4.901  16.085 -0.2188  0.2888  2.9873
 3472TIP3   OH231830   1.416   1.619   0.669  0.5734 -0.3518 -0.0845
 3472TIP3    H131831   1.502   1.581   0.686 -0.0510 -2.4235 -1.4006
 3472TIP3    H231832   1.408   1.618   0.574 -0.8586 -0.0518  0.0268
 3473TIP3   OH231833   2.338   3.645  14.980  0.2388  0.2401 -1.1960
 3473TIP3    H131834   2.346   3.739  14.965  0.6115  0.3691 -0.2444
 3473TIP3    H231835   2.416   3.606  14.941  1.3728  0.6037  0.6834
 3474TIP3   OH231836   3.851   5.368   2.321 -0.4013  0.0637  0.4187
 3474TIP3    H131837   3.883   5.306   2.255  0.2485 -0.5515  1.2934
 3474TIP3    H231838   3.869   5.454   2.284  0.1505 -0.2783 -0.1186
 3475TIP3   OH231839   6.369   4.705  14.243 -0.3981  0.0742  0.0065
 3475TIP3    H131840   6.366   4.691  14.148 -0.6934  0.6145 -0.0683
 3475TIP3    H231841   6.438   4.647  14.274  0.9318  1.2127 -0.7713
 3476TIP3   OH231842   3.815   3.997  12.275  0.2012  0.0122  0.5334
 3476TIP3    H131843   3.761   4.074  12.254  0.7492  0.3006  0.1762
 3476TIP3    H231844   3.778   3.964  12.357 -0.3597  0.3619  0.4272
 3477TIP3   OH231845   5.352   2.478  14.739  0.1066 -0.4111  0.5596
 3477TIP3    H131846   5.262   2.449  14.724  0.1566 -0.1800 -0.1943
 3477TIP3    H231847   5.359   2.484  14.834 -0.7621 -0.1610  0.6179
 3478TIP3   OH231848   2.067   1.888   5.031 -0.3085 -0.1080 -0.7408
 3478TIP3    H131849   2.151   1.892   4.986  0.0469 -0.3239 -0.1046
 3478TIP3    H231850   2.084   1.837   5.110 -0.7945  0.7607 -0.0689
 3479TIP3   OH231851   1.886   0.528  14.755 -0.0673 -0.0484 -0.0311
 3479TIP3    H131852   1.800   0.569  14.762  0.0925  0.3802 -0.6199
 3479TIP3    H231853   1.885   0.460  14.823 -0.8663 -0.0466 -0.0354
 3480TIP3   OH231854   6.322   1.880   1.187 -0.6406  0.3659  0.4211
 3480TIP3    H131855   6.378   1.954   1.164 -1.5950  0.9740  0.0149
 3480TIP3    H231856   6.370   1.803   1.158 -0.5447  0.9568 -1.0238
 3481TIP3   OH231857   4.355   1.901  12.746  0.2486  0.1649  0.2948
 3481TIP3    H131858   4.385   1.968  12.808  0.5382  3.1398 -2.8361
 3481TIP3    H231859   4.261   1.915  12.740  0.6209  2.1887 -2.2568
 3482TIP3   OH231860   0.536   5.591  11.496 -0.2104  0.4006 -0.2170
 3482TIP3    H131861   0.451   5.556  11.467 -0.9347  1.2674  0.8140
 3482TIP3    H231862   0.545   5.673  11.448 -0.2083  0.5816  0.0966
 3483TIP3   OH231863   6.648   0.283  15.727  0.0757  0.0563  0.1779
 3483TIP3    H131864   6.722   0.225  15.707 -1.0397 -1.9472  1.6004
 3483TIP3    H231865   6.574   0.242  15.683 -0.4348  1.3589 -0.1917
 3484TIP3   OH231866   0.505   4.783   3.861 -0.1184  0.2112  0.2431
 3484TIP3    H131867   0.598   4.800   3.877 -0.1319  0.1026  0.4400
 3484TIP3    H231868   0.459   4.854   3.904 -0.1327  0.1817  0.2763
 3485TIP3   OH231869   6.252   3.377  13.439  0.0245 -0.3889 -0.6125
 3485TIP3    H131870   6.261   3.415  13.526 -0.0089 -0.6457 -0.4940
 3485TIP3    H231871   6.337   3.391  13.397  0.0917 -0.4022 -0.4823
 3486TIP3   OH231872   6.162   5.634   5.138  0.0389  0.1773  0.1619
 3486TIP3    H131873   6.239   5.616   5.192  0.4603  1.2367 -0.0625
 3486TIP3    H231874   6.198   5.647   5.049 -0.6623 -1.7134 -0.4060
 3487TIP3   OH231875   2.613   5.596   0.234 -0.0354  0.6021  0.0364
 3487TIP3    H131876   2.534   5.592   0.180 -0.1566  0.6802  0.2077
 3487TIP3    H231877   2.677   5.645   0.181 -0.0857  0.4933 -0.1222
 3488TIP3   OH231878   6.383   0.386   0.943 -0.3393 -0.0797  0.3028
 3488TIP3    H131879   6.291   0.411   0.949 -0.8774 -1.5251 -1.4357
 3488TIP3    H231880   6.431   0.469   0.945 -1.8237  0.8347 -0.9640
 3489TIP3   OH231881   3.606   5.818  14.744  0.0584 -0.2161  0.4677
 3489TIP3    H131882   3.689   5.778  14.766  0.2897  0.5291  0.9689
 3489TIP3    H231883   3.544   5.783  14.809 -0.3382 -1.8724 -0.7745
 3490TIP3   OH231884   2.540   6.302   1.810 -0.2065 -0.7920  0.1031
 3490TIP3    H131885   2.604   6.239   1.777 -0.8806 -0.9878 -0.8476
 3490TIP3    H231886   2.546   6.376   1.750  0.2456 -0.1459  0.9399
 3491TIP3   OH231887   2.819   4.847   3.615 -0.4664 -0.1389 -0.0754
 3491TIP3    H131888   2.807   4.938   3.589 -1.6715 -0.8882 -2.3024
 3491TIP3    H231889   2.794   4.844   3.707 -0.0293  1.8363  0.1239
 3492TIP3   OH231890   3.132   0.303  13.774 -0.0049  0.0685 -0.2809
 3492TIP3    H131891   3.198   0.253  13.725 -0.6258 -0.5176 -0.5220
 3492TIP3    H231892   3.092   0.360  13.709  1.8695  2.1415  0.3137
 3493TIP3   OH231893   0.932   0.466  14.175 -0.4231 -0.4719 -0.6574
 3493TIP3    H131894   0.975   0.406  14.113 -2.1473 -1.1898 -1.1932
 3493TIP3    H231895   0.881   0.525  14.120  0.7614  1.1190 -0.0910
 3494TIP3   OH231896   2.912   0.505   0.036  0.1319  0.5926 -0.1288
 3494TIP3    H131897   2.836   0.506   0.094  1.3592  3.7085  1.5554
 3494TIP3    H231898   2.966   0.432   0.068 -0.2911  0.8600  1.2446
 3495TIP3   OH231899   3.629   3.382  11.901  0.4959  0.5288 -0.0213
 3495TIP3    H131900   3.661   3.445  11.837  0.4553  0.9139  0.3297
 3495TIP3    H231901   3.682   3.399  11.979  1.0380 -0.4191 -0.1768
 3496TIP3   OH231902   6.648   2.939  17.116 -0.3373  0.4557 -0.6046
 3496TIP3    H131903   6.605   2.962  17.199  1.0236 -3.0979  1.2199
 3496TIP3    H231904   6.584   2.884  17.071  0.2866 -0.6169 -0.2079
 3497TIP3   OH231905   4.486   0.435  16.844 -0.0891  0.2868 -0.3425
 3497TIP3    H131906   4.444   0.504  16.793  1.1282  1.6270  0.4206
 3497TIP3    H231907   4.554   0.480  16.894  0.6779 -1.4557  0.2377
 3498TIP3   OH231908   0.458   3.512   2.093 -0.7314 -0.2864 -0.0587
 3498TIP3    H131909   0.458   3.484   2.002  1.6373  1.6986 -0.7254
 3498TIP3    H231910   0.549   3.536   2.111 -1.3525  0.3030  2.5210
 3499TIP3   OH231911   1.860   4.422   6.540  0.6830  0.1549 -0.5653
 3499TIP3    H131912   1.882   4.330   6.550  0.4460  0.2903  1.4023
 3499TIP3    H231913   1.904   4.449   6.459 -0.2166 -1.9540 -1.8049
 3500TIP3   OH231914   2.288   4.534   2.667 -0.2857  0.1434 -0.0942
 3500TIP3    H131915   2.286   4.447   2.626 -1.1657 -0.0738  0.3913
 3500TIP3    H231916   2.331   4.519   2.752 -0.1083  0.2526 -0.1647
 3501TIP3   OH231917   4.427   2.863   0.547 -0.0265  0.8291  0.1215
 3501TIP3    H131918   4.379   2.904   0.475 -1.8931  0.9906  1.4151
 3501TIP3    H231919   4.438   2.772   0.519 -1.5126  0.6685 -0.0239
 3502TIP3   OH231920   5.790   0.067   3.648 -0.2466 -0.4181  0.6887
 3502TIP3    H131921   5.763   0.032   3.563  3.1766  2.3012 -1.6959
 3502TIP3    H231922   5.778   0.162   3.639  1.4341  0.0297  2.7631
 3503TIP3   OH231923   0.778   0.779  12.635  0.2368  0.3347  0.2630
 3503TIP3    H131924   0.848   0.740  12.688 -0.1511 -0.5941  0.1062
 3503TIP3    H231925   0.698   0.735  12.665 -0.4868  2.4413  1.4662
 3504TIP3   OH231926   1.047   2.273   5.517 -0.2276  0.5965 -0.3685
 3504TIP3    H131927   1.103   2.259   5.593  1.5150  0.4685 -1.6460
 3504TIP3    H231928   1.038   2.368   5.510 -0.5645  0.6012  0.1111
 3505TIP3   OH231929   2.847   4.497   1.406  0.6212 -0.1130  0.0648
 3505TIP3    H131930   2.795   4.551   1.347  0.3968  0.9420  1.2006
 3505TIP3    H231931   2.862   4.415   1.358  1.7736  1.2938 -2.0719
 3506TIP3   OH231932   3.829   0.037   2.194 -0.4846  0.1896  0.0066
 3506TIP3    H131933   3.839  -0.012   2.112 -1.6941  0.0500 -0.0640
 3506TIP3    H231934   3.918   0.042   2.230  0.2281  1.1378 -1.8120
 3507TIP3   OH231935   6.478   6.537   4.900  0.5773 -0.2449  0.1170
 3507TIP3    H131936   6.476   6.601   4.971  0.4278 -1.5494  1.3058
 3507TIP3    H231937   6.525   6.462   4.936  1.0549 -0.6859 -1.3695
 3508TIP3   OH231938   0.178   1.512   6.557 -0.2641 -0.5957 -0.4585
 3508TIP3    H131939   0.225   1.495   6.639 -1.1727  0.1885  0.2364
 3508TIP3    H231940   0.096   1.553   6.585 -0.4548 -0.0674 -1.7806
 3509TIP3   OH231941   4.713   5.711  10.192  0.2282 -0.9908  0.1519
 3509TIP3    H131942   4.646   5.655  10.154  1.3642 -2.6845  0.5904
 3509TIP3    H231943   4.795   5.664  10.177  1.3322  1.0859 -0.4447
 3510TIP3   OH231944   0.228   1.536  16.474  0.3902 -0.4017 -0.1340
 3510TIP3    H131945   0.205   1.519  16.383 -1.3614  0.6375  0.0812
 3510TIP3    H231946   0.299   1.475  16.493  0.8739 -0.5230 -2.2332
 3511TIP3   OH231947   3.575   6.421  10.370 -0.2990  0.5555 -0.3022
 3511TIP3    H131948   3.649   6.455  10.421 -0.1728  1.4272 -1.0679
 3511TIP3    H231949   3.615   6.358  10.310 -0.0364  1.6994 -1.3507
 3512TIP3   OH231950   0.176   2.636  12.958 -0.7601 -1.3311 -0.1098
 3512TIP3    H131951   0.147   2.726  12.942  0.6465 -0.5561  1.5059
 3512TIP3    H231952   0.146   2.617  13.047  0.0221 -2.0275  0.0073
 3513TIP3   OH231953   5.462   5.091   1.877 -0.4350  0.1491  0.5820
 3513TIP3    H131954   5.395   5.159   1.880  0.3982  1.1066 -1.9638
 3513TIP3    H231955   5.421   5.018   1.831  0.1363  0.6081 -0.6720
 3514TIP3   OH231956   6.187   1.301  12.104  0.2694  0.0871  0.5388
 3514TIP3    H131957   6.168   1.331  12.192  1.2478  3.1784 -0.2483
 3514TIP3    H231958   6.149   1.368  12.047  1.7984 -0.5651 -1.3040
 3515TIP3   OH231959   3.181   4.914   2.682  0.2171  0.1161 -0.0264
 3515TIP3    H131960   3.096   4.940   2.648  0.8100  0.0507 -1.5996
 3515TIP3    H231961   3.182   4.818   2.673  1.1898  0.2697 -1.8319
 3516TIP3   OH231962   1.793   0.499  12.179 -0.1260  0.6349  0.4466
 3516TIP3    H131963   1.757   0.523  12.093 -0.2616  1.4332  0.7222
 3516TIP3    H231964   1.861   0.436  12.160 -1.1153 -0.2731 -0.1520
 3517TIP3   OH231965   5.708   5.828  10.950 -0.0125  0.0299  0.4789
 3517TIP3    H131966   5.745   5.785  10.873 -1.2552 -1.7319  0.8383
 3517TIP3    H231967   5.657   5.901  10.915 -0.8996 -1.0001 -0.4259
 3518TIP3   OH231968   0.914   5.165  10.673  0.0976  0.3778  0.0579
 3518TIP3    H131969   0.995   5.196  10.715  0.6123  0.6308 -1.1009
 3518TIP3    H231970   0.855   5.240  10.676  0.0901  0.3578  0.4288
 3519TIP3   OH231971   5.760   4.560   4.651 -0.0282  0.3766 -0.2301
 3519TIP3    H131972   5.831   4.515   4.605  0.0704  0.1373  0.1512
 3519TIP3    H231973   5.682   4.507   4.633 -0.0328  0.4114 -0.3131
 3520TIP3   OH231974   2.333   2.141   3.287 -0.2609  0.1727  0.3004
 3520TIP3    H131975   2.382   2.202   3.343 -0.8991 -0.0561  1.1389
 3520TIP3    H231976   2.356   2.166   3.198 -0.7145  1.8366  0.6217
 3521TIP3   OH231977   0.717   4.130  11.595  0.0952 -0.8123 -0.1503
 3521TIP3    H131978   0.643   4.127  11.535  1.3511  0.1890 -1.7714
 3521TIP3    H231979   0.749   4.220  11.590  0.8409 -0.9769  1.2772
 3522TIP3   OH231980   4.616   5.247   0.809  0.3424 -0.4023 -0.0048
 3522TIP3    H131981   4.551   5.208   0.867  0.0889  0.1697  0.1015
 3522TIP3    H231982   4.579   5.332   0.785  0.4167 -0.6553 -1.0523
 3523TIP3   OH231983   1.189   5.602  11.945 -0.7010 -0.1146  0.0651
 3523TIP3    H131984   1.114   5.634  11.894 -0.2319  1.5475  0.3922
 3523TIP3    H231985   1.204   5.514  11.912 -2.0698 -0.0293 -0.8322
 3524TIP3   OH231986   2.914   0.309  12.053 -0.6702 -0.4105  0.3087
 3524TIP3    H131987   2.824   0.339  12.040 -0.7403 -0.3178  0.9530
 3524TIP3    H231988   2.959   0.329  11.971 -1.1955 -0.2946  0.0509
 3525TIP3   OH231989   2.604   3.833   0.173  0.2149 -0.1716  0.4113
 3525TIP3    H131990   2.678   3.821   0.232 -0.0676  0.3669  0.8812
 3525TIP3    H231991   2.599   3.751   0.123  0.5430 -0.5686  1.0302
 3526TIP3   OH231992   5.769   0.089  14.166 -0.1821  0.3800 -0.2183
 3526TIP3    H131993   5.838   0.121  14.224  0.4407  0.0074 -0.7462
 3526TIP3    H231994   5.757  -0.003  14.191 -0.1067  0.2946 -0.4900
 3527TIP3   OH231995   5.684   2.053   5.854  0.0659 -0.1620 -0.0184
 3527TIP3    H131996   5.664   1.996   5.928 -0.9702  0.0896 -0.0910
 3527TIP3    H231997   5.652   2.139   5.881 -0.5496 -0.1197 -0.8521
 3528TIP3   OH231998   3.172   3.101   4.502  0.1202  0.7030 -0.0938
 3528TIP3    H131999   3.139   3.133   4.586 -0.4537 -0.2382  0.0468
 3528TIP3    H232000   3.173   3.178   4.446  1.2719  1.5030  1.0033
 3529TIP3   OH232001   5.505   6.106  14.401  0.2687  0.0594  0.3165
 3529TIP3    H132002   5.470   6.050  14.470 -1.0276 -1.2892 -1.3723
 3529TIP3    H232003   5.430   6.156  14.370  0.3413 -0.9548 -1.5823
 3530TIP3   OH232004   1.396   0.449   3.050  0.4742  0.3657  0.1600
 3530TIP3    H132005   1.491   0.447   3.058  0.5460  3.5706  0.8890
 3530TIP3    H232006   1.365   0.392   3.120  1.8627 -0.9346 -0.2657
 3531TIP3   OH232007   0.378   4.633   0.838 -0.0202 -0.8483 -0.1502
 3531TIP3    H132008   0.398   4.599   0.751 -0.4606  1.1310 -1.0564
 3531TIP3    H232009   0.460   4.673   0.867 -0.0688 -0.8801  0.0300
 3532TIP3   OH232010   6.323   0.500   5.262 -0.1323  0.0185  0.3016
 3532TIP3    H132011   6.409   0.511   5.303 -0.1095  0.7068  0.0736
 3532TIP3    H232012   6.324   0.411   5.226  0.3575 -0.0914  0.5880
 3533TIP3   OH232013   5.657   4.247  12.187 -0.1145 -0.2229 -0.1050
 3533TIP3    H132014   5.624   4.272  12.274 -0.0144 -0.2343 -0.0640
 3533TIP3    H232015   5.604   4.172  12.162 -0.5827  0.1825 -0.3360
 3534TIP3   OH232016   3.457   6.669   5.899  0.0382  0.1633 -0.5628
 3534TIP3    H132017   3.509   6.730   5.847  0.3090 -1.6668 -2.4892
 3534TIP3    H232018   3.420   6.609   5.835 -3.5325  0.7200  0.8765
 3535TIP3   OH232019   2.063   6.022  17.093 -0.0875 -0.6741 -0.0908
 3535TIP3    H132020   2.042   5.972  17.171 -0.3162 -1.7796 -0.8505
 3535TIP3    H232021   2.016   5.978  17.022  0.3977  0.0941 -0.9035
 3536TIP3   OH232022   4.727   3.915  16.115  0.2842  0.0987 -0.0116
 3536TIP3    H132023   4.785   3.875  16.180 -0.9536 -0.4489  0.7765
 3536TIP3    H232024   4.651   3.945  16.166  0.4648  2.0218 -0.8264
 3537TIP3   OH232025   0.379   5.790  15.047 -0.3612  0.5590 -0.8333
 3537TIP3    H132026   0.459   5.754  15.007  0.0824 -0.1153  0.6207
 3537TIP3    H232027   0.337   5.839  14.976 -0.3469 -1.7970 -2.5523
 3538TIP3   OH232028   1.392   6.135  14.788  0.0838 -0.1550  0.5123
 3538TIP3    H132029   1.422   6.149  14.698 -2.1505  0.1428 -0.2375
 3538TIP3    H232030   1.407   6.041  14.803  2.2845  0.1867  0.5553
 3539TIP3   OH232031   3.010   2.057   0.743 -0.6035 -0.3002 -0.0477
 3539TIP3    H132032   2.946   2.007   0.793 -0.6668  0.8026  0.9833
 3539TIP3    H232033   3.078   2.080   0.806 -0.5078  0.7946 -0.5290
 3540TIP3   OH232034   1.631   0.094  12.008 -0.3777 -0.0520 -0.0344
 3540TIP3    H132035   1.547   0.135  12.026 -0.5098  0.2618 -1.3160
 3540TIP3    H232036   1.695   0.147  12.056 -1.1047 -1.4604  2.5564
 3541TIP3   OH232037   2.771   2.070  13.144 -0.9603  0.1649 -0.3607
 3541TIP3    H132038   2.832   2.009  13.105 -1.1160 -1.4594  1.8470
 3541TIP3    H232039   2.807   2.089  13.231 -2.5859  0.6547  0.2430
 3542TIP3   OH232040   2.966   0.082  11.076  0.6636 -0.3288 -0.3416
 3542TIP3    H132041   3.030   0.121  11.017  0.2384  1.2429  0.2195
 3542TIP3    H232042   3.017   0.058  11.154  0.5046  1.4139  0.3247
 3543TIP3   OH232043   2.589   2.503  15.289 -0.0854  0.1889  0.0889
 3543TIP3    H132044   2.673   2.547  15.277 -0.0367 -0.1569 -0.8708
 3543TIP3    H232045   2.585   2.485  15.383  1.1711 -0.3001  0.0624
 3544TIP3   OH232046   1.919   0.945   4.629  0.2709 -0.0843  0.1146
 3544TIP3    H132047   1.967   1.026   4.615 -0.4508  0.3277  0.0230
 3544TIP3    H232048   1.907   0.908   4.541  0.4952 -0.2281  0.1449
 3545TIP3   OH232049   1.419   4.203   3.101 -0.8497  0.1778 -0.4539
 3545TIP3    H132050   1.435   4.161   3.186  0.6498  0.3048 -0.6570
 3545TIP3    H232051   1.426   4.296   3.119 -2.0843  0.2722 -0.4210
 3546TIP3   OH232052   1.174   0.235  12.903  0.1730  0.4780 -0.0678
 3546TIP3    H132053   1.110   0.295  12.865  0.5134  0.1080 -1.2428
 3546TIP3    H232054   1.122   0.179  12.961 -0.8647 -0.8318 -2.1832
 3547TIP3   OH232055   0.086   6.209   3.030 -0.0023 -0.3491 -0.7177
 3547TIP3    H132056   0.026   6.205   3.105  0.6136 -0.2215 -0.2093
 3547TIP3    H232057   0.122   6.120   3.025 -0.1751 -0.4042 -0.9746
 3548TIP3   OH232058   4.076   5.301   3.064  0.4528 -0.2018  0.5564
 3548TIP3    H132059   3.989   5.262   3.050  0.7720 -0.7972  0.2163
 3548TIP3    H232060   4.110   5.316   2.975  1.8100 -2.4584  0.6732
 3549TIP3   OH232061   0.509   3.392   5.786 -0.0898 -0.0266  0.0214
 3549TIP3    H132062   0.525   3.465   5.845 -1.4402  0.1745  0.1617
 3549TIP3    H232063   0.514   3.314   5.842  0.5915  0.0040  0.0119
 3550TIP3   OH232064   2.689   3.890   0.841 -0.3146 -0.7257  0.1618
 3550TIP3    H132065   2.749   3.956   0.805 -0.7026 -0.1935  0.4724
 3550TIP3    H232066   2.689   3.820   0.776  0.2360 -0.4941 -0.0948
 3551TIP3   OH232067   1.399   5.289  11.488 -0.7139 -0.2422  0.2935
 3551TIP3    H132068   1.447   5.215  11.525 -0.4900  0.5421  1.6166
 3551TIP3    H232069   1.412   5.360  11.552 -1.9347  0.5723 -0.3451
 3552TIP3   OH232070   0.459   2.308  10.415 -0.9440 -0.2968 -0.0871
 3552TIP3    H132071   0.487   2.395  10.444 -1.3116 -0.5703  1.1464
 3552TIP3    H232072   0.515   2.288  10.340  0.3257  0.2921  0.6771
 3553TIP3   OH232073   5.279   4.899  13.687 -0.4763 -0.5018 -0.2108
 3553TIP3    H132074   5.309   4.976  13.640 -1.1393  0.2613  0.5853
 3553TIP3    H232075   5.301   4.825  13.630  1.4531  0.1519 -0.3427
 3554TIP3   OH232076   5.786   4.173  14.726  0.2927 -0.6479 -0.3985
 3554TIP3    H132077   5.882   4.173  14.724  0.3228 -1.3500  0.7256
 3554TIP3    H232078   5.764   4.132  14.809 -0.9908 -0.3382 -0.5808
 3555TIP3   OH232079   4.081   5.002  11.941 -0.0881  0.5034  0.1890
 3555TIP3    H132080   4.110   5.008  12.032 -2.5767 -0.1844  1.0792
 3555TIP3    H232081   4.076   5.092  11.911  2.9761  0.6411 -0.0453
 3556TIP3   OH232082   2.292   5.455  15.387  0.1025  0.0396 -0.2765
 3556TIP3    H132083   2.302   5.408  15.304  0.1657  0.3711 -0.4542
 3556TIP3    H232084   2.210   5.420  15.423 -0.7146  0.9865 -1.1893
 3557TIP3   OH232085   4.631   6.641   2.823  0.3042  0.0094  0.5464
 3557TIP3    H132086   4.597   6.552   2.823  0.7551 -0.2053  3.0561
 3557TIP3    H232087   4.612   6.675   2.736 -1.6745 -1.8562  0.2339
 3558TIP3   OH232088   5.867   5.093  14.866 -0.4052  0.6405 -0.3460
 3558TIP3    H132089   5.905   5.149  14.934  0.4911 -0.9852  0.4958
 3558TIP3    H232090   5.931   5.094  14.795  0.2389 -0.3873  0.2140
 3559TIP3   OH232091   3.721   5.440   4.856 -0.0191 -0.0469 -0.3388
 3559TIP3    H132092   3.707   5.359   4.807 -1.5014 -0.5367  0.8160
 3559TIP3    H232093   3.772   5.496   4.798 -1.1124 -0.8766 -2.1301
 3560TIP3   OH232094   0.594   6.651   1.939  0.1775  0.3213 -0.1278
 3560TIP3    H132095   0.583   6.744   1.962 -0.4283 -0.1884  1.7898
 3560TIP3    H232096   0.566   6.645   1.848 -1.0401  1.8084  0.1232
 3561TIP3   OH232097   3.848   6.175  13.769 -0.0988 -0.1379 -0.0696
 3561TIP3    H132098   3.876   6.183  13.678  1.0619 -0.8222  0.2170
 3561TIP3    H232099   3.807   6.089  13.775 -0.2848 -0.0444  0.0286
 3562TIP3   OH232100   0.106   0.732  12.714  0.0089  0.6434  0.1501
 3562TIP3    H132101   0.161   0.809  12.730  1.4592 -0.7414  2.1076
 3562TIP3    H232102   0.150   0.661  12.760 -3.6367 -0.4455  2.2148
 3563TIP3   OH232103   1.394   0.405  11.228 -0.3028 -0.1554  0.0828
 3563TIP3    H132104   1.427   0.334  11.174  0.0855 -0.6522  0.9560
 3563TIP3    H232105   1.354   0.467  11.166 -0.1089 -0.8404 -0.7281
 3564TIP3   OH232106   3.554   0.531   5.195 -0.0845 -0.2172  0.1379
 3564TIP3    H132107   3.634   0.583   5.185 -0.4760  0.1804 -1.1239
 3564TIP3    H232108   3.484   0.597   5.197 -0.4563 -0.6155  0.1914
 3565TIP3   OH232109   2.255   5.931   5.423 -0.8560 -0.4234  0.0809
 3565TIP3    H132110   2.249   5.838   5.400 -0.7567 -0.1315 -1.1438
 3565TIP3    H232111   2.166   5.953   5.452 -1.4894 -0.3407 -1.8279
 3566TIP3   OH232112   4.211   5.520   0.444 -0.1033 -0.3266  0.2333
 3566TIP3    H132113   4.148   5.562   0.503 -1.3721 -1.2511 -0.4347
 3566TIP3    H232114   4.223   5.582   0.372 -2.6611 -1.4082 -1.2083
 3567TIP3   OH232115   4.409   0.287  12.678  0.1476 -0.3420  0.1554
 3567TIP3    H132116   4.375   0.338  12.752  1.2121  2.5437 -1.2405
 3567TIP3    H232117   4.459   0.216  12.719  0.0979  0.7559  2.2326
 3568TIP3   OH232118   4.471   5.710   5.525 -0.3377 -0.4674  0.5133
 3568TIP3    H132119   4.443   5.663   5.446  0.9516 -0.1697 -0.1351
 3568TIP3    H232120   4.390   5.747   5.560 -1.1152 -1.6797  0.0590
 3569TIP3   OH232121   4.532   5.119   5.217 -1.0259 -0.1253 -0.6429
 3569TIP3    H132122   4.555   5.044   5.272 -0.8774  0.8754  0.6649
 3569TIP3    H232123   4.448   5.149   5.251 -1.4656 -0.1771 -1.6687
 3570TIP3   OH232124   4.620   6.203  13.420 -0.0968 -0.5553 -0.4753
 3570TIP3    H132125   4.550   6.160  13.468 -0.8312  1.7569  0.5851
 3570TIP3    H232126   4.696   6.145  13.432 -1.1671 -1.7940  0.4860
 3571TIP3   OH232127   4.986   3.852  11.612  0.0147 -0.2114 -0.7217
 3571TIP3    H132128   5.080   3.843  11.598  0.2226  0.1848  0.3391
 3571TIP3    H232129   4.966   3.942  11.589  0.4991  0.6801  2.1106
 3572TIP3   OH232130   0.739   6.083   3.789 -0.1285 -0.1559  0.1528
 3572TIP3    H132131   0.821   6.083   3.739  0.1628  1.0098  0.6024
 3572TIP3    H232132   0.766   6.067   3.880 -0.3467  0.6515  0.3662
 3573TIP3   OH232133   4.114   2.567   2.889  0.3181 -0.0404  0.0323
 3573TIP3    H132134   4.190   2.513   2.909  1.2397  1.1630 -0.1232
 3573TIP3    H232135   4.145   2.627   2.821 -0.5566  0.9193  0.4707
 3574TIP3   OH232136   4.373   1.921  13.593 -0.4279 -0.5227 -0.0908
 3574TIP3    H132137   4.401   1.985  13.527 -1.6636  0.3481  0.2024
 3574TIP3    H232138   4.455   1.883  13.626  0.2943  0.4303 -0.7525
 3575TIP3   OH232139   0.237   6.670  10.911 -0.2967  0.1973  0.2974
 3575TIP3    H132140   0.272   6.581  10.901 -1.2778  0.0234 -1.7935
 3575TIP3    H232141   0.290   6.724  10.854  0.0615  0.9071  1.2949
 3576TIP3   OH232142   3.879   5.912  11.788  1.0976  0.2025  0.0230
 3576TIP3    H132143   3.917   5.928  11.875  1.4713  0.4500 -0.1860
 3576TIP3    H232144   3.912   5.826  11.763  2.3774  0.8847 -0.6232
 3577TIP3   OH232145   6.344   4.697   2.339 -0.2425  0.0314  0.1734
 3577TIP3    H132146   6.384   4.626   2.388 -1.0944 -0.1330  0.6324
 3577TIP3    H232147   6.413   4.726   2.279  0.2947 -0.7902  0.3847
 3578TIP3   OH232148   3.034   6.440   2.855 -0.1848 -0.3893  0.2256
 3578TIP3    H132149   3.093   6.364   2.859 -0.2856 -0.4440  0.6961
 3578TIP3    H232150   2.953   6.410   2.897  0.4675  0.5997  2.2686
 3579TIP3   OH232151   1.381   4.834   5.740  0.3675  0.0228  0.1093
 3579TIP3    H132152   1.405   4.926   5.754 -0.2031 -0.2391  3.1873
 3579TIP3    H232153   1.399   4.818   5.648 -1.4219  3.7841 -0.9813
 3580TIP3   OH232154   2.495   1.087  16.804  0.0521  0.1538 -0.1854
 3580TIP3    H132155   2.512   1.109  16.712 -0.9652  0.6848 -0.2506
 3580TIP3    H232156   2.542   1.154  16.853  0.1074  0.2188 -0.3254
 3581TIP3   OH232157   5.322   4.029   3.104 -0.2701 -0.2857 -0.0357
 3581TIP3    H132158   5.319   3.954   3.163 -1.1186 -2.3653 -2.6165
 3581TIP3    H232159   5.410   4.065   3.115 -0.9561  0.5028  3.7243
 3582TIP3   OH232160   2.419   2.397  16.442 -0.1477 -0.2809 -0.0180
 3582TIP3    H132161   2.460   2.374  16.359 -0.3994 -1.1355  0.0974
 3582TIP3    H232162   2.326   2.408  16.421 -0.3974 -1.5979  0.3600
 3583TIP3   OH232163   5.589   6.390   5.404 -0.5970 -1.0057 -0.4255
 3583TIP3    H132164   5.645   6.318   5.431 -0.3609 -0.5416  0.3474
 3583TIP3    H232165   5.578   6.442   5.483 -0.4442  0.0188 -1.0664
 3584TIP3   OH232166   5.820   0.640   3.906 -0.1417  0.4078 -0.2020
 3584TIP3    H132167   5.860   0.656   3.992  0.5845 -0.5967 -0.3321
 3584TIP3    H232168   5.726   0.638   3.923  0.1022 -2.6144  1.1000
 3585TIP3   OH232169   5.230   5.279   0.966 -0.9764 -0.2561  0.2007
 3585TIP3    H132170   5.212   5.279   0.872 -1.7651  0.1097  0.3407
 3585TIP3    H232171   5.183   5.356   0.999  2.7399  2.0780  0.2775
 3586TIP3   OH232172   3.510   5.662  13.080 -0.7164 -0.0295  0.2481
 3586TIP3    H132173   3.465   5.597  13.136  1.9227 -1.5887  0.6254
 3586TIP3    H232174   3.505   5.743  13.130 -2.1779 -0.4106  0.7633
 3587TIP3   OH232175   3.825   2.206   1.763 -0.5132 -0.3461 -0.1439
 3587TIP3    H132176   3.829   2.111   1.754  1.7099 -0.4704  1.5962
 3587TIP3    H232177   3.909   2.237   1.730 -0.2557  0.7707  1.4600
 3588TIP3   OH232178   3.305   0.086  15.611 -0.1664  0.1695 -0.1847
 3588TIP3    H132179   3.401   0.093  15.614 -0.2836  1.5592  1.7812
 3588TIP3    H232180   3.276   0.175  15.589 -1.0047 -0.4786 -1.8117
 3589TIP3   OH232181   3.386   2.691   5.730  0.3563  0.6557 -0.0363
 3589TIP3    H132182   3.464   2.745   5.714  1.3869 -0.9588 -0.6222
 3589TIP3    H232183   3.318   2.729   5.675  0.2827  3.0217  1.6124
 3590TIP3   OH232184   2.909   4.421   2.991  0.2843 -0.3301  0.3161
 3590TIP3    H132185   2.875   4.370   2.917  1.6183 -1.8981  0.7575
 3590TIP3    H232186   2.949   4.498   2.951 -1.2268  0.1122 -0.3977
 3591TIP3   OH232187   3.797   1.245   2.049 -0.6910  0.3521 -0.0491
 3591TIP3    H132188   3.849   1.319   2.081 -0.3961  1.2357 -2.4770
 3591TIP3    H232189   3.861   1.175   2.038 -0.7546  0.1135  1.0177
 3592TIP3   OH232190   0.483   5.029  15.890 -0.0398  0.5935 -0.4011
 3592TIP3    H132191   0.536   4.979  15.952  2.6204  1.1677 -2.1519
 3592TIP3    H232192   0.448   4.963  15.830 -2.2201  0.0946  1.3370
 3593TIP3   OH232193   4.139   4.107  12.562  0.2824 -0.4029  0.3986
 3593TIP3    H132194   4.191   4.140  12.636 -0.0277 -0.5354  0.6712
 3593TIP3    H232195   4.197   4.118  12.486  0.6193 -0.3182  0.6681
 3594TIP3   OH232196   6.396   2.962   3.863 -0.4806 -0.0734  0.0225
 3594TIP3    H132197   6.449   2.987   3.938 -0.7492  0.4964  0.0170
 3594TIP3    H232198   6.314   2.929   3.900 -0.0858 -1.0733  0.0368
 3595TIP3   OH232199   0.155   5.660  11.184 -0.5249  0.2254  0.2083
 3595TIP3    H132200   0.240   5.627  11.154 -0.2136 -0.1330  1.4333
 3595TIP3    H232201   0.099   5.582  11.185 -0.4898  0.2066  0.6950
 3596TIP3   OH232202   2.542   6.448   2.046 -0.3038 -0.0869 -0.1479
 3596TIP3    H132203   2.637   6.456   2.047 -0.2817 -0.3168 -0.2107
 3596TIP3    H232204   2.524   6.375   1.986 -0.3932 -1.3959  1.4082
 3597TIP3   OH232205   0.618   3.787  16.918 -1.3873 -0.0570  0.2363
 3597TIP3    H132206   0.661   3.829  16.843 -0.1608  0.0292  0.9856
 3597TIP3    H232207   0.543   3.842  16.936 -1.2302  0.3799 -0.4186
 3598TIP3   OH232208   6.288   4.521   1.479 -0.3692 -0.3551 -0.0444
 3598TIP3    H132209   6.270   4.500   1.388 -0.2353 -1.1097  0.0960
 3598TIP3    H232210   6.203   4.517   1.523 -0.2092 -1.5629  0.1649
 3599TIP3   OH232211   1.362   5.195   1.698 -0.5149 -0.0905  0.0825
 3599TIP3    H132212   1.331   5.221   1.612 -2.9616  1.8263  1.5164
 3599TIP3    H232213   1.319   5.111   1.714  0.2207 -0.6267 -0.6771
 3600TIP3   OH232214   2.598   2.376   4.572  0.1249 -0.7156  0.9614
 3600TIP3    H132215   2.638   2.455   4.607 -1.1868 -0.5971  2.2226
 3600TIP3    H232216   2.570   2.401   4.483 -0.0972  0.1777  1.2778
 3601TIP3   OH232217   0.941   6.335   3.221  0.6831 -0.6469  0.4814
 3601TIP3    H132218   0.970   6.353   3.131  0.0233 -1.7262  0.0362
 3601TIP3    H232219   0.993   6.394   3.275  1.1915 -0.0785 -0.6027
 3602TIP3   OH232220   4.964   2.923   1.880  0.2986  0.1145  0.1619
 3602TIP3    H132221   5.050   2.951   1.913 -0.9520  1.0918  2.7448
 3602TIP3    H232222   4.946   2.841   1.926  0.2989 -0.6492 -1.1762
 3603TIP3   OH232223   0.594   4.369   3.116 -0.2482 -0.0781  0.2371
 3603TIP3    H132224   0.623   4.314   3.043  0.3660  0.2071  0.2621
 3603TIP3    H232225   0.650   4.344   3.189 -1.9162 -1.4930  1.0731
 3604TIP3   OH232226   5.624   2.994   4.031 -0.3522  0.4827 -0.1093
 3604TIP3    H132227   5.590   3.009   3.943 -2.0569  2.1244  0.7789
 3604TIP3    H232228   5.718   3.008   4.024 -0.3863 -0.1070 -1.8024
 3605TIP3   OH232229   5.750   0.673  15.640 -0.2535 -0.5369  0.1113
 3605TIP3    H132230   5.795   0.757  15.651 -0.3108 -0.5900  0.7256
 3605TIP3    H232231   5.657   0.697  15.633 -0.5234 -0.7449  2.7459
 3606TIP3   OH232232   2.400   6.710   2.013  0.1258  0.1471  0.4206
 3606TIP3    H132233   2.435   6.625   2.040 -0.5258 -0.3956 -0.4376
 3606TIP3    H232234   2.441   6.727   1.928  0.7327  0.9863  0.8659
 3607TIP3   OH232235   2.426   0.235  13.516 -0.6878  0.1574 -0.2105
 3607TIP3    H132236   2.427   0.154  13.466  0.6932  0.4026 -0.6072
 3607TIP3    H232237   2.483   0.218  13.591  0.3347  1.0419 -0.7699
 3608TIP3   OH232238   3.814   2.460   5.087 -0.4770  0.3835 -0.1239
 3608TIP3    H132239   3.867   2.537   5.108 -1.5098  0.6131  1.8514
 3608TIP3    H232240   3.724   2.488   5.102 -0.8276 -1.4234  1.4683
 3609TIP3   OH232241   1.490   4.359   3.679  0.0800 -0.7967  0.3145
 3609TIP3    H132242   1.472   4.305   3.602 -0.7007 -1.8219  1.2076
 3609TIP3    H232243   1.475   4.301   3.754 -0.7474  0.6358  1.2955
 3610TIP3   OH232244   6.502   3.828  10.758  0.9869 -0.1742 -0.1542
 3610TIP3    H132245   6.471   3.876  10.681  0.1460 -3.1073 -1.7403
 3610TIP3    H232246   6.469   3.877  10.833 -0.3387  1.3406 -1.7067
 3611TIP3   OH232247   2.140   6.461  11.468  0.1879  0.5422  0.2760
 3611TIP3    H132248   2.170   6.391  11.411  0.0826 -0.7066  1.7039
 3611TIP3    H232249   2.101   6.526  11.410  2.1240  0.3678 -1.2550
 3612TIP3   OH232250   0.871   5.630   0.986 -0.9605  0.0172 -0.0203
 3612TIP3    H132251   0.891   5.723   0.989 -2.0830  0.3903 -2.7228
 3612TIP3    H232252   0.955   5.587   1.002 -0.5558  1.4682  1.8738
 3613TIP3   OH232253   2.869   4.094   5.678 -0.0257 -0.5048 -0.0438
 3613TIP3    H132254   2.915   4.088   5.594 -0.2926 -1.5847 -0.1234
 3613TIP3    H232255   2.864   4.003   5.708 -0.0632 -0.1338  1.0675
 3614TIP3   OH232256   3.978   4.374   2.266 -0.2704  0.0912 -0.4403
 3614TIP3    H132257   4.005   4.417   2.184 -1.5751  0.0004 -0.9304
 3614TIP3    H232258   4.059   4.334   2.299  1.1091  3.3754  0.3524
 3615TIP3   OH232259   0.811   1.513  16.497  0.1152 -0.3829  0.0995
 3615TIP3    H132260   0.885   1.557  16.539  0.1367 -0.4043  0.0853
 3615TIP3    H232261   0.833   1.512  16.403  1.8522 -3.6703  0.4658
 3616TIP3   OH232262   5.956   0.245  13.128 -0.3350  0.4217  0.6840
 3616TIP3    H132263   5.977   0.338  13.140  0.4626  0.3946 -0.4251
 3616TIP3    H232264   5.989   0.225  13.041  2.0404 -1.6306  2.0071
 3617TIP3   OH232265   6.112   5.049   4.961 -0.0398  0.2270 -0.2050
 3617TIP3    H132266   6.113   4.989   4.886  1.0420 -1.6552  1.2694
 3617TIP3    H232267   6.028   5.032   5.004  0.0215  0.1581 -0.1106
 3618TIP3   OH232268   5.648   3.023  15.584  0.0520 -0.3157  0.3568
 3618TIP3    H132269   5.607   3.063  15.661 -2.1824 -1.7129 -0.0559
 3618TIP3    H232270   5.723   3.079  15.565 -1.7757  2.4552  1.0116
 3619TIP3   OH232271   2.583   6.236   5.988 -0.6696 -0.5609  0.1279
 3619TIP3    H132272   2.605   6.213   6.078  0.8070  1.6740  0.3838
 3619TIP3    H232273   2.488   6.239   5.986 -0.7163 -1.1274  1.4739
 3620TIP3   OH232274   0.398   1.442   5.732  0.5320  0.0940 -0.0802
 3620TIP3    H132275   0.412   1.536   5.742  0.3552  0.0909  0.2058
 3620TIP3    H232276   0.325   1.422   5.791  1.1028 -0.3697  0.4773
 3621TIP3   OH232277   2.884   6.140  10.703 -0.2864 -0.5030 -0.2836
 3621TIP3    H132278   2.886   6.224  10.748 -1.3488  0.0182 -1.2340
 3621TIP3    H232279   2.802   6.100  10.730  0.5415 -1.5594  0.7404
 3622TIP3   OH232280   4.049   2.780   3.298  0.0827 -0.8500 -0.5764
 3622TIP3    H132281   4.012   2.702   3.256  0.0460 -1.2668  0.2302
 3622TIP3    H232282   4.067   2.840   3.225  0.0604 -1.5884 -1.1936
 3623TIP3   OH232283   2.797   1.243   0.863 -0.0303  0.4585 -0.2501
 3623TIP3    H132284   2.770   1.335   0.864 -2.0264 -0.1068 -0.6878
 3623TIP3    H232285   2.744   1.203   0.795 -1.7026 -1.7593  2.2699
 3624TIP3   OH232286   3.834   1.113   4.181  0.1387  0.1593  0.3440
 3624TIP3    H132287   3.752   1.079   4.145  0.9749  1.0106 -2.4624
 3624TIP3    H232288   3.817   1.206   4.196  0.3505  0.1712  0.5188
 3625TIP3   OH232289   0.588   4.908   2.975 -0.1477  0.0063 -0.1208
 3625TIP3    H132290   0.541   4.982   2.937 -0.0253  1.0424  1.6825
 3625TIP3    H232291   0.524   4.837   2.976 -1.4230  1.1294  1.4303
 3626TIP3   OH232292   2.475   0.520  17.188 -0.1841  0.5513  0.2287
 3626TIP3    H132293   2.548   0.470  17.225 -0.2152  0.9650  0.8367
 3626TIP3    H232294   2.425   0.550  17.264 -0.4693  1.0575 -0.1597
 3627TIP3   OH232295   6.131   4.955  14.967 -0.1440 -0.3185 -0.0572
 3627TIP3    H132296   6.162   4.967  14.878 -0.3576  1.8960  0.1289
 3627TIP3    H232297   6.036   4.943  14.958 -0.0858 -0.7011 -0.1686
 3628TIP3   OH232298   5.768   6.551  15.079 -0.1336 -0.7516 -0.1303
 3628TIP3    H132299   5.862   6.556  15.063 -0.2567  2.3744 -0.1309
 3628TIP3    H232300   5.760   6.510  15.166  1.1307 -2.3739 -0.7558
 3629TIP3   OH232301   2.646   5.809   2.718 -0.9395  0.2681  0.3708
 3629TIP3    H132302   2.652   5.761   2.635 -1.6446  1.6832 -0.5309
 3629TIP3    H232303   2.727   5.859   2.723 -1.8166  1.8641 -0.5847
 3630TIP3   OH232304   3.402   2.469   2.497 -0.1763 -0.1474 -0.4813
 3630TIP3    H132305   3.465   2.512   2.555  0.6417  0.8582 -2.0897
 3630TIP3    H232306   3.455   2.415   2.439 -0.9896 -1.1583 -0.3102
 3631TIP3   OH232307   2.022   0.569  11.299  0.1676 -0.4698 -0.3293
 3631TIP3    H132308   2.008   0.524  11.383 -1.8783 -0.3405 -0.5745
 3631TIP3    H232309   2.032   0.498  11.235 -2.0982 -0.6075 -0.5635
 3632TIP3   OH232310   0.337   0.253  15.782  0.3023  0.1626  0.1365
 3632TIP3    H132311   0.260   0.206  15.753 -0.1080  1.5638 -1.1101
 3632TIP3    H232312   0.394   0.257  15.705  0.6245  1.1105  0.4139
 3633TIP3   OH232313   5.666   3.514  12.523 -0.6453 -0.1583  0.5263
 3633TIP3    H132314   5.743   3.569  12.505 -0.9384 -0.1615 -0.8078
 3633TIP3    H232315   5.697   3.450  12.587  0.4813 -0.1749 -0.0190
 3634TIP3   OH232316   6.112   4.905   1.855 -0.2548  0.6601 -0.5597
 3634TIP3    H132317   6.195   4.953   1.861  1.1674 -1.5863 -1.5126
 3634TIP3    H232318   6.092   4.903   1.761 -0.9806  0.4921 -0.4064
 3635TIP3   OH232319   1.118   1.143  13.579 -0.8503  1.2618  0.0319
 3635TIP3    H132320   1.200   1.191  13.590  0.0768 -0.8972  3.5373
 3635TIP3    H232321   1.143   1.063  13.533 -1.3093  1.3926 -0.4457
 3636TIP3   OH232322   4.267   3.138  16.684  0.1644 -0.1683  0.5458
 3636TIP3    H132323   4.329   3.207  16.706  2.1965 -0.5588 -3.5069
 3636TIP3    H232324   4.298   3.061  16.732 -1.2170  1.2590  3.8612
 3637TIP3   OH232325   0.417   3.960  14.718 -0.1139  0.2225  0.1291
 3637TIP3    H132326   0.480   3.988  14.652 -0.1655  0.1185  0.0345
 3637TIP3    H232327   0.360   3.898  14.672 -0.3264  0.3683  0.1954
 3638TIP3   OH232328   6.152   6.655   5.117  0.0395 -0.2071  0.1900
 3638TIP3    H132329   6.127   6.571   5.155  1.1502 -0.5276  0.2199
 3638TIP3    H232330   6.186   6.705   5.191 -1.7781  0.7478  0.4198
 3639TIP3   OH232331   2.885   4.559   0.080 -0.2599 -0.5240  0.4793
 3639TIP3    H132332   2.796   4.536   0.106 -0.5446 -0.3769 -0.3319
 3639TIP3    H232333   2.923   4.475   0.052  0.0120 -0.6654  1.2831
 3640TIP3   OH232334   5.847   6.080   0.065  0.0528  0.3594  0.3378
 3640TIP3    H132335   5.869   5.999   0.020  1.3458  1.7653 -1.6915
 3640TIP3    H232336   5.856   6.060   0.158 -0.8262 -2.1240 -0.0819
 3641TIP3   OH232337   0.265   0.831   1.268  0.2809  0.0152  0.3700
 3641TIP3    H132338   0.236   0.922   1.258 -0.2589  0.0038  1.7284
 3641TIP3    H232339   0.318   0.831   1.347  0.4221 -0.8330  0.2797
 3642TIP3   OH232340   1.357   0.858  14.266 -0.0528  0.5643 -0.2998
 3642TIP3    H132341   1.356   0.951  14.246  0.2815  0.5953 -0.1737
 3642TIP3    H232342   1.269   0.827  14.243  0.2500  0.6488 -1.5467
 3643TIP3   OH232343   4.204   6.349   3.362 -0.6115 -0.5478  0.4254
 3643TIP3    H132344   4.208   6.344   3.458  1.3430 -1.1390  0.3383
 3643TIP3    H232345   4.159   6.432   3.345  0.2792  0.2753  1.8782
 3644TIP3   OH232346   5.289   6.633   3.014  0.1432 -0.5811  0.0707
 3644TIP3    H132347   5.258   6.637   2.923  0.3313 -1.7720 -0.0532
 3644TIP3    H232348   5.346   6.709   3.023 -0.4767 -0.0228 -0.5747
 3645TIP3   OH232349   0.384   4.708  11.712  0.5041 -0.1985  0.0900
 3645TIP3    H132350   0.431   4.728  11.630 -0.3737  1.5557 -0.0125
 3645TIP3    H232351   0.344   4.623  11.697  0.1889  0.1991 -1.4001
 3646TIP3   OH232352   4.718   6.261  16.329 -0.0272  0.2947  0.5241
 3646TIP3    H132353   4.724   6.305  16.244  0.6407  1.7110  1.2786
 3646TIP3    H232354   4.790   6.299  16.381 -0.6176 -0.3145  1.8200
 3647TIP3   OH232355   4.695   3.721  12.804  0.0769  0.2096  0.0792
 3647TIP3    H132356   4.687   3.676  12.720  1.0700 -0.2252  0.2091
 3647TIP3    H232357   4.641   3.670  12.864  1.8472 -1.3240  0.4184
 3648TIP3   OH232358   0.784   3.054   4.518 -0.1692 -0.6353 -0.2013
 3648TIP3    H132359   0.838   3.093   4.449  0.0818  1.1231  0.9442
 3648TIP3    H232360   0.696   3.051   4.481  0.0988 -0.3801 -0.8674
 3649TIP3   OH232361   0.002   0.250   2.771 -0.2443  0.4209  0.3184
 3649TIP3    H132362  -0.067   0.188   2.746 -0.0095 -0.3629  1.5823
 3649TIP3    H232363   0.000   0.316   2.702  1.2583 -2.3557 -2.4988
 3650TIP3   OH232364   2.639   3.168  14.126 -0.1413 -0.0133  0.8099
 3650TIP3    H132365   2.702   3.105  14.090  0.6466  1.1549  0.0970
 3650TIP3    H232366   2.693   3.237  14.165 -0.9544  1.2182 -0.1758
 3651TIP3   OH232367   4.105   0.870   1.355 -0.4511  0.2063  0.0497
 3651TIP3    H132368   4.121   0.804   1.423  0.7834  1.1456  0.6699
 3651TIP3    H232369   4.034   0.924   1.390 -1.0285 -0.3859 -0.1862
 3652TIP3   OH232370   1.937   2.431  11.177  0.4435  0.1625  0.2732
 3652TIP3    H132371   1.860   2.375  11.166  0.9776 -0.7981  1.4144
 3652TIP3    H232372   2.012   2.372  11.174  1.0266  0.8329  1.2337
 3653TIP3   OH232373   5.904   5.676   3.888 -0.0178 -0.4752  0.2119
 3653TIP3    H132374   5.879   5.720   3.969 -0.7583 -0.4479 -0.0272
 3653TIP3    H232375   5.997   5.696   3.878 -0.0689  0.0489  0.7262
 3654TIP3   OH232376   1.143   0.439   2.042 -0.7880  0.6299 -0.2400
 3654TIP3    H132377   1.098   0.376   2.099  1.4224 -0.1831  0.6580
 3654TIP3    H232378   1.131   0.523   2.086  0.2545  0.1211  1.0529
 3655TIP3   OH232379   4.211   2.035  13.809 -0.4461  0.0359  0.2511
 3655TIP3    H132380   4.278   1.993  13.754 -0.1190 -0.2915  0.8966
 3655TIP3    H232381   4.243   2.024  13.898 -1.4717 -0.3025  0.5802
 3656TIP3   OH232382   3.620   5.281   1.559 -0.5957  0.1640 -0.1521
 3656TIP3    H132383   3.604   5.371   1.533 -0.5233  0.0497 -0.5970
 3656TIP3    H232384   3.713   5.267   1.543 -0.3684  0.3453  0.9512
 3657TIP3   OH232385   5.449   3.799  16.532  0.5826 -0.0788  0.4473
 3657TIP3    H132386   5.414   3.879  16.493  0.8462 -1.3174 -2.4933
 3657TIP3    H232387   5.542   3.818  16.547  0.6641  0.1528 -0.3353
 3658TIP3   OH232388   1.600   0.059  15.315  0.2164  0.0224  0.1512
 3658TIP3    H132389   1.617   0.037  15.223 -1.7075 -2.6619  0.3911
 3658TIP3    H232390   1.514   0.101  15.314  1.7137  3.3132  0.3562
 3659TIP3   OH232391   2.020   5.732  13.040  0.1875  0.5387  0.2743
 3659TIP3    H132392   2.035   5.638  13.035  0.6342  0.5953  0.5936
 3659TIP3    H232393   1.993   5.756  12.951  0.9123  0.2596 -0.0228
 3660TIP3   OH232394   5.903   2.077  11.766 -0.0612 -0.4409 -0.2731
 3660TIP3    H132395   5.939   2.029  11.691  0.2320 -0.1370 -0.3269
 3660TIP3    H232396   5.840   2.138  11.727  2.2125  1.7806 -0.5855
 3661TIP3   OH232397   0.347   1.389  17.011  0.0754  0.3066 -0.6620
 3661TIP3    H132398   0.310   1.453  17.072  1.0239 -0.6395  0.9390
 3661TIP3    H232399   0.441   1.407  17.012 -0.0970  1.7074 -3.5566
 3662TIP3   OH232400   4.437   1.973  13.966 -0.0746  0.0307  0.2889
 3662TIP3    H132401   4.492   1.895  13.957  1.3408  1.0475 -0.0734
 3662TIP3    H232402   4.466   2.014  14.048 -0.9608  0.0691  0.5899
 3663TIP3   OH232403   2.241   2.992  11.380  0.2574  0.6373  0.1474
 3663TIP3    H132404   2.273   2.913  11.423 -1.1014  0.2196  0.4158
 3663TIP3    H232405   2.289   2.995  11.297  0.5409 -0.3009  0.2698
 3664TIP3   OH232406   6.061   0.872  15.260 -0.5914 -0.3025  0.1098
 3664TIP3    H132407   6.059   0.963  15.230 -3.5226 -0.1555  0.5789
 3664TIP3    H232408   6.014   0.873  15.343 -1.5981 -2.4060 -0.3935
 3665TIP3   OH232409   6.731   4.337  16.454  0.3233  0.2464  0.6002
 3665TIP3    H132410   6.775   4.268  16.404  0.9270  0.6867  0.5258
 3665TIP3    H232411   6.658   4.363  16.398 -0.1996 -0.6699  0.8431
 3666TIP3   OH232412   2.465   0.827   2.903 -0.1557  0.4650  0.5090
 3666TIP3    H132413   2.377   0.816   2.938 -0.4338  1.4712  0.1503
 3666TIP3    H232414   2.460   0.906   2.848  0.5623 -0.4075 -0.8447
 3667TIP3   OH232415   5.666   5.937  14.607  0.2315 -0.9539 -0.2366
 3667TIP3    H132416   5.746   5.989  14.600  0.1276 -0.7752 -0.0847
 3667TIP3    H232417   5.609   5.988  14.664 -0.0996 -0.9509 -0.5764
 3668TIP3   OH232418   5.868   3.599  15.166  0.5841 -0.0220 -0.2166
 3668TIP3    H132419   5.844   3.615  15.258  0.5796 -2.3798  0.2218
 3668TIP3    H232420   5.795   3.548  15.131  1.8844 -1.5519 -0.7379
 3669TIP3   OH232421   0.956   6.055   2.937  0.4284  0.7173  0.4610
 3669TIP3    H132422   1.032   6.069   2.994  0.2740  2.5241  0.2476
 3669TIP3    H232423   0.880   6.068   2.993  0.2787  1.4660  0.0943
 3670TIP3   OH232424   3.213   0.309  15.489  0.0499  0.6303 -0.3499
 3670TIP3    H132425   3.186   0.227  15.447  0.6067 -0.1212  0.7080
 3670TIP3    H232426   3.135   0.364  15.489 -0.5625 -0.2373 -0.3197
 3671TIP3   OH232427   6.072   2.115  12.141  0.2373 -0.2394  0.1092
 3671TIP3    H132428   6.130   2.162  12.081  1.2142 -0.2440  1.0273
 3671TIP3    H232429   5.991   2.166  12.140  1.0106  1.0306  0.4831
 3672TIP3   OH232430   5.527   5.056  11.027 -0.3832 -0.0641  0.0115
 3672TIP3    H132431   5.549   5.113  10.954 -0.1691 -0.0253  0.1071
 3672TIP3    H232432   5.600   4.994  11.032 -0.1725  0.2254  0.4891
 3673TIP3   OH232433   5.207   3.523   3.388 -0.5973 -0.1584 -0.6886
 3673TIP3    H132434   5.136   3.552   3.332 -0.2367 -1.1255 -1.6654
 3673TIP3    H232435   5.228   3.599   3.443 -0.2095  1.1559 -2.6175
 3674TIP3   OH232436   1.434   3.462   3.620 -0.0994  0.0306  0.4843
 3674TIP3    H132437   1.527   3.458   3.645 -0.5495  0.2599  2.3308
 3674TIP3    H232438   1.389   3.417   3.692 -1.2945 -1.5735 -1.2274
 3675TIP3   OH232439   6.032   4.011   1.500 -0.6550 -0.4668 -0.4891
 3675TIP3    H132440   5.938   4.026   1.506 -0.8025 -1.8946  1.0862
 3675TIP3    H232441   6.044   3.921   1.530  1.2839 -0.0481  0.0380
 3676TIP3   OH232442   3.697   1.123   3.749 -0.6318  0.1293 -0.0928
 3676TIP3    H132443   3.635   1.060   3.712  0.2609 -0.2963 -0.8964
 3676TIP3    H232444   3.685   1.203   3.698 -0.9967  0.2660  0.2050
 3677TIP3   OH232445   5.472   6.340   1.448 -0.2936  0.3552  0.1123
 3677TIP3    H132446   5.552   6.393   1.447  0.2032 -0.3914 -0.7179
 3677TIP3    H232447   5.417   6.380   1.380  0.1037 -0.2237 -0.5522
 3678TIP3   OH232448   3.868   4.406   2.760 -0.1520 -0.4049  0.8183
 3678TIP3    H132449   3.775   4.429   2.757 -0.1328 -0.4418 -0.1206
 3678TIP3    H232450   3.886   4.368   2.674  0.7723 -0.2371  0.9379
 3679TIP3   OH232451   1.833   1.515  13.584  0.0752 -0.3231 -0.4732
 3679TIP3    H132452   1.820   1.422  13.604 -1.6279 -0.0515 -0.2457
 3679TIP3    H232453   1.879   1.515  13.500 -1.2072 -1.3709 -1.1918
 3680TIP3   OH232454   2.985   3.323  16.795  0.6865  0.7322  0.4100
 3680TIP3    H132455   3.011   3.363  16.878  2.3766 -2.6931  1.6218
 3680TIP3    H232456   3.067   3.298  16.754 -0.2682 -0.1920 -0.9792
 3681TIP3   OH232457   0.207   0.333  12.526  0.3094 -0.4904  0.3293
 3681TIP3    H132458   0.129   0.300  12.571  0.0446 -0.3132  0.0028
 3681TIP3    H232459   0.243   0.257  12.482 -0.0023 -0.4601  0.0137
 3682TIP3   OH232460   3.677   6.600   3.395 -0.2387 -0.1636  1.0438
 3682TIP3    H132461   3.712   6.512   3.381 -0.2632 -0.1946  1.1719
 3682TIP3    H232462   3.685   6.644   3.311  1.1341  0.1919  1.3447
 3683TIP3   OH232463   2.531   3.736  12.356  0.5111  0.9814  0.2120
 3683TIP3    H132464   2.482   3.763  12.434 -0.5874 -0.1896 -0.0663
 3683TIP3    H232465   2.616   3.709  12.390 -1.0722 -2.6781  1.4355
 3684TIP3   OH232466   6.260   5.726  16.130 -0.1534  0.1797  0.5847
 3684TIP3    H132467   6.265   5.687  16.043  1.7195 -0.6163  1.0293
 3684TIP3    H232468   6.280   5.818  16.117  3.0997 -0.4901  0.5371
 3685TIP3   OH232469   2.673   1.821   6.104  0.0001 -0.6230 -0.1796
 3685TIP3    H132470   2.617   1.839   6.029 -0.4400 -0.0751  0.2738
 3685TIP3    H232471   2.612   1.806   6.176  0.4312  0.2945  0.3874
 3686TIP3   OH232472   4.145   6.437   1.385 -0.3877  0.0570 -0.0119
 3686TIP3    H132473   4.069   6.409   1.335  0.0815  0.1575 -0.7928
 3686TIP3    H232474   4.182   6.356   1.420  0.1860 -0.1858 -1.1435
 3687TIP3   OH232475   1.236   2.356   4.615  0.5900 -0.3409  0.1322
 3687TIP3    H132476   1.219   2.450   4.617 -2.1013 -0.8032  1.7860
 3687TIP3    H232477   1.251   2.336   4.523 -0.8030  1.3999 -0.5054
 3688TIP3   OH232478   6.729   1.788   1.942  0.4216  0.1536  0.0444
 3688TIP3    H132479   6.797   1.823   1.884  0.8069 -1.0296 -0.2449
 3688TIP3    H232480   6.700   1.707   1.899  0.4878 -0.5747  1.3284
 3689TIP3   OH232481   5.056   5.957  17.220  0.0024  0.9188  0.0119
 3689TIP3    H132482   5.090   6.015  17.288  1.1150  0.4328 -0.1061
 3689TIP3    H232483   4.968   5.935  17.249  0.7538  0.0824  1.7331
 3690TIP3   OH232484   6.145   0.558   5.555 -0.7085 -0.0073 -0.3331
 3690TIP3    H132485   6.091   0.636   5.570 -0.6879  0.1046 -0.8364
 3690TIP3    H232486   6.089   0.485   5.582 -0.5157  0.2165  0.6969
 3691TIP3   OH232487   0.450   6.330   1.687  0.1289 -0.1131 -0.4198
 3691TIP3    H132488   0.365   6.340   1.730  0.7608 -2.9487  1.6195
 3691TIP3    H232489   0.429   6.294   1.600 -0.7850  0.0210 -0.2591
 3692TIP3   OH232490   6.652   5.975   1.693  0.1961  0.0984 -0.0156
 3692TIP3    H132491   6.611   5.896   1.730 -1.0817  1.0592  0.6734
 3692TIP3    H232492   6.627   6.045   1.754  3.1555  0.6677  0.5965
 3693TIP3   OH232493   0.629   2.275   2.438 -0.1082  0.2886  0.2973
 3693TIP3    H132494   0.693   2.271   2.509  0.0021 -2.2823  0.1082
 3693TIP3    H232495   0.578   2.195   2.447 -1.5302  0.9933 -1.2087
 3694TIP3   OH232496   1.419   1.326   3.315  0.1120  0.4806  0.1198
 3694TIP3    H132497   1.378   1.242   3.294  0.7155  0.5511 -1.4039
 3694TIP3    H232498   1.374   1.390   3.260 -0.7327  1.2547  1.6937
 3695TIP3   OH232499   2.753   2.584  16.845  0.2797  1.4063 -0.3322
 3695TIP3    H132500   2.683   2.590  16.911 -0.0588 -1.8200 -0.3497
 3695TIP3    H232501   2.708   2.561  16.764  1.3018 -0.1008 -0.4738
 3696TIP3   OH232502   1.332   3.772  16.581 -0.1042  0.0848 -0.2018
 3696TIP3    H132503   1.328   3.760  16.486 -0.2258  2.9614 -0.5884
 3696TIP3    H232504   1.262   3.716  16.615 -1.3873  0.5690 -1.9723
 3697TIP3   OH232505   1.182   6.710   5.952 -0.6906 -0.3195 -0.6197
 3697TIP3    H132506   1.153   6.767   6.023  0.7217 -0.6229  0.2267
 3697TIP3    H232507   1.104   6.661   5.926 -1.4161  0.4602  0.1091
 3698TIP3   OH232508   4.903   4.334  15.544 -0.1063 -0.2704  0.2276
 3698TIP3    H132509   4.831   4.323  15.482  0.0400 -2.5808  0.4184
 3698TIP3    H232510   4.910   4.249  15.587  0.9794  0.7572  2.1342
 3699TIP3   OH232511   4.954   5.614  10.116  0.0909  0.0625  0.4444
 3699TIP3    H132512   5.019   5.646  10.053 -0.8205  0.6177 -0.2172
 3699TIP3    H232513   5.006   5.568  10.182  1.1428  0.3187 -0.1898
 3700TIP3   OH232514   4.003   3.313  16.724 -0.0680 -0.2316  0.1245
 3700TIP3    H132515   4.088   3.276  16.746  0.7836  0.4005 -1.9857
 3700TIP3    H232516   4.010   3.406  16.746 -0.6232 -0.4044  1.0547
 3701TIP3   OH232517   1.738   0.717   0.558  0.2721 -0.4851 -0.1950
 3701TIP3    H132518   1.646   0.716   0.534 -0.1353 -0.1463  1.2694
 3701TIP3    H232519   1.748   0.795   0.613  1.6378  0.0126 -1.1267
 3702TIP3   OH232520   6.145   4.756   0.315  0.2962 -0.4434  0.0943
 3702TIP3    H132521   6.178   4.841   0.343 -0.2282 -0.3839  0.5613
 3702TIP3    H232522   6.085   4.729   0.386 -1.9237  0.2000 -1.4716
 3703TIP3   OH232523   3.535   5.671  13.659  0.4199  0.2014  0.3607
 3703TIP3    H132524   3.567   5.584  13.634  1.1487  0.1232  1.5045
 3703TIP3    H232525   3.574   5.686  13.745 -2.0565  0.4214  1.4949
 3704TIP3   OH232526   0.361   3.210   1.093  0.6729  0.3367  0.3674
 3704TIP3    H132527   0.454   3.226   1.107  0.2833  2.7329  0.4389
 3704TIP3    H232528   0.318   3.250   1.169 -0.5238  0.6492 -0.4578
 3705TIP3   OH232529   6.176   0.479   3.674 -0.2178 -0.3018  0.3991
 3705TIP3    H132530   6.095   0.435   3.700 -0.1374  0.6691  2.3742
 3705TIP3    H232531   6.243   0.443   3.731  0.4204  0.1235 -0.0746
 3706TIP3   OH232532   6.604   1.811   0.437  0.4963  0.3426 -0.2476
 3706TIP3    H132533   6.564   1.770   0.360  1.5135  1.0754 -1.1760
 3706TIP3    H232534   6.532   1.820   0.499 -1.3546  3.6603 -2.7072
 3707TIP3   OH232535   6.276   2.612   4.403 -0.0988 -0.1712  0.0441
 3707TIP3    H132536   6.348   2.557   4.434 -0.2890 -0.2085  0.4266
 3707TIP3    H232537   6.289   2.618   4.309  0.9374  0.5714  0.2255
 3708TIP3   OH232538   4.176   0.821  12.904  0.3864  0.3416 -0.3163
 3708TIP3    H132539   4.104   0.884  12.893  1.2281  1.1878 -1.0362
 3708TIP3    H232540   4.171   0.796  12.997 -0.7509  0.4931 -0.3282
 3709TIP3   OH232541   5.212   4.477  14.887 -0.0475  0.3673  0.2690
 3709TIP3    H132542   5.131   4.451  14.933 -0.9811  1.1563 -0.8997
 3709TIP3    H232543   5.247   4.395  14.853 -1.4721  0.2672 -1.0004
 3710TIP3   OH232544   2.339   4.868  11.093  0.5188  0.2570 -0.0238
 3710TIP3    H132545   2.321   4.962  11.082  0.6852  0.4247  1.1122
 3710TIP3    H232546   2.268   4.836  11.148 -0.3036 -0.5853 -1.5216
 3711TIP3   OH232547   0.347   2.976   2.925 -0.0832 -0.0453  0.0189
 3711TIP3    H132548   0.335   3.021   3.009  0.1337  0.2089 -0.0867
 3711TIP3    H232549   0.415   3.026   2.880 -0.8883  0.4173 -0.7195
 3712TIP3   OH232550   6.023   5.939  11.941 -0.3614  0.5969 -0.1380
 3712TIP3    H132551   5.997   5.978  11.858 -1.1829 -0.0398 -0.1792
 3712TIP3    H232552   6.117   5.925  11.933 -0.2060  1.7914 -0.4380
 3713TIP3   OH232553   4.621   5.814  13.015 -0.2158  0.4122  0.1103
 3713TIP3    H132554   4.550   5.779  13.069 -0.0228 -1.0245 -0.5186
 3713TIP3    H232555   4.700   5.801  13.068 -0.1785  0.0981 -0.0163
 3714TIP3   OH232556   1.161   2.645  13.623 -0.3980 -0.1851  0.2590
 3714TIP3    H132557   1.226   2.587  13.662  0.1117 -1.0999 -1.8466
 3714TIP3    H232558   1.077   2.612  13.654 -0.0618 -1.5483 -0.2547
 3715TIP3   OH232559   2.824   4.302  16.627  0.0268  0.2890  0.1717
 3715TIP3    H132560   2.752   4.271  16.573  1.2600 -2.1457 -0.1419
 3715TIP3    H232561   2.800   4.276  16.716  0.8052 -1.1549 -0.0207
 3716TIP3   OH232562   6.272   4.528  13.189 -0.3007  0.1496  0.1670
 3716TIP3    H132563   6.216   4.523  13.267 -2.2143 -0.9984 -1.2150
 3716TIP3    H232564   6.256   4.616  13.154 -2.0989 -0.5224 -0.7841
 3717TIP3   OH232565   5.571   4.617   2.027  0.5756  0.1412 -0.7753
 3717TIP3    H132566   5.558   4.540   2.083  0.1379  0.6080 -0.2310
 3717TIP3    H232567   5.618   4.679   2.083  1.8344 -0.0972 -1.5262
 3718TIP3   OH232568   6.479   6.347   0.186 -0.3900 -0.5122 -0.5599
 3718TIP3    H132569   6.394   6.308   0.170  0.2797 -2.2220 -0.0746
 3718TIP3    H232570   6.506   6.313   0.271  1.0831 -0.5453 -1.0238
 3719TIP3   OH232571   2.828   5.112   2.736  0.2906  0.1650  0.6854
 3719TIP3    H132572   2.870   5.088   2.653  0.8851 -0.8383  1.2690
 3719TIP3    H232573   2.734   5.096   2.720  0.6532 -2.5974  1.0327
 3720TIP3   OH232574   5.153   0.906  16.451  0.6600  0.1251 -0.4934
 3720TIP3    H132575   5.112   0.972  16.394  0.5627  0.5051  0.0156
 3720TIP3    H232576   5.122   0.822  16.417 -0.0472  0.3870 -0.4970
 3721TIP3   OH232577   6.564   5.268  12.656 -0.0783  0.6967  0.2434
 3721TIP3    H132578   6.575   5.231  12.568  1.8938  2.3159 -0.2388
 3721TIP3    H232579   6.625   5.219  12.710  0.7988  1.6244  0.1009
 3722TIP3   OH232580   6.507   5.449  15.659 -0.0326 -0.1480  0.4286
 3722TIP3    H132581   6.581   5.408  15.704  0.5505 -0.0720 -0.4593
 3722TIP3    H232582   6.502   5.404  15.574 -0.1013  0.8413 -0.0959
 3723TIP3   OH232583   2.953   2.895  13.647  0.2946  0.2072  0.0829
 3723TIP3    H132584   2.927   2.980  13.681 -0.4923 -0.2758  0.6873
 3723TIP3    H232585   2.878   2.838  13.663  0.3443 -0.3090 -1.4069
 3724TIP3   OH232586   3.761   3.763   6.017 -0.1101  0.2374 -0.3890
 3724TIP3    H132587   3.802   3.831   6.071 -1.1654  0.7736 -0.2385
 3724TIP3    H232588   3.770   3.683   6.069  2.9645 -0.1783 -1.4681
 3725TIP3   OH232589   5.997   5.078   1.335  0.0157  0.3245  0.2419
 3725TIP3    H132590   6.081   5.037   1.352 -0.1791 -0.2576 -0.1902
 3725TIP3    H232591   5.943   5.055   1.411 -0.1834 -0.4685 -0.1334
 3726TIP3   OH232592   3.858   3.120  15.967  0.4901 -0.4655  0.2578
 3726TIP3    H132593   3.869   3.207  15.929  1.3596 -1.0876 -0.9511
 3726TIP3    H232594   3.946   3.081  15.965 -0.0447 -1.6858 -0.0168
 3727TIP3   OH232595   3.154   2.971   3.193 -0.6897 -0.0437  0.3175
 3727TIP3    H132596   3.131   2.879   3.206  0.4051 -0.3642  0.0621
 3727TIP3    H232597   3.187   3.000   3.278 -1.8109  0.3552  0.6257
 3728TIP3   OH232598   6.237   4.556   4.697 -0.3215 -0.2278  0.5429
 3728TIP3    H132599   6.172   4.551   4.767 -1.3686  0.5203 -0.3609
 3728TIP3    H232600   6.261   4.649   4.694  0.9413 -0.5167  0.9800
 3729TIP3   OH232601   1.300   2.246  15.893 -1.0185  0.0287 -0.3388
 3729TIP3    H132602   1.317   2.341  15.893  0.9066 -0.3019 -0.7437
 3729TIP3    H232603   1.376   2.208  15.850 -1.1853 -1.8151  0.9483
 3730TIP3   OH232604   3.804   1.616  14.929  0.5257 -0.1116  0.3931
 3730TIP3    H132605   3.883   1.561  14.933  0.4567 -0.2603 -0.2063
 3730TIP3    H232606   3.836   1.704  14.913  0.4423 -0.6033 -2.7121
 3731TIP3   OH232607   4.389   5.478   4.847 -0.0091  0.3207 -0.0019
 3731TIP3    H132608   4.430   5.564   4.856 -1.1134  0.6791  1.9231
 3731TIP3    H232609   4.296   5.497   4.833 -0.0622 -0.5283 -0.7930
 3732TIP3   OH232610   5.797   6.605  14.262 -0.0395  0.5220 -0.3091
 3732TIP3    H132611   5.842   6.584  14.180  0.3411  0.5524 -0.1070
 3732TIP3    H232612   5.715   6.557  14.257  0.7935 -0.9621  0.1161
 3733TIP3   OH232613   0.793   6.289  14.454  0.3043  0.7437 -0.4066
 3733TIP3    H132614   0.743   6.263  14.377 -0.3915  1.0070 -0.0570
 3733TIP3    H232615   0.744   6.363  14.490  0.7780  0.8041  0.1233
 3734TIP3   OH232616   2.328   3.618   6.829  0.2111 -0.3522  0.2759
 3734TIP3    H132617   2.364   3.608   6.741 -1.1779 -5.0677  0.1220
 3734TIP3    H232618   2.401   3.648   6.883  1.7880 -0.2060 -1.9107
 3735TIP3   OH232619   5.929   6.029  14.207 -0.3980 -0.4078  0.0298
 3735TIP3    H132620   5.872   5.987  14.271 -0.2535 -1.1327 -0.3171
 3735TIP3    H232621   5.868   6.070  14.146 -0.5425  2.0240  1.7375
 3736TIP3   OH232622   4.699   0.513   5.147  0.1128  0.2704  0.1120
 3736TIP3    H132623   4.659   0.589   5.105  1.0246  1.1604  0.8316
 3736TIP3    H232624   4.778   0.496   5.095 -0.6200 -0.8096 -0.6530
 3737TIP3   OH232625   5.870   1.362   3.706 -0.5765 -0.2386 -0.0812
 3737TIP3    H132626   5.854   1.395   3.617  0.1847 -0.7254 -0.4016
 3737TIP3    H232627   5.783   1.358   3.746 -1.0992 -1.4072 -1.2916
 3738TIP3   OH232628   6.060   4.751  11.679 -0.0797 -0.0867 -0.3352
 3738TIP3    H132629   6.063   4.764  11.585 -1.7971  0.9096 -0.2726
 3738TIP3    H232630   6.152   4.754  11.707  0.3764  0.4341 -1.8606
 3739TIP3   OH232631   5.852   5.656   4.417 -0.6029  0.9347 -0.4964
 3739TIP3    H132632   5.779   5.618   4.369  0.2259 -1.0938 -0.1811
 3739TIP3    H232633   5.871   5.594   4.487  1.5744  1.3035 -0.7181
 3740TIP3   OH232634   6.213   1.607   1.276 -0.2949  0.6815  0.6587
 3740TIP3    H132635   6.144   1.563   1.325  1.6290 -0.2234  2.6361
 3740TIP3    H232636   6.177   1.694   1.257 -0.9102  1.2867  4.2181
 3741TIP3   OH232637   3.590   2.638   4.855  0.1563  0.0098  0.1650
 3741TIP3    H132638   3.524   2.705   4.837 -1.5697 -1.9025 -0.8682
 3741TIP3    H232639   3.626   2.615   4.770 -1.1023 -2.1706  0.1855
 3742TIP3   OH232640   2.821   5.449  16.051  0.0000 -0.2553 -0.3115
 3742TIP3    H132641   2.852   5.414  15.968  0.6264 -3.2230  1.0918
 3742TIP3    H232642   2.895   5.498  16.086  1.0548 -2.1869  0.2137
 3743TIP3   OH232643   4.007   2.203  11.953  0.1548 -0.0241 -0.0291
 3743TIP3    H132644   3.999   2.284  12.003 -1.3476 -0.4190  0.3887
 3743TIP3    H232645   4.005   2.232  11.861  0.2470  0.4638  0.1211
 3744TIP3   OH232646   0.948   5.338  12.000  0.0417  0.3139 -0.2199
 3744TIP3    H132647   0.958   5.369  11.910 -1.5937  1.8172  0.0934
 3744TIP3    H232648   0.947   5.418  12.053  0.9240 -0.5557  1.1498
 3745TIP3   OH232649   5.629   4.557   3.379  0.1065  0.1060 -0.5098
 3745TIP3    H132650   5.623   4.543   3.285  0.6816  0.8601 -0.6677
 3745TIP3    H232651   5.557   4.617   3.399 -1.4142 -1.8301 -0.0874
 3746TIP3   OH232652   4.698   2.981  12.908  0.4651  0.0541  0.4779
 3746TIP3    H132653   4.722   3.053  12.849 -1.5326  0.4149  0.0903
 3746TIP3    H232654   4.684   2.906  12.850  1.5389 -0.4032  0.7924
 3747TIP3   OH232655   1.623   6.162   4.036 -0.1822  0.1023 -0.1627
 3747TIP3    H132656   1.659   6.139   3.950 -0.7647  0.7283 -0.5896
 3747TIP3    H232657   1.636   6.257   4.043  1.8502 -0.2706  1.4040
 3748TIP3   OH232658   2.602   5.096   0.944  0.2536  0.2495  0.6383
 3748TIP3    H132659   2.585   5.035   1.016 -1.1025 -1.0035 -0.7105
 3748TIP3    H232660   2.548   5.064   0.872  0.0063  2.6916 -0.3128
 3749TIP3   OH232661   2.599   2.042   5.525  0.7687 -0.4544  0.1864
 3749TIP3    H132662   2.614   2.130   5.490 -0.6315 -1.0172 -1.8843
 3749TIP3    H232663   2.526   2.007   5.474  0.0885 -2.1457  2.2225
 3750TIP3   OH232664   6.413   1.091   5.693 -0.0294 -0.7373 -0.0861
 3750TIP3    H132665   6.374   1.025   5.750  0.0103 -0.6588  0.0316
 3750TIP3    H232666   6.470   1.041   5.634 -0.3837 -0.8635 -0.3252
 3751TIP3   OH232667   0.521   3.353   6.552  0.0793 -0.0240  0.0286
 3751TIP3    H132668   0.456   3.380   6.488 -0.6018  1.2551  1.2140
 3751TIP3    H232669   0.586   3.304   6.502 -1.0912 -0.1364 -1.4013
 3752TIP3   OH232670   3.847   6.678  11.173 -0.2895  0.1032 -0.3967
 3752TIP3    H132671   3.897   6.759  11.163 -0.5692  0.4607  0.9792
 3752TIP3    H232672   3.794   6.693  11.251  1.8878 -2.5416  1.6704
 3753TIP3   OH232673   5.467   0.726  12.040 -0.6652 -0.0800  0.4023
 3753TIP3    H132674   5.426   0.737  12.126 -0.3865 -0.1140  0.5401
 3753TIP3    H232675   5.406   0.671  11.991 -1.0520  0.3270  0.4216
 3754TIP3   OH232676   1.564   4.575  17.200 -0.5484 -0.3254  0.1784
 3754TIP3    H132677   1.583   4.665  17.228 -0.5891 -0.4135  0.4861
 3754TIP3    H232678   1.491   4.584  17.139  0.3331 -0.0033 -0.8493
 3755TIP3   OH232679   5.822   0.574  13.329  0.0830 -0.3154 -0.1939
 3755TIP3    H132680   5.843   0.563  13.421  2.6890 -1.2022 -0.8580
 3755TIP3    H232681   5.742   0.523  13.316  2.0945 -3.8874  0.6842
 3756TIP3   OH232682   0.974   0.338   5.480 -0.1111  0.1958  0.3632
 3756TIP3    H132683   1.005   0.248   5.489 -0.0190  0.2214  0.2996
 3756TIP3    H232684   1.014   0.384   5.553 -0.5080  0.0905  0.6526
 3757TIP3   OH232685   3.894   5.249   1.585  0.2224 -0.2469  0.0584
 3757TIP3    H132686   3.914   5.271   1.676  0.6780  1.0619 -0.3547
 3757TIP3    H232687   3.977   5.261   1.539 -0.8735  2.8280 -1.2243
 3758TIP3   OH232688   3.407   1.150   1.328  0.0070 -0.6721  0.0955
 3758TIP3    H132689   3.320   1.160   1.367  0.1700  1.8469 -0.1124
 3758TIP3    H232690   3.414   1.057   1.310 -2.8940 -0.8532 -0.4221
 3759TIP3   OH232691   2.205   3.418  11.600  0.0631  0.4393  0.2190
 3759TIP3    H132692   2.118   3.451  11.622 -0.1672  0.6015 -0.8744
 3759TIP3    H232693   2.215   3.339  11.652  0.3498  1.8562  2.3669
 3760TIP3   OH232694   1.320   5.937   1.959  0.1474  0.1975 -0.6729
 3760TIP3    H132695   1.244   5.976   1.916  0.0134 -0.7872 -1.3604
 3760TIP3    H232696   1.395   5.963   1.905  0.0896 -0.2627 -0.9783
 3761TIP3   OH232697   5.591   6.178   4.184 -0.2962  0.1931  0.1479
 3761TIP3    H132698   5.619   6.124   4.110 -1.7657 -1.2161  0.5760
 3761TIP3    H232699   5.515   6.226   4.151  0.7411  1.7061 -0.0927
 3762TIP3   OH232700   4.850   3.483  15.058  0.1122  0.6580  0.3072
 3762TIP3    H132701   4.854   3.515  15.148  2.3269  0.5383  0.2798
 3762TIP3    H232702   4.817   3.557  15.008 -2.0596  0.4234  1.3340
 3763TIP3   OH232703   0.302   3.774   6.297 -0.7993  0.3315 -0.6074
 3763TIP3    H132704   0.212   3.745   6.312 -0.5856  0.1865  0.4411
 3763TIP3    H232705   0.303   3.802   6.206 -1.8165 -0.0046 -0.7308
 3764TIP3   OH232706   1.441   5.376   2.632  0.8076  0.1638 -0.1084
 3764TIP3    H132707   1.468   5.285   2.621 -0.8607 -0.6374  2.0402
 3764TIP3    H232708   1.513   5.416   2.681  0.1071 -0.8499  1.8036
 3765TIP3   OH232709   2.037   4.665   2.721 -0.5740 -0.0745  0.9312
 3765TIP3    H132710   2.111   4.636   2.668 -0.4501  1.3081  0.3271
 3765TIP3    H232711   2.075   4.721   2.788 -0.9350 -0.3440  1.3663
 3766TIP3   OH232712   2.081   4.227   2.470  0.0212  0.0849 -0.0506
 3766TIP3    H132713   2.126   4.295   2.421  0.5571 -0.8214 -0.8196
 3766TIP3    H232714   2.146   4.195   2.533  0.2647 -0.7635 -0.7166
 3767TIP3   OH232715   5.713   5.056  16.077  0.4223  0.4764  0.0773
 3767TIP3    H132716   5.749   5.105  16.003  0.0514  0.8525  0.1475
 3767TIP3    H232717   5.675   5.122  16.134 -0.8388  0.0402 -0.2405
 3768TIP3   OH232718   2.116   0.020   5.748 -0.8648 -0.2127  0.4427
 3768TIP3    H132719   2.129   0.019   5.842 -1.0056  1.6327  0.4994
 3768TIP3    H232720   2.095  -0.071   5.725 -0.8711 -0.6539  2.1817
 3769TIP3   OH232721   1.319   3.650   5.289 -0.0146  0.0614 -0.3822
 3769TIP3    H132722   1.282   3.562   5.291 -2.0776  0.8764 -1.2576
 3769TIP3    H232723   1.257   3.703   5.340  0.1204  1.3922 -1.5733
 3770TIP3   OH232724   3.313   0.833  16.578  0.0681 -0.2193  0.7209
 3770TIP3    H132725   3.382   0.862  16.518  0.8990 -2.8078  0.3665
 3770TIP3    H232726   3.342   0.864  16.664  1.7274 -1.3386  0.5830
 3771TIP3   OH232727   4.837   3.702   3.542 -0.8332 -0.3854 -0.7221
 3771TIP3    H132728   4.851   3.608   3.554 -0.4541 -0.1485  0.7656
 3771TIP3    H232729   4.805   3.710   3.452  0.2451 -1.8206 -1.2577
 3772TIP3   OH232730   0.320   0.039   5.841  0.3189  0.2829 -0.3296
 3772TIP3    H132731   0.395  -0.021   5.840 -0.3079 -0.4983 -0.6989
 3772TIP3    H232732   0.246  -0.015   5.868 -0.2318  0.9236 -0.5496
 3773TIP3   OH232733   5.732   5.403  12.961  0.0369 -0.3570 -0.5416
 3773TIP3    H132734   5.787   5.413  13.038  0.8359 -1.7595 -0.9053
 3773TIP3    H232735   5.649   5.368  12.994  0.4454 -1.1377 -0.3267
 3774TIP3   OH232736   0.512   3.661   1.175 -0.2614 -0.1638 -0.3232
 3774TIP3    H132737   0.476   3.653   1.263 -0.8559 -1.4999 -0.6784
 3774TIP3    H232738   0.607   3.658   1.187 -0.2406  2.7452  0.5553
 3775TIP3   OH232739   5.546   5.828   5.571  0.0884  0.2972  0.0458
 3775TIP3    H132740   5.454   5.803   5.561  0.5841 -1.9746  0.8127
 3775TIP3    H232741   5.566   5.810   5.662  1.8227 -1.1734 -0.5861
 3776TIP3   OH232742   5.401   6.433   4.182  0.2347 -0.2438 -0.0071
 3776TIP3    H132743   5.351   6.514   4.176 -0.1134 -0.2654  2.2665
 3776TIP3    H232744   5.467   6.440   4.113  0.5133  2.2078  0.4815
 3777TIP3   OH232745   3.809   6.428   5.698  0.7163  0.2947  0.5176
 3777TIP3    H132746   3.779   6.498   5.641 -0.3515  0.7461  1.6133
 3777TIP3    H232747   3.731   6.402   5.748  1.3831 -0.8047  1.0173
 3778TIP3   OH232748   5.640   1.169   6.870 -0.7815 -0.2107  0.2691
 3778TIP3    H132749   5.689   1.235   6.822 -2.2001 -0.6014 -1.7618
 3778TIP3    H232750   5.673   1.085   6.837 -0.9296 -0.4968  0.8355
 3779TIP3   OH232751   3.069   0.407   4.325  0.1263 -0.3107 -0.7357
 3779TIP3    H132752   3.068   0.411   4.229 -0.2052  0.2506 -0.7132
 3779TIP3    H232753   3.116   0.486   4.352  0.6252 -0.7066 -0.4460
 3780TIP3   OH232754   6.730   6.633  15.862  0.4507  0.6465  0.1246
 3780TIP3    H132755   6.756   6.583  15.939 -0.9619 -2.0400 -1.1005
 3780TIP3    H232756   6.813   6.668  15.828  1.3908 -0.3036  1.3742
 3781TIP3   OH232757   0.669   0.487  15.687  0.2234 -1.0430 -0.4293
 3781TIP3    H132758   0.758   0.455  15.702  0.7663  0.4406 -0.3255
 3781TIP3    H232759   0.678   0.583  15.692 -1.3653 -0.8888 -0.4916
 3782TIP3   OH232760   4.078   1.609  15.093 -0.6334  0.4195  0.2279
 3782TIP3    H132761   4.068   1.607  15.188  1.1324  1.1117  0.4580
 3782TIP3    H232762   4.116   1.524  15.071 -1.1421  0.2183  0.1285
 3783TIP3   OH232763   1.151   4.063  12.214 -0.2448 -0.2113  0.4999
 3783TIP3    H132764   1.132   4.127  12.282 -1.5877  0.7851 -0.7715
 3783TIP3    H232765   1.065   4.038  12.180  0.4148 -0.2985 -1.1720
 3784TIP3   OH232766   2.610   1.158  11.596  0.3326  0.3300  0.4979
 3784TIP3    H132767   2.533   1.189  11.548 -1.1218 -2.3763  0.9515
 3784TIP3    H232768   2.579   1.146  11.686  1.8531  1.1853  1.1529
 3785TIP3   OH232769   5.043   6.497  13.115  0.1566 -0.2763 -0.2710
 3785TIP3    H132770   5.097   6.546  13.054 -0.2033  0.9894  0.4245
 3785TIP3    H232771   4.953   6.512  13.085 -0.0619  0.8082  0.8839
 3786TIP3   OH232772   0.753   6.595   1.009 -0.2477 -0.4184  0.1892
 3786TIP3    H132773   0.679   6.546   1.043  1.4080 -2.4089  1.0633
 3786TIP3    H232774   0.830   6.548   1.042  1.4031  0.1857 -2.6442
 3787TIP3   OH232775   1.782   2.818  12.298  0.1397  1.2423 -0.0166
 3787TIP3    H132776   1.761   2.763  12.223  0.4775  1.4365 -0.2534
 3787TIP3    H232777   1.699   2.859  12.321 -0.3587 -0.1664  0.8202
 3788TIP3   OH232778   6.231   1.608  15.821  0.9832 -0.0537  0.0711
 3788TIP3    H132779   6.206   1.524  15.859 -1.3340 -0.6975 -2.6764
 3788TIP3    H232780   6.253   1.663  15.897 -1.4512 -1.8759  2.2017
 3789TIP3   OH232781   1.191   0.269  11.702  0.2363 -0.6061  0.1912
 3789TIP3    H132782   1.153   0.248  11.787  1.6442 -0.6001  0.8351
 3789TIP3    H232783   1.119   0.309  11.653 -0.4540 -0.1382  1.5555
 3790TIP3   OH232784   6.329   3.719  13.969  0.3910 -0.0253 -0.2720
 3790TIP3    H132785   6.278   3.662  13.912  0.0994  1.0937 -1.1401
 3790TIP3    H232786   6.409   3.738  13.919  1.2286 -0.9751  0.6762
 3791TIP3   OH232787   2.164   5.722  15.345 -0.1263  0.1711 -0.0991
 3791TIP3    H132788   2.214   5.734  15.426 -1.2756 -0.2257  0.6774
 3791TIP3    H232789   2.186   5.633  15.317  0.7776  0.5374 -0.5891
 3792TIP3   OH232790   1.230   0.231   6.084  0.4310  0.5060 -0.0288
 3792TIP3    H132791   1.152   0.197   6.127  0.5989  0.0510 -0.0784
 3792TIP3    H232792   1.251   0.311   6.132  0.2321  0.3552  0.3165
 3793TIP3   OH232793   0.373   3.716  11.317 -0.7698  0.0685  0.5825
 3793TIP3    H132794   0.363   3.729  11.411  0.6236  0.3545  0.7099
 3793TIP3    H232795   0.290   3.744  11.279 -0.1273  3.3633  1.4292
 3794TIP3   OH232796   3.494   3.397   5.804 -0.2488  0.0943  0.0180
 3794TIP3    H132797   3.503   3.302   5.807 -1.9780 -0.1049 -0.9958
 3794TIP3    H232798   3.455   3.420   5.889  0.6345 -0.0177  0.4709
 3795TIP3   OH232799   6.283   0.786  13.982  0.0170 -0.4078  0.1739
 3795TIP3    H132800   6.276   0.820  14.071 -0.3971 -0.2099  0.0669
 3795TIP3    H232801   6.364   0.825  13.948  0.2863 -0.6428  0.5269
 3796TIP3   OH232802   0.631   0.852  16.068  0.4944  0.0680  0.0190
 3796TIP3    H132803   0.557   0.910  16.085  0.3948 -0.6072  2.0061
 3796TIP3    H232804   0.597   0.786  16.007  0.1077  1.0671 -0.8454
 3797TIP3   OH232805   2.029   4.936  16.484  0.1361 -0.6423  0.2147
 3797TIP3    H132806   1.960   4.943  16.551  0.1177 -1.1023  0.2438
 3797TIP3    H232807   2.060   4.846  16.490  0.3387 -0.6015 -0.1967
 3798TIP3   OH232808   0.950   2.423   2.344  0.3234  0.3234 -0.5236
 3798TIP3    H132809   0.957   2.493   2.409  0.5759 -0.1999  0.0208
 3798TIP3    H232810   1.040   2.397   2.326  0.2468  0.3797 -0.9825
 3799TIP3   OH232811   1.290   0.999   1.203 -0.6445 -0.1333  0.2780
 3799TIP3    H132812   1.232   0.942   1.153 -0.4313 -0.0813 -0.0354
 3799TIP3    H232813   1.233   1.064   1.242 -0.5743  1.3647 -1.9766
 3800TIP3   OH232814   4.489   4.624   6.322 -0.3034 -0.5192 -0.1149
 3800TIP3    H132815   4.573   4.666   6.340 -0.6596 -0.4428  1.5366
 3800TIP3    H232816   4.465   4.582   6.405 -1.5865 -1.0784 -0.7480
 3801TIP3   OH232817   1.203   2.668  16.236  0.3820  0.5479  0.7381
 3801TIP3    H132818   1.255   2.733  16.284 -0.7808  1.2145  1.1075
 3801TIP3    H232819   1.139   2.636  16.299  0.2038 -0.1230  0.2214
 3802TIP3   OH232820   4.358   1.597   5.696 -0.4756  0.0933 -0.1222
 3802TIP3    H132821   4.303   1.589   5.775  0.5613  0.2301  0.6306
 3802TIP3    H232822   4.342   1.686   5.665  1.3685  1.1244  1.6889
 3803TIP3   OH232823   5.393   1.742   1.705 -0.3213  0.0176  0.4195
 3803TIP3    H132824   5.299   1.752   1.687 -0.2986 -2.0341 -1.0212
 3803TIP3    H232825   5.436   1.792   1.637 -0.3573  0.0774  0.4404
 3804TIP3   OH232826   4.858   0.390  16.669 -0.1125 -0.7570  0.0342
 3804TIP3    H132827   4.872   0.324  16.601 -1.7340 -1.1501  0.0552
 3804TIP3    H232828   4.837   0.470  16.621  2.0849 -0.1757  0.0004
 3805TIP3   OH232829   0.531   5.316   1.290 -0.3115  0.4615  0.2596
 3805TIP3    H132830   0.542   5.250   1.221 -0.2301  1.6353 -0.8490
 3805TIP3    H232831   0.619   5.328   1.326 -0.5505 -1.0336  1.4101
 3806TIP3   OH232832   0.850   6.726   3.421  0.4230 -0.3549 -0.9999
 3806TIP3    H132833   0.897   6.748   3.341  3.3305 -1.4158  0.3479
 3806TIP3    H232834   0.866   6.632   3.433 -1.3447 -0.5601 -0.0223
 3807TIP3   OH232835   3.938   3.298   5.558  0.2118  0.1853  0.0778
 3807TIP3    H132836   3.955   3.353   5.635  0.4314  0.5251 -0.2116
 3807TIP3    H232837   4.022   3.294   5.512 -0.4294  1.8133 -1.3091
 3808TIP3   OH232838   0.265   5.329   2.764 -0.2775 -0.3237 -0.1267
 3808TIP3    H132839   0.200   5.359   2.828 -0.5749 -1.2917  0.0228
 3808TIP3    H232840   0.259   5.393   2.693 -0.4442  0.3516  0.4836
 3809TIP3   OH232841   3.632   2.425  11.851  0.4057  0.1115 -0.1326
 3809TIP3    H132842   3.570   2.362  11.814 -0.9729  1.2226  0.2079
 3809TIP3    H232843   3.609   2.429  11.944  2.7366 -1.4142  0.5420
 3810TIP3   OH232844   2.816   1.598   3.468  0.1358  0.5115  0.2888
 3810TIP3    H132845   2.905   1.577   3.496  0.4396  1.2497 -0.1313
 3810TIP3    H232846   2.762   1.532   3.511  1.0199 -0.7361 -0.4823
 3811TIP3   OH232847   0.612   4.786   5.659 -0.0223 -0.0890  0.1573
 3811TIP3    H132848   0.615   4.836   5.578 -2.2780 -1.9816 -1.1319
 3811TIP3    H232849   0.700   4.748   5.667  0.1685 -0.0076 -1.4663
 3812TIP3   OH232850   0.050   5.474  13.880  0.3888 -0.0625  0.4092
 3812TIP3    H132851   0.036   5.502  13.971  0.7770  1.7001 -0.0593
 3812TIP3    H232852   0.142   5.447  13.878 -0.4120 -3.1106  1.2770
 3813TIP3   OH232853   2.015   5.177  12.660  0.3446  0.3150 -0.1199
 3813TIP3    H132854   2.013   5.241  12.731  1.4052 -0.9198  1.0553
 3813TIP3    H232855   2.102   5.184  12.623  0.5900 -0.6586  0.2430
 3814TIP3   OH232856   0.731   4.569   1.508 -0.5676 -0.3335  0.3028
 3814TIP3    H132857   0.811   4.608   1.472 -0.5328 -1.6430 -1.1288
 3814TIP3    H232858   0.744   4.571   1.603 -0.4910  2.8652  0.2673
 3815TIP3   OH232859   5.995   3.302  13.521 -0.1535  0.6079  0.3308
 3815TIP3    H132860   5.975   3.240  13.451  0.2027 -0.1852  0.9299
 3815TIP3    H232861   6.088   3.323  13.509  0.8185 -2.1423  2.5928
 3816TIP3   OH232862   6.673   1.686   2.801  0.5231 -0.1457 -0.0167
 3816TIP3    H132863   6.640   1.631   2.871  1.3127 -1.6790 -0.8287
 3816TIP3    H232864   6.740   1.740   2.842 -0.8460  0.8676  0.9719
 3817TIP3   OH232865   4.726   6.435   1.745 -0.4502 -0.0575  0.0784
 3817TIP3    H132866   4.689   6.381   1.675  2.4625 -1.7360 -0.2240
 3817TIP3    H232867   4.787   6.494   1.700  1.0096 -0.7540  1.1018
 3818TIP3   OH232868   2.477   0.121   1.524 -0.1531  0.1758  0.3526
 3818TIP3    H132869   2.428   0.166   1.592  0.0787  1.2589 -0.1984
 3818TIP3    H232870   2.514   0.190   1.470  2.0165 -0.6324  0.7676
 3819TIP3   OH232871   3.402   0.024   4.277  0.8418 -0.0642 -0.3369
 3819TIP3    H132872   3.494   0.018   4.304  1.1839 -0.4032 -1.5501
 3819TIP3    H232873   3.403   0.003   4.184 -0.3723  0.7369 -0.5348
 3820TIP3   OH232874   4.630   0.853   4.686  0.5707 -0.2244 -0.1704
 3820TIP3    H132875   4.672   0.821   4.606 -0.1954  0.0367 -0.6793
 3820TIP3    H232876   4.693   0.914   4.723  0.5256  0.3830 -1.0877
 3821TIP3   OH232877   1.355   1.867  11.313 -0.1490  0.4316 -0.3658
 3821TIP3    H132878   1.354   1.907  11.400  0.0431 -2.2743  0.9253
 3821TIP3    H232879   1.446   1.843  11.299 -0.2079  0.7319 -1.2465
 3822TIP3   OH232880   6.585   4.442   2.133  0.6140  0.6124 -0.3013
 3822TIP3    H132881   6.621   4.368   2.084  2.0856  0.5581  0.8504
 3822TIP3    H232882   6.498   4.455   2.094  0.8510 -0.8692 -1.4003
 3823TIP3   OH232883   6.410   6.656   2.299  0.0279  0.4300 -0.0287
 3823TIP3    H132884   6.505   6.659   2.310  0.1802 -0.5702 -0.9969
 3823TIP3    H232885   6.376   6.636   2.386  0.7627 -0.0353  0.1568
 3824TIP3   OH232886   2.745   5.838   1.565 -0.7602  0.1181 -0.3878
 3824TIP3    H132887   2.781   5.755   1.533 -0.7557  0.6263 -1.7335
 3824TIP3    H232888   2.697   5.814   1.643  0.9594 -0.8562  0.4126
 3825TIP3   OH232889   4.417   0.914  13.134  0.4760 -0.0732  1.4102
 3825TIP3    H132890   4.476   0.869  13.073 -0.6047 -0.5368  0.6944
 3825TIP3    H232891   4.385   0.845  13.192 -1.8888 -0.4465 -0.2537
 3826TIP3   OH232892   2.184   4.012   5.566  0.0229 -0.1483  0.2483
 3826TIP3    H132893   2.161   3.939   5.624 -1.0081 -1.4563 -1.7238
 3826TIP3    H232894   2.256   4.056   5.610 -0.2909 -1.5076  2.1892
 3827TIP3   OH232895   3.289   4.946   6.701 -0.1379 -0.5913 -0.2008
 3827TIP3    H132896   3.347   4.929   6.626  1.0224  0.9966  0.3007
 3827TIP3    H232897   3.214   4.991   6.663  0.0636 -0.5233 -0.5238
 3828TIP3   OH232898   4.595   3.697  15.977 -0.1731 -0.3581  0.0305
 3828TIP3    H132899   4.523   3.663  16.029  0.4175 -0.4702  0.7843
 3828TIP3    H232900   4.663   3.720  16.041 -0.7162  2.7040 -0.3906
 3829TIP3   OH232901   0.596   1.435   4.038  0.2101  0.6369 -0.1497
 3829TIP3    H132902   0.544   1.378   4.095  1.7759  1.4825  2.1970
 3829TIP3    H232903   0.592   1.521   4.081  0.6064  1.5265 -1.8598
 3830TIP3   OH232904   2.613   4.813  16.356 -0.0138  0.4362  0.2055
 3830TIP3    H132905   2.543   4.863  16.314 -0.3345 -0.6142 -0.5630
 3830TIP3    H232906   2.587   4.808  16.448 -0.9772  0.0468 -0.0707
 3831TIP3   OH232907   1.927   1.512  13.063  0.1621  0.3425 -0.1030
 3831TIP3    H132908   1.936   1.523  12.968 -0.8774 -1.3818 -0.4129
 3831TIP3    H232909   2.000   1.562  13.099  2.1066 -1.0644 -1.9212
 3832TIP3   OH232910   1.746   3.653   3.430 -0.2338  0.1655  0.0730
 3832TIP3    H132911   1.749   3.746   3.454  0.8367 -0.3170  1.9249
 3832TIP3    H232912   1.831   3.636   3.390 -0.6272  0.1029 -0.7365
 3833TIP3   OH232913   3.135   3.693   6.766 -0.2866 -0.1113  0.6789
 3833TIP3    H132914   3.049   3.734   6.765  0.3986  1.3859  1.4589
 3833TIP3    H232915   3.126   3.618   6.826 -1.6261 -1.3199 -1.0002
 3834TIP3   OH232916   2.781   1.881   1.360  0.2064  0.0952  0.1833
 3834TIP3    H132917   2.759   1.930   1.280 -0.0440 -0.1834  0.0818
 3834TIP3    H232918   2.710   1.902   1.421 -0.6094 -1.1778 -0.3029
 3835TIP3   OH232919   1.617   5.031  17.003 -0.2463 -0.7173  0.1628
 3835TIP3    H132920   1.663   5.053  16.922  0.2582 -1.9830  0.0966
 3835TIP3    H232921   1.634   5.105  17.061 -2.0548  1.0320 -1.4658
 3836TIP3   OH232922   6.030   0.355   2.119 -0.0731  0.4796 -0.0937
 3836TIP3    H132923   6.028   0.321   2.030 -0.0384  1.3015 -0.4138
 3836TIP3    H232924   5.942   0.391   2.132  0.1949  1.1522 -0.1156
 3837TIP3   OH232925   1.133   4.836  16.928 -0.2488  0.2575 -0.4596
 3837TIP3    H132926   1.176   4.834  17.013 -0.5861  0.8568 -0.2698
 3837TIP3    H232927   1.070   4.764  16.930  0.4056 -0.3145 -0.5533
 3838TIP3   OH232928   4.405   4.854  12.401 -0.1260  0.1692 -0.2588
 3838TIP3    H132929   4.341   4.921  12.424  1.3891  0.8883  2.0202
 3838TIP3    H232930   4.451   4.890  12.325 -2.2859 -0.3128 -1.8472
 3839TIP3   OH232931   5.930   6.376   4.664 -0.0118  0.8499 -0.3128
 3839TIP3    H132932   5.967   6.407   4.746  0.9508  0.7419 -0.7012
 3839TIP3    H232933   5.874   6.448   4.634 -0.3973  0.8715  0.4496
 3840TIP3   OH232934   0.431   5.440  14.074 -0.0980  0.0422  0.6122
 3840TIP3    H132935   0.415   5.489  14.154 -0.5964  0.2758  0.3729
 3840TIP3    H232936   0.361   5.375  14.071 -0.0661  0.0172  0.3792
 3841TIP3   OH232937   0.883   6.045   0.548 -0.0600 -0.5014 -0.7214
 3841TIP3    H132938   0.824   6.013   0.617 -1.4063  1.0184 -1.1295
 3841TIP3    H232939   0.970   6.041   0.587 -0.6932 -0.6403  0.7147
 3842TIP3   OH232940   5.844   3.738   2.000  0.6852  0.2412  0.9137
 3842TIP3    H132941   5.761   3.737   2.046 -0.6136  0.5136 -1.3330
 3842TIP3    H232942   5.842   3.660   1.944  0.3783  2.0477 -1.7230
 3843TIP3   OH232943   1.518   6.517  15.894 -0.0995 -0.2479  0.2252
 3843TIP3    H132944   1.545   6.530  15.803  0.8870  0.4380  0.6089
 3843TIP3    H232945   1.457   6.589  15.912  0.8801  0.5066  0.5669
 3844TIP3   OH232946   3.483   6.660  11.533  0.4279  0.1363  0.4124
 3844TIP3    H132947   3.559   6.693  11.581  0.2771 -1.3438  1.7086
 3844TIP3    H232948   3.519   6.600  11.468  0.4776  0.5945  0.0149
 3845TIP3   OH232949   5.181   4.814   2.375  0.0533 -0.5721 -0.2102
 3845TIP3    H132950   5.107   4.755   2.364 -0.9121  0.8926 -1.9073
 3845TIP3    H232951   5.151   4.878   2.439  0.4330 -0.8841  0.2785
 3846TIP3   OH232952   4.226   5.240   4.003  0.0238 -0.0257 -0.5167
 3846TIP3    H132953   4.310   5.230   3.959 -0.8862 -1.0310 -2.1064
 3846TIP3    H232954   4.169   5.175   3.961 -1.3858  0.2190  0.9376
 3847TIP3   OH232955   4.798   0.072  15.322 -0.4163 -0.1505  0.1688
 3847TIP3    H132956   4.866   0.042  15.382  1.3921 -0.4723 -1.9593
 3847TIP3    H232957   4.715   0.044  15.362  0.8563 -1.9991  1.5462
 3848TIP3   OH232958   2.743   0.928  13.948  0.4915  0.0906 -0.8571
 3848TIP3    H132959   2.836   0.929  13.925  0.5350  0.9471 -0.6578
 3848TIP3    H232960   2.709   0.849  13.906  1.8499 -1.6486  1.1748
 3849TIP3   OH232961   2.593   0.913  11.449  0.0447 -0.5231 -0.5489
 3849TIP3    H132962   2.589   0.967  11.528 -0.2304  0.4313 -1.2073
 3849TIP3    H232963   2.505   0.877  11.440  0.2903 -1.2808  0.0217
 3850TIP3   OH232964   0.575   5.678   1.447  0.4130  0.3348 -0.5301
 3850TIP3    H132965   0.501   5.716   1.400 -1.4669 -3.3296 -0.6857
 3850TIP3    H232966   0.637   5.655   1.378 -0.9215 -2.0137 -0.9929
 3851TIP3   OH232967   0.567   0.966   2.133  0.7576 -0.4100  0.1745
 3851TIP3    H132968   0.483   0.943   2.173  0.6004 -0.4356 -0.1693
 3851TIP3    H232969   0.617   1.007   2.203  0.8226 -1.2852  0.6490
 3852TIP3   OH232970   0.726   2.262  14.856 -0.4810  0.5000  0.0372
 3852TIP3    H132971   0.701   2.355  14.860 -0.9600  0.4097 -0.9376
 3852TIP3    H232972   0.807   2.261  14.807 -0.6096  0.3737 -0.1712
 3853TIP3   OH232973   4.058   4.429   3.920  0.7994 -0.0707  0.3325
 3853TIP3    H132974   4.082   4.350   3.870  0.0248 -0.7489  1.0251
 3853TIP3    H232975   3.966   4.416   3.943  0.4820  1.3333 -0.0907
 3854TIP3   OH232976   1.291   2.807   5.974  0.2256 -0.1205 -0.5391
 3854TIP3    H132977   1.292   2.751   5.895  0.0841  0.2365 -0.7943
 3854TIP3    H232978   1.248   2.887   5.946 -0.5382 -0.2925  0.1139
 3855TIP3   OH232979   0.670   4.895  11.688 -0.3539 -0.0608  0.3631
 3855TIP3    H132980   0.589   4.864  11.648  0.2640  0.8945 -1.6570
 3855TIP3    H232981   0.735   4.828  11.665 -0.1353  0.1516  0.3667
 3856TIP3   OH232982   1.992   4.112   2.191  0.6139  0.1788  0.8692
 3856TIP3    H132983   1.999   4.192   2.243  2.4400 -0.4294  1.5935
 3856TIP3    H232984   2.020   4.138   2.103 -0.3768  0.6992  0.6982
 3857TIP3   OH232985   4.959   1.731   6.502  0.0841  0.4496 -0.3212
 3857TIP3    H132986   4.996   1.790   6.568  1.8247 -1.5387  0.5438
 3857TIP3    H232987   4.993   1.764   6.419  3.2573 -0.8366  0.3945
 3858TIP3   OH232988   6.284   4.289  16.131  0.5959 -0.2379 -0.5665
 3858TIP3    H132989   6.234   4.235  16.071 -0.2414  0.1186 -0.1888
 3858TIP3    H232990   6.302   4.232  16.205  0.6271 -0.3248 -0.6395
 3859TIP3   OH232991   1.373   4.898   2.915  0.0354 -0.3718 -0.5999
 3859TIP3    H132992   1.433   4.954   2.963  0.4076 -1.3267  0.0646
 3859TIP3    H232993   1.404   4.899   2.825  0.8505 -0.5971 -0.3205
 3860TIP3   OH232994   3.490   3.282   6.542  0.5062 -0.3762  0.5939
 3860TIP3    H132995   3.473   3.375   6.557  0.2750 -0.3755  0.3292
 3860TIP3    H232996   3.429   3.258   6.472 -0.1298 -0.9581  1.3341
 3861TIP3   OH232997   0.992   0.369   2.533  0.1471  0.0821  0.4732
 3861TIP3    H132998   0.932   0.442   2.518 -0.2034 -0.0164  1.3587
 3861TIP3    H232999   1.023   0.381   2.623  1.5506  0.1898 -0.0052
 3862TIP3   OH233000   2.955   1.844   3.444  0.2762 -0.5725  0.1062
 3862TIP3    H133001   2.937   1.829   3.537  0.3801  2.7249  0.7281
 3862TIP3    H233002   2.918   1.768   3.400  0.8919 -2.5553  2.9003
 3863TIP3   OH233003   2.382   3.092   2.702 -0.3169 -0.4581 -0.5815
 3863TIP3    H133004   2.456   3.064   2.755 -0.3901  0.6743  0.1352
 3863TIP3    H233005   2.421   3.148   2.635 -0.3144 -1.2841 -1.2736
 3864TIP3   OH233006   1.301   4.129  11.893  0.3026  0.4492  0.3602
 3864TIP3    H133007   1.358   4.126  11.970 -1.5419 -1.7016  1.7227
 3864TIP3    H233008   1.255   4.212  11.900  2.1046  1.4912  0.0918
 3865TIP3   OH233009   1.644   3.450   4.323 -0.5081 -0.2195 -0.4285
 3865TIP3    H133010   1.583   3.425   4.393  0.1390  0.5312  0.4146
 3865TIP3    H233011   1.731   3.434   4.359 -0.1746 -0.1910 -1.2029
 3866TIP3   OH233012   0.053   2.812  15.054  0.1486 -0.3269 -0.1787
 3866TIP3    H133013   0.141   2.844  15.033  0.2783  0.0503  0.8861
 3866TIP3    H233014   0.039   2.740  14.993  1.7122 -1.2445  0.5066
 3867TIP3   OH233015   3.643   3.591   0.411 -0.1544 -0.2155 -0.8037
 3867TIP3    H133016   3.728   3.584   0.367 -0.4959  0.8339 -1.6527
 3867TIP3    H233017   3.654   3.664   0.473 -0.0117 -0.9797  0.0727
 3868TIP3   OH233018   1.704   6.624   1.374  0.2331  0.2361  0.4989
 3868TIP3    H133019   1.636   6.571   1.416  1.1086 -1.3885 -0.0547
 3868TIP3    H233020   1.784   6.604   1.423  0.8105  0.0701 -0.4832
 3869TIP3   OH233021   5.370   0.522   0.368 -0.0784 -0.1872  0.5368
 3869TIP3    H133022   5.343   0.443   0.414  2.3732 -1.7905 -0.7141
 3869TIP3    H233023   5.459   0.540   0.400  0.3642  0.5905 -1.0843
 3870TIP3   OH233024   4.629   2.594  10.824 -0.0952 -0.0992  0.1983
 3870TIP3    H133025   4.551   2.602  10.770 -0.0413  0.2702  0.1759
 3870TIP3    H233026   4.644   2.682  10.859  0.7307 -0.0021 -0.3767
 3871TIP3   OH233027   4.155   5.304   4.619  0.3638  0.2929  0.0367
 3871TIP3    H133028   4.157   5.362   4.695 -0.4072  0.2587  0.0957
 3871TIP3    H233029   4.161   5.364   4.544  0.0689  0.4143  0.1069
 3872TIP3   OH233030   5.368   1.449  17.151  0.3677 -0.0209 -0.6417
 3872TIP3    H133031   5.357   1.366  17.197 -0.9477  0.2471 -0.4461
 3872TIP3    H233032   5.346   1.430  17.060 -3.2352  0.8142 -0.0041
 3873TIP3   OH233033   6.153   4.092   1.787 -0.4520  0.2808 -0.2175
 3873TIP3    H133034   6.206   4.031   1.736 -1.5980 -0.7879 -0.1559
 3873TIP3    H233035   6.075   4.042   1.811 -0.9387  1.4538  0.7127
 3874TIP3   OH233036   1.437   3.859  14.188  0.0581 -0.3220  0.4250
 3874TIP3    H133037   1.378   3.823  14.254  0.3521 -2.7632 -0.6209
 3874TIP3    H233038   1.429   3.800  14.113  1.1624  1.3358 -1.0462
 3875TIP3   OH233039   2.972   0.769  15.943  0.1141  0.1798 -0.4774
 3875TIP3    H133040   3.031   0.698  15.968  0.1516 -0.1640 -1.5445
 3875TIP3    H233041   3.030   0.844  15.928 -0.0165  0.7619  1.7326
 3876TIP3   OH233042   5.264   5.700   0.509 -0.4911 -0.4692  0.6788
 3876TIP3    H133043   5.308   5.615   0.505  0.2072 -0.1392  1.2223
 3876TIP3    H233044   5.335   5.763   0.522 -0.9702  0.2399 -0.1058
 3877TIP3   OH233045   6.305   2.532  15.660 -0.0296  0.1835  0.4099
 3877TIP3    H133046   6.330   2.620  15.631  0.1912 -0.0748 -0.2030
 3877TIP3    H233047   6.309   2.479  15.580 -0.1481 -0.3852  0.7789
 3878TIP3   OH233048   6.094   1.780  14.747  0.3427 -0.1125 -0.6169
 3878TIP3    H133049   6.156   1.840  14.788 -0.3678  2.1458 -2.7538
 3878TIP3    H233050   6.033   1.837  14.701  0.0459 -2.5079 -3.2871
 3879TIP3   OH233051   4.963   6.124   0.416  0.0599  0.4165  0.1122
 3879TIP3    H133052   5.015   6.198   0.448 -0.1786  0.4744  0.3687
 3879TIP3    H233053   4.877   6.137   0.454  0.2935 -0.5484  1.0077
 3880TIP3   OH233054   4.806   1.990   3.673 -0.0584  0.6518 -0.2829
 3880TIP3    H133055   4.842   2.047   3.740 -1.4955 -0.7750  1.7839
 3880TIP3    H233056   4.722   2.030   3.650 -1.6876 -1.2771  2.1394
 3881TIP3   OH233057   3.029   6.005   5.415 -0.2258 -0.1046  0.2494
 3881TIP3    H133058   3.012   5.973   5.504  0.3172 -1.0784  0.0011
 3881TIP3    H233059   3.021   5.928   5.360  1.0619  0.1840 -0.3556
 3882TIP3   OH233060   6.577   1.153   0.216 -0.4603  0.1215  0.2468
 3882TIP3    H133061   6.614   1.066   0.233 -0.5944 -0.2983 -1.5411
 3882TIP3    H233062   6.648   1.203   0.177 -0.4201  0.7934  1.1667
 3883TIP3   OH233063   4.695   5.352   1.871 -0.0253 -0.0488 -0.0752
 3883TIP3    H133064   4.730   5.331   1.957  2.2444 -0.9839 -1.1938
 3883TIP3    H233065   4.653   5.272   1.842 -0.2717  0.0857 -0.0946
 3884TIP3   OH233066   0.881   6.338  13.404 -0.0490 -0.5178 -0.1275
 3884TIP3    H133067   0.866   6.263  13.346  0.4862 -0.0817 -0.8354
 3884TIP3    H233068   0.926   6.300  13.479  0.6787 -0.8390 -0.7103
 3885TIP3   OH233069   5.402   6.639  17.097 -0.5086  0.0340  0.2560
 3885TIP3    H133070   5.444   6.627  17.181  1.3537  2.8992 -0.2130
 3885TIP3    H233071   5.334   6.705  17.113 -1.3114 -0.6814 -0.1374
 3886TIP3   OH233072   0.246   3.119   0.173 -0.3415  0.1111  0.2944
 3886TIP3    H133073   0.192   3.196   0.193 -1.2509 -0.9937  2.2104
 3886TIP3    H233074   0.272   3.085   0.259  0.2812 -1.5691 -0.5432
 3887TIP3   OH233075   1.059   5.388   3.489 -0.9141  0.1477 -0.4913
 3887TIP3    H133076   0.965   5.405   3.481 -0.7422  0.5852 -1.7040
 3887TIP3    H233077   1.066   5.292   3.488 -1.4109  0.1033  0.3835
 3888TIP3   OH233078   4.072   2.089  10.942  0.0161  1.1212  0.1373
 3888TIP3    H133079   4.160   2.078  10.977 -0.5122  0.4728  1.2907
 3888TIP3    H233080   4.016   2.040  11.002 -1.0848  1.2008 -0.8067
 3889TIP3   OH233081   5.570   0.966  14.818 -0.2191 -0.2334 -0.0093
 3889TIP3    H133082   5.617   1.043  14.785 -0.9772  0.3463  0.2509
 3889TIP3    H233083   5.478   0.984  14.797 -0.4985 -0.6712  0.8460
 3890TIP3   OH233084   3.844   0.481   2.323 -0.1501  0.3143 -0.5169
 3890TIP3    H133085   3.927   0.434   2.314  0.6686  1.6813 -0.2350
 3890TIP3    H233086   3.778   0.412   2.333  0.7752 -0.8351 -2.0355
 3891TIP3   OH233087   3.320   6.710   2.540 -0.3388 -0.1694  0.1886
 3891TIP3    H133088   3.381   6.713   2.466 -0.4536  1.8425  0.1621
 3891TIP3    H233089   3.376   6.719   2.617 -0.2433 -2.0556  0.3715
 3892TIP3   OH233090   3.298   5.215  10.957  0.5930 -0.3202 -0.3583
 3892TIP3    H133091   3.385   5.178  10.969  1.2068  0.5786 -1.8768
 3892TIP3    H233092   3.294   5.238  10.864 -1.0543  0.1581 -0.1870
 3893TIP3   OH233093   1.529   4.348  10.872 -0.3741 -0.0116  0.1433
 3893TIP3    H133094   1.462   4.356  10.804 -1.6381  1.0988  1.4581
 3893TIP3    H233095   1.532   4.255  10.893 -2.7017  0.0989  1.1764
 3894TIP3   OH233096   5.529   3.904  15.019 -0.3502 -0.4575  0.3526
 3894TIP3    H133097   5.438   3.928  15.004 -0.0175  0.3125 -0.4612
 3894TIP3    H233098   5.530   3.866  15.107 -1.0914  1.3789  1.1720
 3895TIP3   OH233099   6.468   1.912  13.160  0.2086  0.2089 -0.2989
 3895TIP3    H133100   6.436   1.822  13.158  0.9224 -0.0377 -1.4887
 3895TIP3    H233101   6.562   1.904  13.176  0.4248  0.6867 -1.2765
 3896TIP3   OH233102   3.245   1.415  14.675  0.2116 -0.3107  0.5077
 3896TIP3    H133103   3.335   1.405  14.707 -0.1478 -2.2735  0.9935
 3896TIP3    H233104   3.228   1.509  14.680  2.2547  0.0980  0.3464
 3897TIP3   OH233105   5.219   2.701   1.374  0.0015  0.2108 -0.1997
 3897TIP3    H133106   5.281   2.705   1.301  0.6473  0.5152  0.3562
 3897TIP3    H233107   5.273   2.675   1.449 -0.5391  0.5112  0.2942
 3898TIP3   OH233108   6.237   0.545   0.679  0.3434 -0.1661  0.1233
 3898TIP3    H133109   6.160   0.596   0.654  1.2078  0.9530 -0.2830
 3898TIP3    H233110   6.289   0.605   0.733  0.0336 -1.5230  1.9649
 3899TIP3   OH233111   5.933   1.152  15.907  0.2581 -0.3802 -0.7413
 3899TIP3    H133112   5.896   1.140  15.995  0.6888  0.7120 -0.4057
 3899TIP3    H233113   5.887   1.227  15.871  0.9880 -0.0269 -0.9543
 3900TIP3   OH233114   6.756   4.429  13.233  0.2275 -0.1866 -0.3555
 3900TIP3    H133115   6.673   4.387  13.211  1.3185 -1.2202 -2.7654
 3900TIP3    H233116   6.752   4.514  13.189  0.1969  0.0029  0.0186
 3901TIP3   OH233117   0.555   5.171  13.871  0.3070  0.1174  0.5564
 3901TIP3    H133118   0.632   5.199  13.922  0.6994 -0.4986  0.3088
 3901TIP3    H233119   0.497   5.247  13.872  0.8773  0.5564  0.8283
 3902TIP3   OH233120   1.520   0.587   2.390  0.0540 -0.1321 -0.8077
 3902TIP3    H133121   1.448   0.538   2.351  0.9050 -2.0125 -0.0676
 3902TIP3    H233122   1.572   0.618   2.316  0.8172 -2.3787 -1.2286
 3903TIP3   OH233123   2.885   2.575  12.085 -0.5952 -0.3425  0.4269
 3903TIP3    H133124   2.837   2.652  12.055 -0.6653 -0.3742  0.4578
 3903TIP3    H233125   2.818   2.513  12.114 -0.5706 -0.7633 -0.4210
 3904TIP3   OH233126   0.691   1.508  15.650 -0.3586  0.0813 -0.3619
 3904TIP3    H133127   0.613   1.564  15.646  1.2222  2.5459  1.7724
 3904TIP3    H233128   0.710   1.501  15.743  2.3118 -0.0263 -0.8949
 3905TIP3   OH233129   6.192   1.015   2.810  0.1952  0.3930 -0.4216
 3905TIP3    H133130   6.245   0.962   2.869 -1.0754  0.4291  0.7726
 3905TIP3    H233131   6.150   0.952   2.751 -0.3321  0.1570  0.1969
 3906TIP3   OH233132   1.087   5.919  11.850 -0.4519  0.5785  0.0289
 3906TIP3    H133133   1.116   5.846  11.796 -1.2972 -2.3208  3.3464
 3906TIP3    H233134   0.994   5.929  11.830 -0.7092 -0.3411  0.7398
 3907TIP3   OH233135   4.228   1.035  14.373  0.4080  0.5396  0.1141
 3907TIP3    H133136   4.213   1.077  14.458 -1.1561  0.2084  0.0187
 3907TIP3    H233137   4.293   1.091  14.330  0.2010  1.4804  0.9869
 3908TIP3   OH233138   4.570   0.988   2.985  0.3091  0.2316  0.5203
 3908TIP3    H133139   4.639   0.922   2.991  0.6586  0.5915  0.4860
 3908TIP3    H233140   4.510   0.967   3.057 -0.2185 -0.8470 -0.2108
 3909TIP3   OH233141   3.296   1.553  17.013 -0.0801  0.0570  0.1119
 3909TIP3    H133142   3.261   1.520  17.096 -0.3115  0.0871  0.0251
 3909TIP3    H233143   3.370   1.494  16.994  0.2161  0.2873  0.5335
 3910TIP3   OH233144   2.623   6.625   3.333  0.0081 -0.1255 -0.0538
 3910TIP3    H133145   2.672   6.654   3.410 -1.2350 -1.0995  1.1351
 3910TIP3    H233146   2.682   6.564   3.289  1.1115  1.1983 -0.4273
 3911TIP3   OH233147   5.510   3.217   5.499 -0.1553 -0.0403  0.4253
 3911TIP3    H133148   5.546   3.305   5.496  3.6037 -1.5140 -0.3202
 3911TIP3    H233149   5.460   3.209   5.417  0.6014  0.9543 -0.1461
 3912TIP3   OH233150   5.389   1.433  13.137  0.4579 -0.0578 -0.4781
 3912TIP3    H133151   5.446   1.498  13.177 -0.9711  0.9788 -0.0505
 3912TIP3    H233152   5.373   1.368  13.206 -0.3005  0.6042 -0.0179
 3913TIP3   OH233153   5.780   2.819   6.346 -0.2474  0.2474  0.2267
 3913TIP3    H133154   5.811   2.758   6.413  1.3697 -0.2696 -0.9537
 3913TIP3    H233155   5.713   2.871   6.389 -1.2296 -1.9683  1.4509
 3914TIP3   OH233156   2.971   4.943  16.897  0.4069 -0.0729 -0.1601
 3914TIP3    H133157   2.988   4.894  16.817 -0.4523  1.5100 -1.3216
 3914TIP3    H233158   2.964   4.876  16.965  1.0610 -1.4274 -1.4044
 3915TIP3   OH233159   5.206   5.831  11.975  0.2151  0.3570 -0.1060
 3915TIP3    H133160   5.234   5.849  11.885 -1.2461 -0.1410 -0.6717
 3915TIP3    H233161   5.164   5.913  12.003 -0.2274  0.1736 -0.2338
 3916TIP3   OH233162   4.876   6.744   3.507  0.2015  0.0001  0.4049
 3916TIP3    H133163   4.901   6.659   3.543  0.3592 -0.1424 -0.0356
 3916TIP3    H233164   4.955   6.774   3.461 -0.5110 -0.5495 -1.1944
 3917TIP3   OH233165   4.382   0.253  15.790  0.1548 -1.0007  0.6974
 3917TIP3    H133166   4.343   0.198  15.858  2.4936 -1.7481  1.4899
 3917TIP3    H233167   4.417   0.328  15.837 -0.4340 -0.2691 -0.0229
 3918TIP3   OH233168   2.878   5.573   1.184 -0.2925  0.9636 -0.0900
 3918TIP3    H133169   2.885   5.618   1.268  3.3745  1.2897 -0.4628
 3918TIP3    H233170   2.908   5.484   1.203  2.6262  1.6081 -1.3958
 3919TIP3   OH233171   3.038   1.763  13.010  0.2275 -0.1694  0.0792
 3919TIP3    H133172   3.045   1.686  13.066 -1.4424  0.9723  1.9048
 3919TIP3    H233173   2.966   1.743  12.949 -1.2002  0.5168  1.5166
 3920TIP3   OH233174   3.793   5.807   6.312 -0.0577 -0.5827  0.7946
 3920TIP3    H133175   3.858   5.749   6.273  0.8300 -0.2004  1.7010
 3920TIP3    H233176   3.724   5.748   6.344  1.2229 -1.2086  2.4365
 3921TIP3   OH233177   1.197   2.676   2.776 -0.2359  0.0554 -0.1651
 3921TIP3    H133178   1.129   2.738   2.803 -1.2426 -0.3580 -1.7127
 3921TIP3    H233179   1.191   2.604   2.838 -1.6385 -0.2697 -0.6688
 3922TIP3   OH233180   2.589   1.932   4.489 -0.0729 -0.0394 -0.5624
 3922TIP3    H133181   2.603   2.011   4.542  1.2091  0.9397 -2.2838
 3922TIP3    H233182   2.674   1.915   4.449 -0.9400 -0.9341 -2.0504
 3923TIP3   OH233183   5.838   3.247   0.174  0.8730 -0.2859 -0.3753
 3923TIP3    H133184   5.923   3.260   0.132  1.1451 -0.5327  0.0829
 3923TIP3    H233185   5.800   3.173   0.127  0.6174  0.2620 -1.0264
 3924TIP3   OH233186   6.201   5.897  14.493 -1.1323  0.2852 -0.4151
 3924TIP3    H133187   6.282   5.846  14.483 -0.2402  1.7146 -0.6416
 3924TIP3    H233188   6.167   5.871  14.579  2.1871  3.2590  1.9259
 3925TIP3   OH233189   4.791   5.987  13.429  0.0844  0.1474  0.4381
 3925TIP3    H133190   4.729   5.923  13.465 -2.3896  1.8229 -0.6886
 3925TIP3    H233191   4.834   5.942  13.357 -1.0738 -0.4888  0.1440
 3926TIP3   OH233192   0.328   3.119   3.644 -0.4187 -0.2508 -0.2347
 3926TIP3    H133193   0.315   3.130   3.550 -1.2099 -1.2713 -0.2536
 3926TIP3    H233194   0.377   3.037   3.653 -0.7773 -0.4222  0.2537
 3927TIP3   OH233195   4.425   0.401   2.080  0.5482 -0.0846  0.0945
 3927TIP3    H133196   4.348   0.412   2.024  0.1023  0.0354  0.7278
 3927TIP3    H233197   4.424   0.478   2.136  1.3964  0.1485 -0.2113
 3928TIP3   OH233198   3.175   3.002   5.663  0.3995  0.1002  0.2015
 3928TIP3    H133199   3.161   2.962   5.749 -0.0193 -1.2888 -0.4934
 3928TIP3    H233200   3.205   2.929   5.608 -2.7139  0.1890 -1.7032
 3929TIP3   OH233201   0.205   0.837   0.944 -0.5774 -0.2376 -0.1437
 3929TIP3    H133202   0.275   0.772   0.946  0.1456  0.5179 -0.6154
 3929TIP3    H233203   0.236   0.908   0.999 -0.7076  0.3630 -0.8410
 3930TIP3   OH233204   1.319   4.714  14.857  0.2189  0.4072 -0.2237
 3930TIP3    H133205   1.400   4.764  14.847 -1.0686  2.4478 -0.8148
 3930TIP3    H233206   1.263   4.770  14.911 -1.4911 -0.1265 -1.4048
 3931TIP3   OH233207   2.892   1.106   0.017 -0.6392  0.1827  0.6254
 3931TIP3    H133208   2.864   1.122  -0.074 -0.1186  1.1250  0.6285
 3931TIP3    H233209   2.819   1.137   0.070 -1.6658 -1.9140  0.4993
 3932TIP3   OH233210   5.535   1.635  15.471 -0.6259  0.3351  0.1265
 3932TIP3    H133211   5.501   1.549  15.448  0.3371  0.0894 -0.4328
 3932TIP3    H233212   5.540   1.682  15.388 -1.3855  1.0209  0.4662
 3933TIP3   OH233213   3.791   5.643   1.734  0.7780 -0.2438 -0.5260
 3933TIP3    H133214   3.874   5.691   1.731 -0.9196  2.7629 -0.7112
 3933TIP3    H233215   3.780   5.620   1.826  1.0681  0.7253 -0.2423
 3934TIP3   OH233216   3.053   3.869   3.362 -0.6306 -0.5962  0.8016
 3934TIP3    H133217   3.034   3.790   3.412 -1.7815 -1.0544 -0.3411
 3934TIP3    H233218   2.980   3.878   3.301  1.6397 -1.1105 -2.1100
 3935TIP3   OH233219   5.475   4.210  15.182  0.4135  0.7212  0.0998
 3935TIP3    H133220   5.563   4.174  15.172 -0.3481 -1.4641  1.0578
 3935TIP3    H233221   5.460   4.212  15.277 -0.9540  0.0902 -0.0929
 3936TIP3   OH233222   1.937   1.136  12.850 -0.1937 -0.4093  0.3408
 3936TIP3    H133223   1.983   1.091  12.921 -0.9111 -1.7880 -0.0547
 3936TIP3    H233224   1.990   1.119  12.773  0.7181  1.2968  0.5582
 3937TIP3   OH233225   4.456   0.186   0.106  0.1815 -0.3909 -0.0500
 3937TIP3    H133226   4.365   0.176   0.081 -0.3603 -1.6291  2.2953
 3937TIP3    H233227   4.497   0.228   0.030 -1.6896 -2.4340 -2.2788
 3938TIP3   OH233228   0.685   6.360   4.523  0.9807 -0.3652 -0.2363
 3938TIP3    H133229   0.661   6.285   4.577  1.0019  0.1803  0.5484
 3938TIP3    H233230   0.710   6.323   4.439 -3.1504 -0.9458 -1.3343
 3939TIP3   OH233231   0.505   2.496  12.189 -0.9050 -0.0952  0.5793
 3939TIP3    H133232   0.479   2.443  12.113 -0.8650  1.3740 -0.4875
 3939TIP3    H233233   0.435   2.561  12.197 -0.1643  0.6750  0.8794
 3940TIP3   OH233234   3.578   4.984  12.311  0.2767 -0.0481  0.3342
 3940TIP3    H133235   3.620   4.953  12.391 -0.8012 -1.4201  0.3779
 3940TIP3    H233236   3.589   4.913  12.248  0.5733  0.7712 -0.5599
 3941TIP3   OH233237   2.920   5.123  15.470 -0.1497  0.2492 -0.3683
 3941TIP3    H133238   2.863   5.198  15.455  0.1743  0.6936  0.6512
 3941TIP3    H233239   2.861   5.047  15.469 -0.5963  0.6013 -0.4483
 3942TIP3   OH233240   6.245   5.649   4.106 -0.2141  0.1979  0.4673
 3942TIP3    H133241   6.299   5.625   4.181 -0.0862 -2.7505 -0.4753
 3942TIP3    H233242   6.155   5.631   4.134 -0.3285  0.9687  0.5874
 3943TIP3   OH233243   5.688   4.656  11.426 -0.4492 -0.4879 -0.1447
 3943TIP3    H133244   5.656   4.566  11.431 -1.9198  0.0992  1.8076
 3943TIP3    H233245   5.679   4.690  11.515 -1.9120  2.2362 -1.2516
 3944TIP3   OH233246   0.858   4.103  16.639  0.2377  0.2653 -0.3734
 3944TIP3    H133247   0.888   4.186  16.677  1.0085  0.1751 -0.7748
 3944TIP3    H233248   0.795   4.128  16.572  0.8781  0.5503 -0.8687
 3945TIP3   OH233249   0.848   0.128   1.009 -0.2324  0.1089  0.2317
 3945TIP3    H133250   0.927   0.097   1.054  1.0699  0.6550 -1.6420
 3945TIP3    H233251   0.870   0.126   0.916 -2.1962  0.9176 -0.2816
 3946TIP3   OH233252   0.023   3.314  16.439  0.5653 -0.1863 -0.0787
 3946TIP3    H133253  -0.042   3.244  16.441  0.4244 -0.0746 -0.7794
 3946TIP3    H233254   0.058   3.317  16.529 -0.9842  0.3289  0.5145
 3947TIP3   OH233255   1.738   1.231   0.925  0.0211 -0.1340 -0.2029
 3947TIP3    H133256   1.729   1.173   1.000 -0.0985 -1.1631 -1.0098
 3947TIP3    H233257   1.825   1.269   0.935 -1.0215  1.8657  1.9438
 3948TIP3   OH233258   4.811   4.988  11.610 -0.1169 -0.5987  0.1942
 3948TIP3    H133259   4.831   4.984  11.516 -2.5944 -0.1985 -0.4008
 3948TIP3    H233260   4.896   4.990  11.653  1.0655  0.4087 -2.1068
 3949TIP3   OH233261   3.877   1.632  17.094  0.0642  0.2488 -0.1938
 3949TIP3    H133262   3.834   1.568  17.150  1.1575  0.1409  0.5366
 3949TIP3    H233263   3.808   1.663  17.036 -0.7321 -0.7545  0.2015
 3950TIP3   OH233264   2.430   4.689  15.730  1.0177 -0.0844  0.2813
 3950TIP3    H133265   2.409   4.750  15.659  0.0992  0.7164  1.2207
 3950TIP3    H233266   2.351   4.685  15.783  0.7762 -2.7558 -0.2110
 3951TIP3   OH233267   2.107   5.520   1.525 -0.1579 -0.0493  0.1515
 3951TIP3    H133268   2.014   5.545   1.519 -0.2435 -0.3025  0.4091
 3951TIP3    H233269   2.106   5.425   1.521  0.1336 -0.0289 -0.3966
 3952TIP3   OH233270   0.173   4.968  15.126 -0.0951 -0.2079 -0.5193
 3952TIP3    H133271   0.094   5.018  15.147  1.6130  2.1867  0.4048
 3952TIP3    H233272   0.162   4.886  15.174 -0.8902  1.1420  1.6952
 3953TIP3   OH233273   2.103   1.610  12.249  0.1189 -0.1937 -0.0411
 3953TIP3    H133274   2.057   1.583  12.328 -0.1621 -0.6824 -0.3647
 3953TIP3    H233275   2.096   1.706  12.248  0.6967 -0.1401  0.8626
 3954TIP3   OH233276   2.245   0.693  10.634 -0.2257 -0.1408  0.6782
 3954TIP3    H133277   2.264   0.773  10.683 -3.0521  0.5423  0.7246
 3954TIP3    H233278   2.242   0.722  10.542 -0.2863 -0.3828  0.6035
 3955TIP3   OH233279   1.546   1.397   0.541  0.2059  0.4390 -0.7827
 3955TIP3    H133280   1.455   1.412   0.567  0.3500 -1.1039  0.7048
 3955TIP3    H233281   1.542   1.386   0.446 -1.0926  0.8402 -0.7949
 3956TIP3   OH233282   1.882   3.097  11.946  0.3682 -0.3981 -0.3272
 3956TIP3    H133283   1.893   3.026  11.882  0.5406  0.1437 -0.8993
 3956TIP3    H233284   1.902   3.056  12.030 -0.6571 -1.3216 -0.5167
 3957TIP3   OH233285   1.626   3.483  16.123  0.3430 -0.2384  0.1735
 3957TIP3    H133286   1.717   3.478  16.092  1.0279 -0.5647  2.1815
 3957TIP3    H233287   1.575   3.443  16.052  1.6166  1.0127 -1.4949
 3958TIP3   OH233288   5.777   4.557  16.597 -0.0215 -0.3668 -0.0313
 3958TIP3    H133289   5.843   4.612  16.642  0.5952  0.2967 -1.7149
 3958TIP3    H233290   5.694   4.601  16.615  0.2880  0.2305 -0.0436
 3959TIP3   OH233291   2.066   5.017  11.274  0.1950 -0.3494  0.7423
 3959TIP3    H133292   2.101   4.928  11.280 -0.8373 -0.8985 -1.2101
 3959TIP3    H233293   2.025   5.022  11.188 -0.3152  1.8267  1.0690
 3960TIP3   OH233294   6.066   3.660  16.697  0.1736 -0.4438 -0.6618
 3960TIP3    H133295   6.013   3.722  16.646 -0.2695  0.2167  0.5654
 3960TIP3    H233296   6.035   3.672  16.787  0.5463 -1.9980 -0.3198
 3961TIP3   OH233297   0.192   3.858   4.831  0.4232 -0.0108 -0.3344
 3961TIP3    H133298   0.257   3.919   4.867  0.9764  0.3230 -1.8796
 3961TIP3    H233299   0.113   3.911   4.820 -0.1307 -0.4079  1.5081
 3962TIP3   OH233300   6.735   4.189   0.670  0.4876 -0.2279 -0.1298
 3962TIP3    H133301   6.810   4.190   0.611  0.6098 -1.1320  0.0017
 3962TIP3    H233302   6.681   4.263   0.642  0.5974 -0.5835 -1.3093
 3963TIP3   OH233303   4.767   4.463  16.005 -0.4100 -0.3789  0.5110
 3963TIP3    H133304   4.759   4.545  16.053 -1.2371  0.0536 -0.3765
 3963TIP3    H233305   4.838   4.477  15.944 -0.4320 -0.3917  0.4831
 3964TIP3   OH233306   0.786   0.902   1.514 -0.2947 -0.2330 -0.2594
 3964TIP3    H133307   0.710   0.952   1.544 -0.8292  0.9311 -3.3077
 3964TIP3    H233308   0.851   0.968   1.492  0.7934 -1.1238  0.2515
 3965TIP3   OH233309   4.839   1.706   0.095 -0.5812  0.6509  0.1485
 3965TIP3    H133310   4.853   1.639   0.161  2.8502  2.9602  1.8935
 3965TIP3    H233311   4.770   1.671   0.039 -0.8708 -3.0242  2.6840
 3966TIP3   OH233312   6.472   1.780   3.358 -0.1527  0.1342  0.3918
 3966TIP3    H133313   6.491   1.873   3.370  1.0803 -0.0348 -0.2120
 3966TIP3    H233314   6.417   1.757   3.433  2.2355  0.5828  2.3702
 3967TIP3   OH233315   3.680   5.179  14.680  0.5061  0.3111 -0.0007
 3967TIP3    H133316   3.762   5.178  14.632  0.6334  1.1753  0.1926
 3967TIP3    H233317   3.699   5.135  14.762  0.9681  1.1477  0.3449
 3968TIP3   OH233318   1.859   3.168  14.103  0.0819  0.1823 -0.3311
 3968TIP3    H133319   1.868   3.260  14.080  1.3202 -0.5184 -2.7939
 3968TIP3    H233320   1.944   3.130  14.082 -1.0142 -1.8963 -1.1477
 3969TIP3   OH233321   2.828   4.300   5.890 -0.2789  0.6117  0.4159
 3969TIP3    H133322   2.885   4.242   5.841  0.0776 -1.0164  2.6605
 3969TIP3    H233323   2.885   4.339   5.957 -1.4492  0.0684  1.7609
 3970TIP3   OH233324   4.420   6.420   1.511  0.2697 -0.3608  0.2235
 3970TIP3    H133325   4.395   6.328   1.519 -0.4950 -0.0927  0.9787
 3970TIP3    H233326   4.510   6.417   1.476  0.2806 -1.3868  0.3025
 3971TIP3   OH233327   0.584   2.415  15.232 -0.2342  0.0901 -0.0266
 3971TIP3    H133328   0.622   2.453  15.311  0.5333  0.1622 -0.4236
 3971TIP3    H233329   0.502   2.462  15.220 -0.3681  0.0552  0.7473
 3972TIP3   OH233330   0.227   5.440   2.321  0.7976 -0.2181  0.0513
 3972TIP3    H133331   0.219   5.345   2.335  1.3236 -0.3550 -0.5376
 3972TIP3    H233332   0.251   5.449   2.228  1.6516  0.4363  0.3207
 3973TIP3   OH233333   5.862   2.863  13.573 -0.3730  0.4219 -0.0047
 3973TIP3    H133334   5.839   2.948  13.613 -0.0673  1.4686 -2.0070
 3973TIP3    H233335   5.868   2.882  13.480  1.6643 -1.4023 -0.2583
 3974TIP3   OH233336   3.199   5.342  13.705  0.3538  0.0407  0.0133
 3974TIP3    H133337   3.120   5.334  13.758  0.2029  0.5205 -0.1358
 3974TIP3    H233338   3.239   5.255  13.707 -0.2155 -0.2185  0.0271
 3975TIP3   OH233339   4.786   3.244   3.169  0.1140  0.0591  0.3463
 3975TIP3    H133340   4.796   3.151   3.146  1.3921 -0.5688  3.3122
 3975TIP3    H233341   4.711   3.245   3.229  0.4784  0.8723  0.7794
 3976TIP3   OH233342   5.336   2.281  14.088  0.0976  0.2862  0.3263
 3976TIP3    H133343   5.359   2.258  14.178 -0.8766 -1.5843  0.1092
 3976TIP3    H233344   5.420   2.294  14.045  0.5710  1.5991  1.5867
 3977TIP3   OH233345   0.483   0.981   1.374  0.3866  0.6423  1.2350
 3977TIP3    H133346   0.487   0.971   1.469  0.1150  1.0429  1.2899
 3977TIP3    H233347   0.506   1.073   1.359 -1.5441  1.1156  1.0586
 3978TIP3   OH233348   5.154   3.427  13.744 -0.1721 -0.3094  0.3887
 3978TIP3    H133349   5.094   3.368  13.791  0.9398 -0.1117  2.1259
 3978TIP3    H233350   5.188   3.484  13.813  0.7189  0.6800 -0.8734
 3979TIP3   OH233351   1.394   3.892  14.570  0.1859  0.4970 -0.2279
 3979TIP3    H133352   1.366   3.801  14.560  0.0359  0.0193  3.6729
 3979TIP3    H233353   1.477   3.897  14.523 -0.3417 -1.3650 -1.4155
 3980TIP3   OH233354   0.195   5.951   0.094 -0.3183 -0.6274 -0.1843
 3980TIP3    H133355   0.114   5.985   0.055 -1.1641  0.5092  2.4582
 3980TIP3    H233356   0.252   6.027   0.103  1.6421 -1.6437 -3.2904
 3981TIP3   OH233357   0.657   1.533  13.442 -0.7345 -0.2683 -0.5266
 3981TIP3    H133358   0.746   1.554  13.416 -1.2932  0.0413 -2.2369
 3981TIP3    H233359   0.651   1.561  13.533  0.1326  2.1002 -1.1722
 3982TIP3   OH233360   2.716   1.259   5.386 -0.6364  0.3467 -0.5139
 3982TIP3    H133361   2.782   1.313   5.428  0.3322 -0.7318 -0.6277
 3982TIP3    H233362   2.743   1.169   5.404 -3.2271 -0.1292  1.2701
 3983TIP3   OH233363   6.141   5.931   1.462 -0.2183  0.4649 -0.4650
 3983TIP3    H133364   6.124   5.901   1.372 -0.2151 -1.7883  0.2527
 3983TIP3    H233365   6.190   5.859   1.502 -0.0077  1.5606  1.2734
 3984TIP3   OH233366   3.867   4.586   5.710  0.1156 -0.8166  0.2897
 3984TIP3    H133367   3.817   4.650   5.761 -0.1999  0.9322 -2.1185
 3984TIP3    H233368   3.954   4.588   5.747  0.4420  1.9707 -0.4884
 3985TIP3   OH233369   6.189   6.044  12.444 -0.5958  0.2139  0.0362
 3985TIP3    H133370   6.281   6.022  12.456 -0.4629  0.3508 -0.7637
 3985TIP3    H233371   6.182   6.135  12.472 -0.1747  0.7026 -1.4399
 3986TIP3   OH233372   1.190   4.365   2.201 -0.8230 -0.3853 -0.1811
 3986TIP3    H133373   1.268   4.420   2.209  0.4993 -2.2999  0.5107
 3986TIP3    H233374   1.166   4.371   2.108 -0.3756  0.8851 -0.2274
 3987TIP3   OH233375   5.034   1.250  15.634 -0.1257 -0.1396  0.2930
 3987TIP3    H133376   5.003   1.175  15.685  2.0942 -1.9467 -0.8876
 3987TIP3    H233377   4.997   1.237  15.547  0.8932 -0.3150 -0.1251
 3988TIP3   OH233378   1.262   5.729   4.102  0.2431  0.6156  0.5455
 3988TIP3    H133379   1.304   5.811   4.075 -0.3584  0.7868  0.1388
 3988TIP3    H233380   1.234   5.689   4.020 -0.5376  0.5760  0.8292
 3989TIP3   OH233381   1.061   3.530  10.991  0.5340  0.1943 -0.2503
 3989TIP3    H133382   1.015   3.487  11.063  0.3120  0.7951 -0.0328
 3989TIP3    H233383   1.047   3.472  10.916 -0.7360  0.4463 -0.2265
 3990TIP3   OH233384   3.082   5.598  16.123 -0.8408  0.2345 -0.1285
 3990TIP3    H133385   3.152   5.615  16.060 -1.5170 -0.9060 -1.1964
 3990TIP3    H233386   3.120   5.624  16.207  0.3134  1.1191 -0.8949
 3991TIP3   OH233387   3.797   6.077  16.448  0.0642  0.8787  0.0765
 3991TIP3    H133388   3.868   6.092  16.387  0.0089  0.9798  0.0368
 3991TIP3    H233389   3.734   6.148  16.431  0.5437  1.5369  0.9823
 3992TIP3   OH233390   4.854   1.922  12.418  0.1528 -0.0079  0.0188
 3992TIP3    H133391   4.856   1.831  12.388 -1.2204 -0.8258  2.2507
 3992TIP3    H233392   4.791   1.965  12.361 -0.9019 -1.0273  0.4086
 3993TIP3   OH233393   5.428   3.060  13.291  0.2059  0.0044 -0.1649
 3993TIP3    H133394   5.418   3.051  13.386  1.0410 -0.3080 -0.1019
 3993TIP3    H233395   5.342   3.087  13.260  0.3313  1.6606  0.8789
 3994TIP3   OH233396   4.628   6.690   4.779 -0.2870 -0.2276  0.0822
 3994TIP3    H133397   4.643   6.736   4.697  1.3168 -0.3608  0.2761
 3994TIP3    H233398   4.537   6.659   4.774 -0.3780  0.2556 -1.3802
 3995TIP3   OH233399   3.700   1.510  14.539 -0.0705 -1.1109  0.2273
 3995TIP3    H133400   3.629   1.501  14.603  0.0999 -0.1824  0.5462
 3995TIP3    H233401   3.725   1.602  14.544  2.6625 -1.8890  1.7108
 3996TIP3   OH233402   5.841   4.854   4.692  0.2455 -0.1738  0.0698
 3996TIP3    H133403   5.932   4.830   4.671  0.3115 -0.0126  0.1682
 3996TIP3    H233404   5.790   4.775   4.671  0.2729  0.0771 -0.9702
 3997TIP3   OH233405   5.594   0.649   5.529 -0.0749 -0.6560  0.6189
 3997TIP3    H133406   5.523   0.587   5.541 -0.1772 -0.1266  3.0366
 3997TIP3    H233407   5.551   0.734   5.522  0.2713 -0.4355  1.1385
 3998TIP3   OH233408   4.708   3.981  12.850  0.3658  0.5670  0.5403
 3998TIP3    H133409   4.715   3.889  12.823  0.7049  0.7338  0.0642
 3998TIP3    H233410   4.762   3.986  12.929  0.1050  0.2911  0.7400
 3999TIP3   OH233411   3.771   4.881  13.669  0.0767 -0.2776  0.2205
 3999TIP3    H133412   3.799   4.906  13.757 -1.1758 -0.1912  0.6115
 3999TIP3    H233413   3.679   4.856  13.680  0.0673 -0.7956 -0.9652
 4000TIP3   OH233414   1.703   6.271  12.053  0.1171  0.5348  0.0990
 4000TIP3    H133415   1.643   6.320  11.997 -0.7231 -0.4076  0.1810
 4000TIP3    H233416   1.707   6.323  12.134  0.1718  1.1053 -0.2681
 4001TIP3   OH233417   1.059   0.132   1.782  0.3330 -0.1826 -0.3967
 4001TIP3    H133418   0.972   0.107   1.752  0.3502 -0.7939  0.0557
 4001TIP3    H233419   1.117   0.108   1.709  0.1653 -0.0939 -0.5593
 4002TIP3   OH233420   1.428   5.618   4.319 -0.3793  1.3446  0.4925
 4002TIP3    H133421   1.368   5.544   4.319  0.0315  0.9812  2.9348
 4002TIP3    H233422   1.399   5.672   4.245 -1.2674 -0.7442 -0.7412
 4003TIP3   OH233423   4.488   4.021   0.262 -0.5411 -0.6325 -0.5249
 4003TIP3    H133424   4.560   3.976   0.218 -1.8848 -0.7116 -2.7415
 4003TIP3    H233425   4.412   4.003   0.207 -2.4088 -1.1341  2.1490
 4004TIP3   OH233426   2.016   2.115  11.703  0.3337  0.7544  0.3131
 4004TIP3    H133427   2.101   2.075  11.722  0.3299  0.3242 -0.5339
 4004TIP3    H233428   1.975   2.126  11.788  1.4821  1.5052  0.7799
 4005TIP3   OH233429   5.484   5.069  12.473 -0.1773  0.7411 -0.3670
 4005TIP3    H133430   5.543   5.064  12.548 -0.4701  2.1740 -0.0212
 4005TIP3    H233431   5.410   5.013  12.496  0.5643 -0.2356 -0.3526
 4006TIP3   OH233432   2.720   5.313  15.130 -0.0707 -0.7846  0.1375
 4006TIP3    H133433   2.635   5.289  15.168  0.4783 -3.2079 -0.0873
 4006TIP3    H233434   2.778   5.240  15.152  0.9722 -0.9772 -2.9246
 4007TIP3   OH233435   0.039   0.320   5.853 -0.3259 -0.2104 -0.3352
 4007TIP3    H133436  -0.001   0.388   5.907  1.6905  1.2476 -0.6313
 4007TIP3    H233437   0.132   0.342   5.851  0.1538 -2.1795 -1.6164
 4008TIP3   OH233438   2.523   6.206  15.954 -0.3131  0.1012 -0.0026
 4008TIP3    H133439   2.458   6.202  16.023 -0.1737  2.1088  0.2578
 4008TIP3    H233440   2.526   6.117  15.918 -0.7611 -0.8224  2.2087
 4009TIP3   OH233441   6.714   1.144   1.395 -0.7014 -0.1541 -0.1052
 4009TIP3    H133442   6.802   1.122   1.363 -0.7929 -1.4859  0.4951
 4009TIP3    H233443   6.673   1.189   1.321  0.9762  1.8359  0.1170
 4010TIP3   OH233444   2.241   4.492  13.468  0.1191 -0.3637  0.1137
 4010TIP3    H133445   2.174   4.447  13.418  0.1969  0.6407 -0.9212
 4010TIP3    H233446   2.199   4.573  13.498  0.7004  0.0357 -0.1192
 4011TIP3   OH233447   5.948   5.804  16.520  0.0069 -0.0162 -0.0384
 4011TIP3    H133448   6.015   5.869  16.499 -1.1804  1.1068 -0.4473
 4011TIP3    H233449   5.944   5.748  16.443  0.8292 -0.4137  0.1970
 4012TIP3   OH233450   1.262   0.524   4.457 -0.0132 -0.0340  0.6295
 4012TIP3    H133451   1.251   0.500   4.365  0.4706 -0.2103  0.6156
 4012TIP3    H233452   1.187   0.485   4.501 -1.6173  2.1824 -0.0698
 4013TIP3   OH233453   1.938   0.419   3.170  0.1742  0.3718  0.7458
 4013TIP3    H133454   2.025   0.455   3.157  0.6144 -1.2404 -1.0716
 4013TIP3    H233455   1.940   0.335   3.125 -2.1495  0.0541  1.1662
 4014TIP3   OH233456   0.166   4.047  12.006 -0.6029 -0.7052 -0.1031
 4014TIP3    H133457   0.080   4.042  12.048 -0.3524 -0.6885  0.4169
 4014TIP3    H233458   0.147   4.056  11.913 -1.2988  3.5178  0.3227
 4015TIP3   OH233459   4.963   1.659  14.303 -0.4329  0.4049  0.0018
 4015TIP3    H133460   4.935   1.726  14.364  2.1483  0.1160  1.5929
 4015TIP3    H233461   4.885   1.605  14.288 -0.9889  0.0990  3.5811
 4016TIP3   OH233462   2.678   3.676   0.669  0.0499 -0.2111 -0.0718
 4016TIP3    H133463   2.773   3.686   0.656 -0.0768  2.4823  0.7617
 4016TIP3    H233464   2.645   3.648   0.584  1.3052  1.1646 -1.0423
 4017TIP3   OH233465   2.727   3.668   5.402  0.1144  0.2862 -0.0479
 4017TIP3    H133466   2.817   3.695   5.420  0.1639 -0.0067  0.1420
 4017TIP3    H233467   2.678   3.750   5.396  0.2677  0.4212  0.5208
 4018TIP3   OH233468   3.690   6.159  11.651 -0.2157 -0.6561 -0.5509
 4018TIP3    H133469   3.731   6.220  11.589  1.0723  0.2541  1.1605
 4018TIP3    H233470   3.699   6.073  11.610  0.5315 -0.0499 -1.6734
 4019TIP3   OH233471   5.773   2.697   6.011 -0.6765 -0.1918  0.3810
 4019TIP3    H133472   5.792   2.789   6.029 -1.0753 -0.1463  0.5837
 4019TIP3    H233473   5.854   2.662   5.974 -0.6505  0.3369 -0.0592
 4020TIP3   OH233474   0.769   2.049  14.354  0.5123  0.5383 -0.5569
 4020TIP3    H133475   0.821   2.051  14.434 -0.0353 -0.7081 -0.1637
 4020TIP3    H233476   0.815   1.988  14.297 -1.3177 -1.8093  0.3806
 4021TIP3   OH233477   0.422   0.788  12.472 -0.3772  0.2798 -0.0288
 4021TIP3    H133478   0.466   0.851  12.528 -1.4778  1.5496 -0.5517
 4021TIP3    H233479   0.409   0.835  12.389  1.4912 -1.6519 -1.4617
 4022TIP3   OH233480   1.826   0.420  10.815 -0.7290 -0.2986  0.3761
 4022TIP3    H133481   1.887   0.447  10.746 -1.5492 -1.9608 -1.0316
 4022TIP3    H233482   1.754   0.483  10.809  0.1593  0.8120  1.1100
 4023TIP3   OH233483   3.093   5.208   0.243  0.3893  0.3210  0.2793
 4023TIP3    H133484   3.096   5.228   0.337  0.2390  0.8660  0.1684
 4023TIP3    H233485   3.051   5.122   0.238 -0.8170  0.8850  0.6278
 4024TIP3   OH233486   6.612   2.059  11.771  0.2421 -0.2283  0.1370
 4024TIP3    H133487   6.666   1.981  11.772  0.1688 -0.2788  0.3900
 4024TIP3    H233488   6.641   2.109  11.847 -1.3841 -1.1781  1.4212
 4025TIP3   OH233489   2.400   4.234  11.934 -0.2739  0.1759 -0.3576
 4025TIP3    H133490   2.402   4.140  11.919  1.0702  0.3823 -1.5521
 4025TIP3    H233491   2.466   4.270  11.875 -0.6561  1.8580  0.1918
 4026TIP3   OH233492   3.330   1.690   2.119 -0.1581 -0.3411  0.2891
 4026TIP3    H133493   3.276   1.727   2.188  0.1829 -1.4872  1.1935
 4026TIP3    H233494   3.404   1.751   2.109  0.0135 -0.3965  1.2359
 4027TIP3   OH233495   4.709   0.563  13.652  0.7062 -0.3160  0.3870
 4027TIP3    H133496   4.753   0.503  13.712  0.1898 -1.1752 -0.0792
 4027TIP3    H233497   4.722   0.525  13.565 -1.0480 -0.6625  0.2510
 4028TIP3   OH233498   3.685   0.522   5.723  0.1502 -0.2217 -0.0100
 4028TIP3    H133499   3.700   0.552   5.633  1.7009  0.2026  0.3670
 4028TIP3    H233500   3.593   0.543   5.741  0.0701  0.4778 -1.1984
 4029TIP3   OH233501   0.886   2.952   1.315  0.6766 -0.1584 -0.0372
 4029TIP3    H133502   0.846   2.865   1.312  0.1234  0.0573  0.7965
 4029TIP3    H233503   0.976   2.937   1.344  1.1247 -0.6206 -1.6215
 4030TIP3   OH233504   6.292   1.672   3.591 -0.2897  0.8503 -0.1596
 4030TIP3    H133505   6.248   1.590   3.568 -1.1637  1.4231 -0.5664
 4030TIP3    H233506   6.257   1.694   3.677 -1.4696  1.7562 -0.8603
 4031TIP3   OH233507   5.737   6.343   2.829  0.8177  0.1188 -0.1333
 4031TIP3    H133508   5.668   6.323   2.893  2.6939  2.2722  2.6852
 4031TIP3    H233509   5.741   6.438   2.827  3.6933  0.0324 -0.2741
 4032TIP3   OH233510   1.305   5.887   2.228  0.3375  0.1979 -0.6191
 4032TIP3    H133511   1.308   5.910   2.135  2.1890  0.5755 -0.4741
 4032TIP3    H233512   1.317   5.970   2.274 -0.0349 -0.0702 -0.0301
 4033TIP3   OH233513   3.000   6.539  10.377 -0.4730  0.0688  0.2559
 4033TIP3    H133514   2.918   6.559  10.332 -0.7680  2.0129  1.5874
 4033TIP3    H233515   3.064   6.529  10.306 -1.5828 -0.1492 -0.7324
 4034TIP3   OH233516   6.396   3.057   3.076  0.1973 -0.6272  0.1011
 4034TIP3    H133517   6.316   3.033   3.122 -0.7092  0.4885 -0.8636
 4034TIP3    H233518   6.371   3.133   3.023  2.6083  1.6106  2.0162
 4035TIP3   OH233519   3.070   5.922  13.280 -0.1585 -0.3803  0.1903
 4035TIP3    H133520   3.121   5.995  13.246 -0.3353  0.0741  0.8998
 4035TIP3    H233521   3.119   5.892  13.357 -0.8403 -0.0845  0.7433
 4036TIP3   OH233522   1.782   0.208  15.817  0.4766 -0.2411 -0.0694
 4036TIP3    H133523   1.711   0.259  15.857  1.7689  1.2114  0.4678
 4036TIP3    H233524   1.806   0.144  15.884 -0.4173 -0.8239 -0.3057
 4037TIP3   OH233525   1.398   6.463  16.134  0.2309 -0.1150  0.5776
 4037TIP3    H133526   1.403   6.558  16.148 -0.4660  0.0056  0.0858
 4037TIP3    H233527   1.310   6.439  16.165  0.3300 -0.5606  0.5169
 4038TIP3   OH233528   6.458   6.730  11.781  0.6336 -0.7633  0.2154
 4038TIP3    H133529   6.452   6.825  11.770 -0.6002 -0.7986  0.4653
 4038TIP3    H233530   6.534   6.704  11.729  0.4017  0.2369 -0.6454
 4039TIP3   OH233531   3.668   2.720  16.021 -0.0044 -0.6972  0.1228
 4039TIP3    H133532   3.764   2.712  16.024  0.0744 -0.2342 -1.0376
 4039TIP3    H233533   3.645   2.766  16.102  0.6483 -1.7100  0.9110
 4040TIP3   OH233534   5.211   6.756  14.819 -0.1890  0.5280  0.6644
 4040TIP3    H133535   5.274   6.827  14.830  3.3836 -2.1135 -1.6601
 4040TIP3    H233536   5.223   6.700  14.895  1.4910 -0.8197 -0.5614
 4041TIP3   OH233537   4.102   1.025  11.608  0.4491 -0.0110 -0.0276
 4041TIP3    H133538   4.170   0.985  11.662 -0.2981 -0.2980  0.7148
 4041TIP3    H233539   4.125   1.117  11.603  1.2578 -0.2303 -0.3379
 4042TIP3   OH233540   4.072   2.877  13.613  0.1416 -0.2695 -0.1095
 4042TIP3    H133541   3.998   2.831  13.573  1.2792 -1.1450 -1.2238
 4042TIP3    H233542   4.092   2.948  13.552  0.0276  0.1584  0.3458
 4043TIP3   OH233543   5.467   1.500  12.866 -0.3054  0.6140  0.4541
 4043TIP3    H133544   5.425   1.462  12.943 -1.1694  1.5556  0.4660
 4043TIP3    H233545   5.456   1.594  12.878  1.4572  0.8526  0.2387
 4044TIP3   OH233546   6.642   2.043   3.944  0.2944  0.0432 -0.6011
 4044TIP3    H133547   6.555   2.023   3.978  0.2057  1.1724 -0.1345
 4044TIP3    H233548   6.683   1.958   3.931 -0.3392 -0.4488  0.5979
 4045TIP3   OH233549   4.480   5.160   2.730  0.1067 -0.4350 -0.0392
 4045TIP3    H133550   4.442   5.159   2.642  0.7164 -0.3641 -0.3043
 4045TIP3    H233551   4.452   5.077   2.769 -2.4198  0.7045  0.6741
 4046TIP3   OH233552   3.321   5.305  11.759  0.3830 -0.1719  0.3580
 4046TIP3    H133553   3.287   5.267  11.841  0.5562 -0.5125  0.2740
 4046TIP3    H233554   3.410   5.271  11.753 -0.1800 -1.5111 -0.8282
 4047TIP3   OH233555   4.044   0.398  15.994  0.3385 -0.3358 -0.4674
 4047TIP3    H133556   4.065   0.442  16.077 -1.5204 -1.3922  0.5923
 4047TIP3    H233557   4.022   0.470  15.934  1.0266  0.3946  0.1430
 4048TIP3   OH233558   6.005   2.263   1.381 -0.4586 -0.1140  0.0031
 4048TIP3    H133559   5.967   2.287   1.297  0.8651 -1.0790 -0.8863
 4048TIP3    H233560   6.099   2.258   1.365 -0.3197 -1.8625  1.1334
 4049TIP3   OH233561   2.307   0.733   4.887  0.2193  0.0397 -0.4285
 4049TIP3    H133562   2.241   0.743   4.818 -0.1702  0.5041  0.0070
 4049TIP3    H233563   2.390   0.725   4.839 -0.0973 -0.0663 -0.9660
 4050TIP3   OH233564   6.389   1.819  11.780 -0.1190  0.3180  0.1253
 4050TIP3    H133565   6.423   1.890  11.834 -0.9832  0.4394  0.5144
 4050TIP3    H233566   6.294   1.821  11.794 -0.4415  0.8844 -2.0289
 4051TIP3   OH233567   2.590   4.283  15.837  0.9398  0.0808  0.5840
 4051TIP3    H133568   2.601   4.369  15.878  1.4058  0.6005 -0.6287
 4051TIP3    H233569   2.628   4.222  15.901  0.7782  0.7876  1.3690
 4052TIP3   OH233570   4.763   2.282   4.301  1.0292 -0.4743 -0.1828
 4052TIP3    H133571   4.678   2.272   4.260  0.4289  1.1923  0.6015
 4052TIP3    H233572   4.801   2.194   4.301  0.2062 -0.8561 -2.4410
 4053TIP3   OH233573   0.731   5.726   2.929  0.1291  1.2655 -0.1682
 4053TIP3    H133574   0.786   5.762   3.000  0.8301  0.0197 -0.0683
 4053TIP3    H233575   0.668   5.670   2.974  0.3699  0.7248 -0.5056
 4054TIP3   OH233576   1.845   4.055  12.402 -0.4724 -0.0629  1.0901
 4054TIP3    H133577   1.827   3.966  12.432 -3.2118  0.2250  0.4873
 4054TIP3    H233578   1.901   4.044  12.325 -0.0967 -1.2086  1.5238
 4055TIP3   OH233579   5.796   2.489   2.513  0.0992 -0.2136  0.1130
 4055TIP3    H133580   5.749   2.406   2.502  1.5517 -1.2133  1.2584
 4055TIP3    H233581   5.870   2.483   2.453 -0.5768  0.8829 -0.8588
 4056TIP3   OH233582   3.380   0.451   5.953 -0.2511  0.1903 -0.5464
 4056TIP3    H133583   3.298   0.484   5.915 -0.1836 -0.2219 -1.0643
 4056TIP3    H233584   3.375   0.356   5.940  0.8326  0.2742 -1.6489
 4057TIP3   OH233585   3.426   5.250   4.016 -0.4362 -0.1846  0.2323
 4057TIP3    H133586   3.413   5.189   3.943 -0.0149 -0.0129  0.0095
 4057TIP3    H233587   3.351   5.309   4.012 -0.0877  0.2232 -0.4634
 4058TIP3   OH233588   1.940   4.895   4.023  0.5394 -0.2295 -0.0524
 4058TIP3    H133589   1.895   4.815   3.996  0.7559 -0.8522  1.3464
 4058TIP3    H233590   1.881   4.936   4.086 -0.6520  2.0009 -2.5382
 4059TIP3   OH233591   3.450   6.416  11.050  0.0426 -0.1861  0.7717
 4059TIP3    H133592   3.527   6.386  11.001  0.1033 -0.2305  0.8938
 4059TIP3    H233593   3.434   6.346  11.113 -0.3367 -0.3596  0.4839
 4060TIP3   OH233594   3.544   3.418   0.817 -0.0382 -0.0910  0.4140
 4060TIP3    H133595   3.561   3.471   0.895  0.4074 -0.3495  0.4955
 4060TIP3    H233596   3.619   3.360   0.811  0.4431  0.6408 -0.8094
 4061TIP3   OH233597   0.748   5.242   3.339  0.8959 -0.2288  0.2209
 4061TIP3    H133598   0.716   5.327   3.368  2.4317  0.4087  0.1056
 4061TIP3    H233599   0.670   5.196   3.307 -0.1122  0.7032  1.3189
 4062TIP3   OH233600   3.903   4.220  11.535 -0.1533 -0.0544  0.4183
 4062TIP3    H133601   3.865   4.162  11.602  0.8011 -0.2718  0.7803
 4062TIP3    H233602   3.856   4.302  11.544  0.8675  0.3498  2.2651
 4063TIP3   OH233603   0.997   1.206  11.332  0.1290  0.7964  0.1363
 4063TIP3    H133604   0.963   1.286  11.373 -0.7346  0.3583  0.2847
 4063TIP3    H233605   1.035   1.157  11.405 -0.8124  0.3222  0.3144
 4064TIP3   OH233606   2.326   4.875  15.055 -0.0623  0.0622 -0.4094
 4064TIP3    H133607   2.295   4.890  15.145 -1.9372 -1.3703 -0.7676
 4064TIP3    H233608   2.261   4.918  15.000  0.6346  0.2313 -1.1032
 4065TIP3   OH233609   5.315   6.004   2.890  0.6729 -0.6034 -0.3353
 4065TIP3    H133610   5.365   5.963   2.959  0.1824 -0.8903 -0.1457
 4065TIP3    H233611   5.268   5.932   2.848 -3.0442  0.0952  2.3077
 4066TIP3   OH233612   4.242   6.640   2.432 -0.0784  0.2528  0.0980
 4066TIP3    H133613   4.157   6.681   2.418 -0.7113 -0.7390  0.9042
 4066TIP3    H233614   4.222   6.546   2.436  1.1288 -0.0246 -0.2311
 4067TIP3   OH233615   2.819   6.103   4.266  0.1134  0.0971  0.0697
 4067TIP3    H133616   2.798   6.031   4.325 -0.6491  0.3287  0.0808
 4067TIP3    H233617   2.831   6.179   4.323  3.3351 -0.5039  0.3020
 4068TIP3   OH233618   1.272   0.941  12.753 -0.4554 -0.3646 -0.0593
 4068TIP3    H133619   1.316   1.024  12.776 -0.0590 -0.4260 -0.5813
 4068TIP3    H233620   1.344   0.883  12.726 -0.9121 -0.2626 -1.5444
 4069TIP3   OH233621   4.245   6.366  11.175  0.1580 -0.1539  0.1965
 4069TIP3    H133622   4.157   6.403  11.177 -0.8810 -2.4830 -0.5437
 4069TIP3    H233623   4.253   6.317  11.257  1.0690  0.7010  0.6251
 4070TIP3   OH233624   5.135   4.121  15.553  0.6495  0.0359  0.0653
 4070TIP3    H133625   5.043   4.107  15.533  0.9034 -0.0774 -1.0840
 4070TIP3    H233626   5.137   4.205  15.599  0.1509  0.9197 -1.4840
 4071TIP3   OH233627   4.484   1.830   3.751  0.1319  0.2225 -0.3315
 4071TIP3    H133628   4.482   1.916   3.709  1.0877 -0.3496 -1.5818
 4071TIP3    H233629   4.401   1.788   3.725  0.5294  0.0349 -1.3050
 4072TIP3   OH233630   4.064   4.572  15.707 -0.0987  0.5568 -0.5441
 4072TIP3    H133631   4.094   4.546  15.795  1.0591 -0.9670 -1.3543
 4072TIP3    H233632   4.039   4.664  15.716  0.4061  0.5364  1.2905
 4073TIP3   OH233633   1.234   1.864   5.793  0.9791 -0.3775  0.7289
 4073TIP3    H133634   1.300   1.886   5.858 -0.0206  2.9052  0.7081
 4073TIP3    H233635   1.266   1.903   5.712 -1.1032  1.6430  0.8114
 4074TIP3   OH233636   1.594   1.766  14.116 -0.2122 -0.4144  0.3890
 4074TIP3    H133637   1.577   1.851  14.075  0.3504 -0.2428  0.4983
 4074TIP3    H233638   1.508   1.728  14.131 -0.4568  0.0204  0.0870
 4075TIP3   OH233639   4.399   5.555  17.112  0.2399  0.3860  0.0136
 4075TIP3    H133640   4.394   5.471  17.157 -0.9902  0.3211 -0.2388
 4075TIP3    H233641   4.415   5.619  17.181  1.9126 -0.1304  0.1275
 4076TIP3   OH233642   5.868   0.525  11.593  0.1350 -0.2518 -0.3264
 4076TIP3    H133643   5.781   0.554  11.621  0.0267 -0.4507 -0.4590
 4076TIP3    H233644   5.908   0.603  11.554  0.4139  0.1258  0.6751
 4077TIP3   OH233645   0.102   2.546  17.131  0.7272 -0.4956  0.2124
 4077TIP3    H133646   0.076   2.556  17.039  0.5199  0.5739  0.3817
 4077TIP3    H233647   0.160   2.619  17.148  1.0126 -0.8668  0.8568
 4078TIP3   OH233648   0.348   6.505   4.428  0.4413  0.0690  0.3280
 4078TIP3    H133649   0.268   6.532   4.474 -0.5597 -0.9376 -0.7764
 4078TIP3    H233650   0.355   6.565   4.354 -0.1073 -0.7573 -0.4030
 4079TIP3   OH233651   3.124   2.657   2.491 -0.3546 -0.1851 -0.4676
 4079TIP3    H133652   3.139   2.566   2.516 -0.8334 -0.1677 -0.1068
 4079TIP3    H233653   3.047   2.654   2.434 -1.9805  0.2798  1.6215
 4080TIP3   OH233654   5.988   4.596   0.870 -0.4853 -0.0449 -0.0345
 4080TIP3    H133655   5.930   4.665   0.901  1.1771  1.1953  0.3632
 4080TIP3    H233656   6.066   4.603   0.925  0.6103 -0.7991 -1.4492
 4081TIP3   OH233657   0.349   3.151   1.618  0.1336 -0.2095  0.4288
 4081TIP3    H133658   0.379   3.224   1.565 -0.6070 -0.8339 -0.8695
 4081TIP3    H233659   0.398   3.158   1.700 -0.4701  2.1768  0.6131
 4082TIP3   OH233660   5.881   3.043   4.535 -0.5969  0.1533  0.2922
 4082TIP3    H133661   5.963   3.060   4.581 -0.7196 -1.5960  1.2213
 4082TIP3    H233662   5.814   3.051   4.603 -1.0073 -0.3148 -0.0563
 4083TIP3   OH233663   6.514   3.688   1.133 -0.0066 -0.0722  0.2658
 4083TIP3    H133664   6.419   3.683   1.118 -0.0173  0.2291  0.2310
 4083TIP3    H233665   6.523   3.737   1.215  0.0765 -1.2290  0.9651
 4084TIP3   OH233666   6.461   3.768  13.075 -0.0966 -0.0850  0.2923
 4084TIP3    H133667   6.469   3.861  13.053 -0.4573 -0.4632 -1.5250
 4084TIP3    H233668   6.371   3.746  13.050 -0.4290 -0.6278  1.9126
 4085TIP3   OH233669   2.123   2.339  12.937  0.4878  0.1263  0.0079
 4085TIP3    H133670   2.042   2.381  12.967  0.9857  1.4202 -0.4145
 4085TIP3    H233671   2.187   2.359  13.004  0.0758 -2.3108  1.1667
 4086TIP3   OH233672   6.470   3.395   3.545 -0.2139 -0.3476  0.5025
 4086TIP3    H133673   6.483   3.470   3.603 -0.6836 -0.3600  0.6260
 4086TIP3    H233674   6.449   3.323   3.604 -1.5165 -0.1693  0.2600
 4087TIP3   OH233675   6.267   6.233  16.638 -0.2959  0.1342  0.1577
 4087TIP3    H133676   6.222   6.170  16.695 -1.2447 -0.2674 -0.9949
 4087TIP3    H233677   6.322   6.284  16.697 -0.4719 -0.9472  1.2892
 4088TIP3   OH233678   0.326   3.075   5.624 -0.1274 -0.1467  0.2316
 4088TIP3    H133679   0.381   3.020   5.569 -0.6194 -0.4053  0.0035
 4088TIP3    H233680   0.346   3.164   5.596 -0.5368 -0.2867 -0.5194
 4089TIP3   OH233681   6.619   5.687  13.075 -0.2245  0.2945 -0.2714
 4089TIP3    H133682   6.651   5.694  12.985  0.0604  0.7498 -0.1380
 4089TIP3    H233683   6.604   5.593  13.087 -0.6217  0.2716 -0.9137
 4090TIP3   OH233684   5.377   5.793  16.776 -0.4932  0.1688  0.5212
 4090TIP3    H133685   5.451   5.825  16.723 -0.4145  0.5865  0.8796
 4090TIP3    H233686   5.351   5.869  16.828 -1.3145  0.0823  0.2420
 4091TIP3   OH233687   1.529   2.634  12.060 -0.1805  0.0963 -0.1395
 4091TIP3    H133688   1.455   2.657  12.005 -1.9702 -0.2190  2.0878
 4091TIP3    H233689   1.592   2.705  12.048 -1.5906  1.2549 -0.6836
 4092TIP3   OH233690   1.569   3.567  14.840 -0.4014 -0.2259 -0.3229
 4092TIP3    H133691   1.482   3.605  14.834 -0.4182 -0.5011 -2.0274
 4092TIP3    H233692   1.560   3.495  14.903 -0.6600  1.7255  1.9190
 4093TIP3   OH233693   0.355   2.490  16.596 -0.0547 -0.2160  0.2051
 4093TIP3    H133694   0.318   2.577  16.612 -1.7591 -1.1573  1.5825
 4093TIP3    H233695   0.421   2.480  16.665  0.2766  0.0624 -0.0712
 4094TIP3   OH233696   5.812   4.219   2.361  0.6262  0.5981 -0.1090
 4094TIP3    H133697   5.875   4.265   2.306  0.4977 -0.0619 -0.8139
 4094TIP3    H233698   5.808   4.130   2.325  0.0369  0.3486  0.5445
 4095TIP3   OH233699   6.434   2.087  15.798 -0.3389 -0.2493  0.7845
 4095TIP3    H133700   6.494   2.077  15.872  0.3496 -1.5449  0.0679
 4095TIP3    H233701   6.355   2.126  15.836  0.2606 -0.2911  2.0816
 4096TIP3   OH233702   2.550   3.190   4.531 -0.3537  0.6788  0.3772
 4096TIP3    H133703   2.468   3.157   4.568 -0.2731  1.2880  1.0951
 4096TIP3    H233704   2.619   3.146   4.581 -0.2368  0.1577 -0.2344
 4097TIP3   OH233705   2.111   4.659  12.729  0.1065  0.5368  0.3170
 4097TIP3    H133706   2.116   4.575  12.774 -1.3159  0.0295 -0.4593
 4097TIP3    H233707   2.181   4.656  12.664 -1.2800 -0.8999 -1.1282
 4098TIP3   OH233708   5.305   3.068  14.679 -0.1268  0.1368  0.3967
 4098TIP3    H133709   5.307   3.089  14.586  0.5423  0.2046  0.4266
 4098TIP3    H233710   5.352   3.140  14.722  0.6443 -0.5103  0.6630
 4099TIP3   OH233711   1.421   0.431   5.038  0.0879 -0.4271 -0.2423
 4099TIP3    H133712   1.342   0.484   5.036 -0.8513 -1.8504 -1.6372
 4099TIP3    H233713   1.468   0.453   4.957 -0.3855 -1.7965 -0.9136
 4100TIP3   OH233714   1.878   2.821  16.359  0.4690 -0.2467  0.1162
 4100TIP3    H133715   1.865   2.759  16.431 -0.0814 -0.1531  0.0987
 4100TIP3    H233716   1.814   2.890  16.375 -2.4372 -2.1718 -2.6284
 4101TIP3   OH233717   4.730   3.448   3.578 -0.3353  0.0465  0.0670
 4101TIP3    H133718   4.757   3.384   3.643 -1.8595 -0.9198 -0.2136
 4101TIP3    H233719   4.789   3.434   3.504 -1.4237 -1.9125 -0.4786
 4102TIP3   OH233720   1.092   6.179   3.432 -0.2957 -0.0918 -0.0744
 4102TIP3    H133721   1.035   6.173   3.356 -1.2452  2.8281  0.3212
 4102TIP3    H233722   1.126   6.269   3.429 -1.3603  0.5168  3.6157
 4103TIP3   OH233723   1.092   2.911  12.584  0.2887  0.7082 -0.0969
 4103TIP3    H133724   1.052   2.873  12.506 -0.6542 -1.5400  1.4214
 4103TIP3    H233725   1.135   2.990  12.553  0.1768 -0.2892 -2.9332
 4104TIP3   OH233726   1.891   1.988   2.437  0.0251 -0.1557 -0.0057
 4104TIP3    H133727   1.987   1.993   2.435 -0.0090  0.4348 -0.1400
 4104TIP3    H233728   1.873   1.895   2.454  0.6404 -0.0638  1.2263
 4105TIP3   OH233729   4.016   2.438   6.123  0.6517  0.4443  0.2181
 4105TIP3    H133730   4.006   2.343   6.136  0.1386  0.1378 -2.1575
 4105TIP3    H233731   3.978   2.454   6.036 -1.1267  3.1497  1.4159
 4106TIP3   OH233732   2.541   2.336   4.270 -0.0722  0.0382  0.2843
 4106TIP3    H133733   2.580   2.324   4.183  0.3425  0.9799  0.3263
 4106TIP3    H233734   2.558   2.254   4.316  2.4871  0.6571  0.5191
 4107TIP3   OH233735   0.058   6.417   4.373 -0.2969 -0.2521 -0.1592
 4107TIP3    H133736   0.065   6.470   4.452 -2.0784  0.6406 -0.5904
 4107TIP3    H233737   0.047   6.327   4.405 -0.9229  0.0906  0.5921
 4108TIP3   OH233738   5.816   6.112   6.047 -0.4513 -0.0267 -0.3285
 4108TIP3    H133739   5.856   6.121   6.133  0.1047  0.9110 -0.6744
 4108TIP3    H233740   5.862   6.040   6.006 -1.1888 -0.9424  0.4092
 4109TIP3   OH233741   0.218   6.302  11.656  0.1753  0.1062 -0.6467
 4109TIP3    H133742   0.214   6.215  11.695 -2.1516  0.5331  0.1397
 4109TIP3    H233743   0.157   6.298  11.582 -0.9015  1.4304  0.1527
 4110TIP3   OH233744   3.124   3.009   1.269 -0.1922  0.1026 -0.5262
 4110TIP3    H133745   3.215   3.028   1.247  0.5652 -0.6740  1.7962
 4110TIP3    H233746   3.116   2.914   1.260 -0.4652  0.0399  0.2979
 4111TIP3   OH233747   0.284   0.295   3.461 -0.7169 -0.1902 -0.0060
 4111TIP3    H133748   0.296   0.254   3.547 -0.1850 -0.5269 -0.2432
 4111TIP3    H233749   0.308   0.228   3.398 -0.8804  0.1353 -0.4211
 4112TIP3   OH233750   1.487   1.538   5.758 -0.2002  0.1875  0.2106
 4112TIP3    H133751   1.501   1.622   5.713  1.4815 -0.5559 -0.7200
 4112TIP3    H233752   1.498   1.559   5.851 -0.4963  1.1334  0.0442
 4113TIP3   OH233753   1.716   4.268   0.805  0.1075 -0.5931  0.3029
 4113TIP3    H133754   1.635   4.218   0.800 -0.1457 -0.0340 -1.4677
 4113TIP3    H233755   1.695   4.343   0.860 -1.2310  0.6911 -1.8700
 4114TIP3   OH233756   5.088   2.853  12.043  0.6810  0.3720  0.2734
 4114TIP3    H133757   5.004   2.879  12.005  0.7420  0.2802  0.0779
 4114TIP3    H233758   5.103   2.764  12.011  0.1820 -0.1405  1.4228
 4115TIP3   OH233759   5.240   5.336  15.563 -0.2527 -0.3032 -0.0855
 4115TIP3    H133760   5.145   5.332  15.566 -0.1988 -1.0514  0.9645
 4115TIP3    H233761   5.267   5.256  15.518 -0.1234 -0.0305 -0.4963
 4116TIP3   OH233762   5.630   1.581  15.757 -0.1637 -0.7813  0.3716
 4116TIP3    H133763   5.541   1.561  15.786 -1.0401  0.2956 -1.5131
 4116TIP3    H233764   5.620   1.612  15.667  2.1503 -0.9173  0.0421
 4117TIP3   OH233765   4.190   4.603  11.050 -0.4415  0.4105  0.2197
 4117TIP3    H133766   4.221   4.607  10.960  0.0978  2.3526  0.4838
 4117TIP3    H233767   4.117   4.665  11.054 -2.6197 -2.0689  0.3145
 4118TIP3   OH233768   3.635   2.911   5.954 -0.2580  0.1077 -0.1400
 4118TIP3    H133769   3.657   2.843   5.890 -0.2745 -0.5983  0.5977
 4118TIP3    H233770   3.718   2.929   5.999 -0.0751  1.1520 -0.8634
 4119TIP3   OH233771   6.282   4.095   1.449  0.3848 -0.1779  0.1253
 4119TIP3    H133772   6.191   4.068   1.465  0.8834 -1.2980  1.1177
 4119TIP3    H233773   6.279   4.191   1.447 -1.0581 -0.2277 -1.2870
 4120TIP3   OH233774   2.550   2.076   5.927 -0.1395 -0.1383  0.1417
 4120TIP3    H133775   2.482   2.037   5.872 -0.6476 -0.3431  0.9024
 4120TIP3    H233776   2.512   2.076   6.015  1.1477 -0.9910  0.7147
 4121TIP3   OH233777   5.007   4.466  13.437  0.0663  0.1546 -0.0801
 4121TIP3    H133778   5.044   4.378  13.424  0.6511  0.1366  1.5251
 4121TIP3    H233779   5.026   4.513  13.356 -1.1254 -1.4929 -1.3401
 4122TIP3   OH233780   0.389   0.764   3.023 -0.2770 -0.2444  0.6677
 4122TIP3    H133781   0.375   0.670   3.009  0.4672 -0.2443 -0.1579
 4122TIP3    H233782   0.465   0.767   3.081 -2.0201 -0.1981  2.9943
 4123TIP3   OH233783   3.026   1.712   4.326 -0.2540 -0.0493  0.1255
 4123TIP3    H133784   2.990   1.671   4.248 -1.1236  2.1643 -0.6943
 4123TIP3    H233785   2.972   1.791   4.339  0.1801 -0.1215  2.6814
 4124TIP3   OH233786   5.656   2.648  11.942  0.0725 -0.7457  0.1698
 4124TIP3    H133787   5.679   2.726  11.892  0.9591 -0.9636  0.2284
 4124TIP3    H233788   5.571   2.668  11.981 -0.9677 -0.8579 -2.0183
 4125TIP3   OH233789   5.689   1.725   3.344 -0.2951 -0.4099  0.2230
 4125TIP3    H133790   5.617   1.772   3.301 -0.0668 -0.3600 -0.1079
 4125TIP3    H233791   5.660   1.634   3.347  0.6663 -0.8345 -2.1630
 4126TIP3   OH233792   5.819   5.843   5.817 -0.1520 -0.3234 -0.0609
 4126TIP3    H133793   5.732   5.831   5.855 -0.6368 -0.6025 -1.2480
 4126TIP3    H233794   5.803   5.870   5.726  0.9957 -0.2813 -0.2614
 4127TIP3   OH233795   0.191   1.284  13.415  0.7089 -0.5508  0.2991
 4127TIP3    H133796   0.250   1.318  13.348 -0.0127 -0.0436 -0.0869
 4127TIP3    H233797   0.104   1.295  13.378  0.3174 -0.4811  1.2298
 4128TIP3   OH233798   5.564   4.152  11.368 -0.7622  0.6383 -0.8718
 4128TIP3    H133799   5.537   4.061  11.361  1.0884  0.0679 -0.8577
 4128TIP3    H233800   5.554   4.187  11.279 -1.7762  0.5091 -0.8056
 4129TIP3   OH233801   1.604   5.637   0.727 -0.1145 -0.6691 -0.0365
 4129TIP3    H133802   1.594   5.710   0.788  1.3953  0.1939 -0.8096
 4129TIP3    H233803   1.650   5.674   0.652 -0.2085 -2.1930 -0.8653
 4130TIP3   OH233804   5.269   1.342  16.916 -0.2317  0.3723 -0.2566
 4130TIP3    H133805   5.315   1.261  16.894  1.1276  0.6630  1.3829
 4130TIP3    H233806   5.179   1.315  16.933  0.1919 -0.8015  0.1943
 4131TIP3   OH233807   4.379   2.259   2.170 -0.1068  0.5396 -0.3648
 4131TIP3    H133808   4.306   2.256   2.232 -0.0442 -2.3189 -0.3734
 4131TIP3    H233809   4.340   2.295   2.090 -1.7296 -1.6279 -0.5971
 4132TIP3   OH233810   5.162   4.417   2.438  0.2257  0.5697  0.0891
 4132TIP3    H133811   5.215   4.443   2.513  1.6723  0.3311 -0.8239
 4132TIP3    H233812   5.210   4.450   2.362  0.7511 -2.4322 -0.9379
 4133TIP3   OH233813   3.760   1.075   1.021 -0.0471 -0.5410  0.0008
 4133TIP3    H133814   3.801   1.068   1.107 -0.5104  1.1473  0.3718
 4133TIP3    H233815   3.672   1.109   1.038  0.0156  0.2516 -1.1581
 4134TIP3   OH233816   5.072   4.059  13.211  0.0552 -0.5521  0.0611
 4134TIP3    H133817   5.005   4.001  13.246 -0.8118 -0.9336 -2.1940
 4134TIP3    H233818   5.150   4.004  13.203 -0.2924 -0.9652 -0.4716
 4135TIP3   OH233819   3.476   2.511   5.417 -0.1772 -0.1342 -0.2512
 4135TIP3    H133820   3.482   2.472   5.504 -0.4135  0.2692 -0.0557
 4135TIP3    H233821   3.550   2.572   5.412  1.5016 -2.1701 -1.3543
 4136TIP3   OH233822   0.169   3.051   2.712  0.1814 -0.4496 -0.6780
 4136TIP3    H133823   0.229   3.020   2.780  0.1985  0.4360 -0.2929
 4136TIP3    H233824   0.164   3.146   2.725 -1.3391 -0.5237 -0.6948
 4137TIP3   OH233825   2.544   5.887  11.483 -0.0349  0.7937  0.4828
 4137TIP3    H133826   2.612   5.832  11.522  0.4548  1.0890  0.0678
 4137TIP3    H233827   2.580   5.911  11.397 -0.8346  0.6390  0.1065
 4138TIP3   OH233828   5.479   6.544   2.649  0.7662 -0.0402  0.1361
 4138TIP3    H133829   5.430   6.488   2.709  2.0397 -2.0621 -0.6562
 4138TIP3    H233830   5.530   6.602   2.707 -1.3825  1.0618  0.9549
 4139TIP3   OH233831   2.840   0.337  12.570  0.0105 -0.5089  0.2429
 4139TIP3    H133832   2.754   0.294  12.568 -0.3816  0.2876 -1.2504
 4139TIP3    H233833   2.836   0.400  12.498  0.8133  1.5201  1.8988
 4140TIP3   OH233834   4.339   0.260   3.140 -0.2611 -0.5594  0.6097
 4140TIP3    H133835   4.368   0.185   3.191  0.2707 -0.2988  0.6932
 4140TIP3    H233836   4.245   0.264   3.154 -0.2990 -1.2443  0.5611
 4141TIP3   OH233837   6.667   1.355  13.852 -0.0728 -0.1620  0.4406
 4141TIP3    H133838   6.688   1.342  13.944  0.3411 -0.1155  0.3566
 4141TIP3    H233839   6.641   1.269  13.820  0.3269 -0.2978  0.4687
 4142TIP3   OH233840   0.798   2.235  12.522  0.2611  0.0698  0.5877
 4142TIP3    H133841   0.865   2.186  12.570 -0.6590  0.2399  2.0739
 4142TIP3    H233842   0.826   2.326  12.529 -0.3905  0.1923  1.6502
 4143TIP3   OH233843   6.552   5.632  11.485  0.6594 -0.1101 -0.0807
 4143TIP3    H133844   6.457   5.631  11.498  1.0581  1.5170  3.7007
 4143TIP3    H233845   6.566   5.583  11.404 -3.2416 -2.1612  0.3607
 4144TIP3   OH233846   5.925   1.461   3.413  0.1096 -0.2271  0.2110
 4144TIP3    H133847   5.896   1.428   3.329  0.2427 -1.4525  0.6396
 4144TIP3    H233848   5.962   1.548   3.394 -1.9317  0.4889 -0.6416
 4145TIP3   OH233849   0.185   3.908   0.811  0.0141  0.4197  0.4146
 4145TIP3    H133850   0.210   4.000   0.806  0.5310  0.3155  1.1057
 4145TIP3    H233851   0.245   3.870   0.874  0.3226 -0.5685 -0.4573
 4146TIP3   OH233852   5.305   5.440  16.422  0.3461 -0.0966  0.0421
 4146TIP3    H133853   5.268   5.391  16.495  1.9869 -0.0425  0.9396
 4146TIP3    H233854   5.333   5.523  16.460  0.3195  0.3231 -0.8435
 4147TIP3   OH233855   6.156   3.111   4.625  0.4017 -0.1348 -0.2060
 4147TIP3    H133856   6.196   3.046   4.682  3.1156  0.6179 -1.1844
 4147TIP3    H233857   6.171   3.195   4.670  0.1048  0.1878 -0.6936
 4148TIP3   OH233858   4.227   1.255  16.160 -0.3268 -0.0401 -0.3992
 4148TIP3    H133859   4.140   1.217  16.157 -0.0010 -0.9697  1.2673
 4148TIP3    H233860   4.284   1.189  16.121  0.0166 -0.6009  1.0440
 4149TIP3   OH233861   0.293   6.638   4.829 -0.3850  0.3776 -0.7707
 4149TIP3    H133862   0.360   6.657   4.764 -1.7740  1.7713 -1.8104
 4149TIP3    H233863   0.338   6.582   4.893  1.4767  0.4477 -1.9718
 4150TIP3   OH233864   4.849   4.245  14.454  0.1280  0.5948  0.4680
 4150TIP3    H133865   4.877   4.336  14.445 -0.0223  0.6359  0.4032
 4150TIP3    H233866   4.784   4.247  14.525 -0.4457  0.6678 -0.0505
 4151TIP3   OH233867   0.765   1.453   2.526 -0.2055  0.7245 -0.2465
 4151TIP3    H133868   0.795   1.489   2.609  0.7669 -1.1706  0.2436
 4151TIP3    H233869   0.694   1.393   2.549 -0.0771  0.3534 -0.7931
 4152TIP3   OH233870   6.416   4.927  13.534 -0.4275  0.2307  0.1269
 4152TIP3    H133871   6.490   4.983  13.509  0.3946  0.0976  2.1542
 4152TIP3    H233872   6.400   4.873  13.457  1.8178  0.0347 -0.2383
 4153TIP3   OH233873   5.891   1.080  14.310  0.4874 -0.3862  0.5003
 4153TIP3    H133874   5.873   0.990  14.283 -0.3129 -0.3750  0.9820
 4153TIP3    H233875   5.806   1.123  14.307  1.0046  0.6151 -0.6521
 4154TIP3   OH233876   4.832   5.080   0.933  0.2754  0.9300 -0.1222
 4154TIP3    H133877   4.822   4.990   0.899  0.3317  0.5157  0.9441
 4154TIP3    H233878   4.764   5.130   0.887 -0.6947  0.0383  0.3160
 4155TIP3   OH233879   5.679   0.594  11.818  0.6234  0.3194 -0.1917
 4155TIP3    H133880   5.677   0.527  11.886  3.0584 -0.9564 -1.2876
 4155TIP3    H233881   5.654   0.675  11.862 -0.7115 -1.0019  1.5384
 4156TIP3   OH233882   5.024   4.219   1.477  0.2445  0.2013 -0.1805
 4156TIP3    H133883   4.931   4.232   1.457 -0.0724  0.2726  1.2767
 4156TIP3    H233884   5.065   4.302   1.455 -0.1976  0.4875  0.0703
 4157TIP3   OH233885   5.935   2.517  14.816 -0.1707 -0.1748 -0.5769
 4157TIP3    H133886   5.871   2.530  14.886  0.3078 -2.4405  0.3330
 4157TIP3    H233887   6.007   2.470  14.858  0.6233 -0.5540 -2.3332
 4158TIP3   OH233888   4.971   2.662  16.809 -0.1379 -0.2674 -0.4281
 4158TIP3    H133889   5.039   2.725  16.784 -1.1919  1.3453  0.7140
 4158TIP3    H233890   5.018   2.596  16.860  1.0807 -0.7721 -2.1319
 4159TIP3   OH233891   1.386   5.468   4.677  0.5315  0.2480 -0.1684
 4159TIP3    H133892   1.419   5.439   4.762  0.7693  0.7255 -0.0946
 4159TIP3    H233893   1.292   5.482   4.691  0.8774  2.0891  0.5162
 4160TIP3   OH233894   1.274   3.663   4.874 -0.1218  0.2948 -0.1419
 4160TIP3    H133895   1.203   3.601   4.855 -0.4087  0.9804 -1.3242
 4160TIP3    H233896   1.316   3.678   4.789  0.3999  1.1722  0.2669
 4161TIP3   OH233897   1.054   4.297  11.879  0.8307  0.0383  0.4618
 4161TIP3    H133898   0.965   4.328  11.898  0.4482 -1.7202  1.5764
 4161TIP3    H233899   1.096   4.373  11.838 -0.7997  1.2933  1.0121
 4162TIP3   OH233900   4.066   3.103  12.796 -0.0941  0.4007  0.0549
 4162TIP3    H133901   4.155   3.117  12.830 -0.2353  0.0281  0.5933
 4162TIP3    H233902   4.054   3.008  12.801  0.1762  0.2480 -1.8026
 4163TIP3   OH233903   5.045   6.432   1.497 -0.3108  0.1972 -0.3772
 4163TIP3    H133904   5.017   6.521   1.520  0.1196 -0.1032  1.4155
 4163TIP3    H233905   5.057   6.388   1.581  1.9146 -0.8096 -1.1589
 4164TIP3   OH233906   2.056   3.005  12.954  0.1638 -0.3829  0.1762
 4164TIP3    H133907   2.074   2.930  13.010 -1.7845 -0.5348  0.6356
 4164TIP3    H233908   1.992   2.973  12.890  0.1260  0.5902 -0.2847
 4165TIP3   OH233909   4.154   4.128  15.266  0.4759 -0.2840 -1.1205
 4165TIP3    H133910   4.090   4.174  15.319  0.7507 -1.4283  0.2428
 4165TIP3    H233911   4.175   4.188  15.195 -0.8422  0.7632 -0.6252
 4166TIP3   OH233912   3.739   3.459   6.362  0.2265  0.1983  0.5623
 4166TIP3    H133913   3.674   3.428   6.425 -0.0797  1.0051  0.6454
 4166TIP3    H233914   3.823   3.432   6.399 -0.0721 -1.3073  0.2013
 4167TIP3   OH233915   1.041   0.488   1.503 -0.2845  0.1344  0.3054
 4167TIP3    H133916   1.094   0.539   1.442 -0.3032  0.8210  0.8647
 4167TIP3    H233917   0.958   0.535   1.510 -1.0111 -0.9835 -0.6275
 4168TIP3   OH233918   4.167   4.093   5.827 -0.0041  0.4348 -0.4998
 4168TIP3    H133919   4.228   4.096   5.754 -0.5100  1.2637 -0.8864
 4168TIP3    H233920   4.146   4.184   5.845  0.1747  0.2418  0.7298
 4169TIP3   OH233921   3.357   3.718   1.008 -0.1584  0.3054 -0.0881
 4169TIP3    H133922   3.315   3.678   1.084  0.1545  0.4500  0.1628
 4169TIP3    H233923   3.327   3.665   0.934 -0.7671  0.4023  0.0899
 4170TIP3   OH233924   5.543   1.998   3.225 -0.0664 -0.2079 -0.1700
 4170TIP3    H133925   5.541   2.034   3.136 -0.8488 -1.0812 -0.5042
 4170TIP3    H233926   5.596   2.061   3.274 -0.0383  0.5415 -1.1365
 4171TIP3   OH233927   5.342   4.385   0.967  0.7148  0.3509 -0.5308
 4171TIP3    H133928   5.248   4.382   0.982  0.9102  0.2679  0.7620
 4171TIP3    H233929   5.351   4.415   0.876 -0.5829 -1.1480 -1.1850
 4172TIP3   OH233930   0.318   0.087   0.465  0.1219 -0.7344  0.1051
 4172TIP3    H133931   0.363   0.145   0.526 -0.0829 -1.7289  1.2257
 4172TIP3    H233932   0.247   0.047   0.517 -3.2369  2.1244 -2.0492
 4173TIP3   OH233933   5.055   0.140   1.397 -0.0900  0.0493  0.0255
 4173TIP3    H133934   5.091   0.117   1.483 -2.9635  0.5139  1.3869
 4173TIP3    H233935   5.078   0.065   1.342 -0.1007 -1.2468  1.7279
 4174TIP3   OH233936   5.336   1.302  14.378 -0.5415  0.0130  0.2103
 4174TIP3    H133937   5.248   1.295  14.341 -0.3166 -0.1715 -0.2910
 4174TIP3    H233938   5.394   1.266  14.311 -0.2252 -1.2821  1.1713
 4175TIP3   OH233939   1.565   2.035  14.771 -0.5491  0.1279 -0.5634
 4175TIP3    H133940   1.625   1.962  14.756 -0.1519  0.7463 -2.1364
 4175TIP3    H233941   1.570   2.086  14.690  0.3371  2.7239  1.0521
 4176TIP3   OH233942   6.499   6.385  10.951  0.1060 -0.2845  0.7028
 4176TIP3    H133943   6.474   6.366  11.041 -0.3152  1.3088  0.9341
 4176TIP3    H233944   6.574   6.445  10.959  0.3932 -0.5392 -0.0129
 4177TIP3   OH233945   1.848   3.254   1.797 -0.1069  0.7260 -0.2205
 4177TIP3    H133946   1.804   3.337   1.778  0.7725  1.0281 -0.9586
 4177TIP3    H233947   1.843   3.246   1.892  0.4536  1.9803 -0.0749
 4178TIP3   OH233948   0.152   5.013   0.862 -0.8059  0.1210 -0.0843
 4178TIP3    H133949   0.228   5.035   0.917 -2.1884  0.9103  1.5833
 4178TIP3    H233950   0.083   5.072   0.893 -1.9741 -0.2585 -1.8979
 4179TIP3   OH233951   3.677   3.624  15.921 -0.0248  0.1157 -0.5776
 4179TIP3    H133952   3.657   3.553  15.982  1.3275 -0.9349 -1.3291
 4179TIP3    H233953   3.754   3.667  15.958  1.1514 -0.8918 -1.8284
 4180TIP3   OH233954   0.715   5.978   0.763 -0.5762 -0.1912 -0.8362
 4180TIP3    H133955   0.707   6.032   0.841  0.3320 -0.9424 -0.2128
 4180TIP3    H233956   0.630   5.935   0.754 -0.8087  0.2025 -0.4868
 4181TIP3   OH233957   2.618   1.676  12.055 -0.5642 -0.3315 -0.0672
 4181TIP3    H133958   2.551   1.739  12.080 -0.6372 -0.3918 -0.1105
 4181TIP3    H233959   2.579   1.591  12.072 -0.1022 -0.3495  0.9162
 4182TIP3   OH233960   5.329   1.938   6.398 -0.0694  0.5951 -0.2446
 4182TIP3    H133961   5.336   1.868   6.463 -1.3723 -0.0192 -0.7384
 4182TIP3    H233962   5.267   2.000   6.437 -0.6084  0.3823 -0.7476
 4183TIP3   OH233963   1.667   6.393  16.980 -0.6169 -0.4676  0.2284
 4183TIP3    H133964   1.681   6.461  17.046  1.5201  0.6678 -1.3469
 4183TIP3    H233965   1.743   6.399  16.922 -1.9482 -2.1135 -1.7688
 4184TIP3   OH233966   3.252   6.343  16.103  0.3909  0.1695  0.2426
 4184TIP3    H133967   3.343   6.335  16.131  1.0435  0.0848 -1.8498
 4184TIP3    H233968   3.225   6.254  16.082  0.3411  0.4084 -0.7163
 4185TIP3   OH233969   0.531   3.227  13.415 -0.2973  0.2756  0.5207
 4185TIP3    H133970   0.619   3.191  13.406 -0.5937 -0.7618  1.7189
 4185TIP3    H233971   0.532   3.306  13.361  1.0332 -0.3235 -0.3497
 4186TIP3   OH233972   1.546   2.780   0.410 -0.1968  0.1928  0.0098
 4186TIP3    H133973   1.486   2.817   0.346 -0.6060 -0.3209  0.0893
 4186TIP3    H233974   1.572   2.695   0.373 -0.6392 -0.2228  0.6383
 4187TIP3   OH233975   5.670   2.353  16.064 -0.6371 -0.2788 -0.1827
 4187TIP3    H133976   5.697   2.366  16.155 -1.0974 -1.2696  0.1040
 4187TIP3    H233977   5.748   2.375  16.013 -0.3089  0.0755  0.4598
 4188TIP3   OH233978   1.792   4.994  13.764  0.0935  0.2360  0.0646
 4188TIP3    H133979   1.783   4.905  13.796 -0.5409 -0.5194 -2.1176
 4188TIP3    H233980   1.869   4.990  13.706 -1.7263  0.3535 -2.4288
 4189TIP3   OH233981   2.557   6.779   2.412 -0.3106 -0.7248  0.0524
 4189TIP3    H133982   2.643   6.758   2.449 -0.0849  2.1851  1.3757
 4189TIP3    H233983   2.576   6.807   2.323  0.0226 -0.8399  0.0854
 4190TIP3   OH233984   6.166   3.380  14.525  0.3788  0.8353 -0.2755
 4190TIP3    H133985   6.159   3.421  14.611 -1.0458  0.1304 -0.0375
 4190TIP3    H233986   6.260   3.360  14.516  0.9579  3.2805 -0.0318
 4191TIP3   OH233987   0.668   6.342  15.195  0.5875  0.3266 -0.0826
 4191TIP3    H133988   0.716   6.278  15.142  2.9716  1.2231  0.9395
 4191TIP3    H233989   0.682   6.314  15.285 -2.6166 -0.6082  0.1868
 4192TIP3   OH233990   3.620   4.438   5.691 -0.0154 -0.7473 -0.2226
 4192TIP3    H133991   3.573   4.492   5.627  0.9796 -0.8809 -1.0768
 4192TIP3    H233992   3.712   4.455   5.674  0.2547 -0.1340  1.7615
 4193TIP3   OH233993   5.581   3.457   2.999 -0.0169 -0.1757 -0.3029
 4193TIP3    H133994   5.500   3.439   2.951  0.7156 -1.3382 -1.1266
 4193TIP3    H233995   5.594   3.380   3.054  0.4689  0.0561 -0.0960
 4194TIP3   OH233996   2.524   1.311   4.520 -0.1501  0.6278 -0.2486
 4194TIP3    H133997   2.550   1.403   4.526  1.3331  0.1553  1.2292
 4194TIP3    H233998   2.535   1.278   4.609  1.2297 -1.4518 -1.1601
 4195TIP3   OH233999   3.660   0.604   4.341 -0.1707  0.4754  0.1188
 4195TIP3    H134000   3.654   0.549   4.263 -0.2134 -0.4613  0.7818
 4195TIP3    H234001   3.739   0.656   4.327 -0.9942  1.3982 -1.2408
 4196TIP3   OH234002   4.069   3.347  14.606 -0.5932 -0.0814  0.2929
 4196TIP3    H134003   4.089   3.264  14.561 -1.4566 -0.0348 -0.1922
 4196TIP3    H234004   4.134   3.353  14.676  0.2819 -0.5481 -0.4624
 4197TIP3   OH234005   3.316   0.703  11.824  0.1391  0.1967  0.0383
 4197TIP3    H134006   3.328   0.610  11.845  2.2012  0.8275  1.8650
 4197TIP3    H234007   3.385   0.722  11.760  0.8182  0.8472  0.9505
 4198TIP3   OH234008   4.736   0.020   5.480  0.1393 -0.3829 -0.8413
 4198TIP3    H134009   4.721   0.095   5.538 -0.2230 -0.2489 -1.1040
 4198TIP3    H234010   4.779  -0.045   5.536  1.3953  0.4057 -0.8831
 4199TIP3   OH234011   4.823   1.976  16.613 -0.2737 -0.4166 -0.7539
 4199TIP3    H134012   4.821   2.061  16.657  0.3472 -0.0662 -1.3991
 4199TIP3    H234013   4.734   1.942  16.623  0.6987 -1.9309  3.8397
 4200TIP3   OH234014   6.308   6.627  14.779  0.3027  0.2823 -0.1504
 4200TIP3    H134015   6.393   6.590  14.755  0.4145 -0.2880  1.0748
 4200TIP3    H234016   6.312   6.635  14.874 -1.0815  0.0978 -0.0752
 4201TIP3   OH234017   1.845   3.635   4.650 -0.1770  0.1492 -0.3030
 4201TIP3    H134018   1.933   3.658   4.681  0.2818 -2.2546  0.2606
 4201TIP3    H234019   1.786   3.687   4.705  0.8858  2.5487 -1.3553
 4202TIP3   OH234020   4.717   0.034  15.022 -0.2596 -0.2419 -0.1675
 4202TIP3    H134021   4.774  -0.016  15.080 -1.0264 -0.0039  0.8050
 4202TIP3    H234022   4.770   0.050  14.943  1.2905  0.6661  1.0307
 4203TIP3   OH234023   6.141   2.256   1.818  0.2328  0.3519 -0.3418
 4203TIP3    H134024   6.138   2.215   1.731 -1.7328  0.6109 -0.4127
 4203TIP3    H234025   6.127   2.349   1.800 -0.7723  0.3217  0.3170
 4204TIP3   OH234026   3.506   4.403   3.722  0.1276  0.2164  0.6295
 4204TIP3    H134027   3.494   4.422   3.815  0.5447  2.6050  0.2080
 4204TIP3    H234028   3.421   4.369   3.694 -0.1688  0.0085  1.7475
 4205TIP3   OH234029   2.888   3.708  15.862 -0.7434 -0.8844  0.4741
 4205TIP3    H134030   2.909   3.788  15.814  0.0721 -1.6247 -0.4262
 4205TIP3    H234031   2.949   3.707  15.936 -0.9383 -0.5359  0.6373
 4206TIP3   OH234032   1.885   1.958  17.069 -0.3741  0.1798 -0.4761
 4206TIP3    H134033   1.798   1.940  17.032 -0.3423  0.5973 -0.7526
 4206TIP3    H234034   1.909   1.876  17.113 -0.2831 -0.4226 -1.6313
 4207TIP3   OH234035   6.538   6.740   1.822  0.4248  0.1749  0.0155
 4207TIP3    H134036   6.478   6.666   1.836 -0.0797  0.0354 -2.5852
 4207TIP3    H234037   6.480   6.816   1.815  0.4576 -0.0573 -3.1780
 4208TIP3   OH234038   4.353   3.500   2.258 -0.2588 -0.0266 -0.8924
 4208TIP3    H134039   4.348   3.414   2.216 -1.3220 -0.2398 -0.3450
 4208TIP3    H234040   4.356   3.562   2.185 -1.3800 -0.4321 -1.3013
 4209TIP3   OH234041   5.571   0.396  16.626 -0.4146 -0.5893  0.0042
 4209TIP3    H134042   5.573   0.491  16.623 -0.7041 -0.5294  1.4117
 4209TIP3    H234043   5.661   0.370  16.641 -0.5885 -0.4596  1.3155
 4210TIP3   OH234044   6.368   4.629  17.161 -0.0719  0.2380 -0.6811
 4210TIP3    H134045   6.429   4.610  17.232  0.6138  0.2326 -1.2679
 4210TIP3    H234046   6.409   4.591  17.083 -0.0070  1.7103 -1.3756
 4211TIP3   OH234047   2.145   2.545   2.980 -0.0110  0.2198 -0.4224
 4211TIP3    H134048   2.206   2.484   3.022  0.2742  0.3685 -0.6147
 4211TIP3    H234049   2.072   2.491   2.951 -0.6924  0.2721  1.1866
 4212TIP3   OH234050   1.562   6.472   6.293 -0.3139 -0.5910  0.3578
 4212TIP3    H134051   1.511   6.526   6.232 -0.3225 -1.8858 -0.8382
 4212TIP3    H234052   1.564   6.521   6.374 -1.1700  0.7294 -0.4059
 4213TIP3   OH234053   6.365   1.040   2.561  0.0528 -0.0650 -0.5311
 4213TIP3    H134054   6.288   1.000   2.600  0.3000 -1.2741 -1.2443
 4213TIP3    H234055   6.415   1.075   2.635 -0.5233 -0.4545  0.0414
 4214TIP3   OH234056   3.094   3.332   4.080 -0.0320 -0.2610  0.7240
 4214TIP3    H134057   3.092   3.243   4.115 -0.3038 -0.9880 -1.1158
 4214TIP3    H234058   3.170   3.334   4.022  0.5500  1.0142  1.5051
 4215TIP3   OH234059   6.038   4.211   4.914 -0.0565 -0.0308 -0.4131
 4215TIP3    H134060   5.949   4.212   4.878  0.4683  1.6998 -1.7128
 4215TIP3    H234061   6.077   4.131   4.878 -0.9298 -0.5468 -0.2275
 4216TIP3   OH234062   6.113   6.784  12.446 -0.3324  0.0999 -0.2733
 4216TIP3    H134063   6.151   6.702  12.414  1.8306  0.6953  0.7382
 4216TIP3    H234064   6.070   6.822  12.369 -1.9546 -2.2667 -0.6167
 4217TIP3   OH234065   1.090   5.530   0.141 -0.0364 -0.3584  0.0312
 4217TIP3    H134066   1.160   5.498   0.198 -0.2423 -0.3483  0.2863
 4217TIP3    H234067   1.074   5.619   0.170 -1.8259 -1.1465  1.5730
 4218TIP3   OH234068   6.422   4.174   3.960 -0.3003  0.3049 -0.2085
 4218TIP3    H134069   6.351   4.222   4.001  0.6737  4.2573 -2.8506
 4218TIP3    H234070   6.491   4.172   4.026 -0.0575  3.3790 -0.3098
 4219TIP3   OH234071   2.710   4.832   3.884 -0.2916  0.5849 -0.4397
 4219TIP3    H134072   2.790   4.805   3.928 -0.1754  1.2146 -0.2585
 4219TIP3    H234073   2.668   4.893   3.945 -0.0452  1.5888 -1.2526
 4220TIP3   OH234074   5.599   5.533   4.210 -0.5048 -0.4894  0.2601
 4220TIP3    H134075   5.536   5.587   4.257  1.4458  0.5375  1.7906
 4220TIP3    H234076   5.577   5.544   4.117 -1.9767  0.5759  0.7348
 4221TIP3   OH234077   3.143   1.970  15.890  0.2556 -0.0738 -0.5268
 4221TIP3    H134078   3.155   2.065  15.891 -2.2800  0.2859 -1.5327
 4221TIP3    H234079   3.077   1.953  15.956  0.7888 -1.1651 -0.2604
 4222TIP3   OH234080   3.931   2.064  13.402 -0.0368 -0.9758  0.5140
 4222TIP3    H134081   4.023   2.062  13.377 -0.0501  0.9835  0.2488
 4222TIP3    H234082   3.931   2.034  13.493  0.7609 -1.7383  0.2735
 4223TIP3   OH234083   6.291   2.506   0.924 -0.0670  0.2384  0.3698
 4223TIP3    H134084   6.202   2.471   0.918 -0.7233  1.8452  0.5255
 4223TIP3    H234085   6.283   2.597   0.895  1.3250  0.7079  1.4295
 4224TIP3   OH234086   3.192   0.473   2.192  0.3113 -0.0384  0.0262
 4224TIP3    H134087   3.190   0.528   2.114 -0.5323 -1.2260 -0.7992
 4224TIP3    H234088   3.156   0.528   2.261 -2.2995 -0.1632 -1.2036
 4225TIP3   OH234089   6.747   6.348   2.036 -0.3749 -0.1093  0.2083
 4225TIP3    H134090   6.681   6.415   2.050 -0.1779  0.5549 -1.8620
 4225TIP3    H234091   6.736   6.287   2.109 -1.6343  1.3018  1.2093
 4226TIP3   OH234092   5.115   4.204   3.297 -0.3894 -0.5097 -0.5854
 4226TIP3    H134093   5.156   4.135   3.349 -2.5895 -1.0570  0.4956
 4226TIP3    H234094   5.131   4.284   3.347  0.4295 -0.5239 -0.8144
 4227TIP3   OH234095   4.512   4.635   3.896  0.2084 -0.7965 -0.3345
 4227TIP3    H134096   4.445   4.664   3.958  0.5872  1.4806 -0.9086
 4227TIP3    H234097   4.495   4.542   3.883 -1.9426 -0.5748  0.6367
 4228TIP3   OH234098   4.392   0.977  13.512  0.0417 -0.6541  0.0529
 4228TIP3    H134099   4.420   0.933  13.592 -0.8794 -1.2540  0.0422
 4228TIP3    H234100   4.474   1.008  13.472  0.4914 -0.1553  1.3294
 4229TIP3   OH234101   1.604   2.318   3.968  0.0442 -0.1903 -0.6846
 4229TIP3    H134102   1.640   2.301   3.881  1.3430 -0.9286 -0.0369
 4229TIP3    H234103   1.652   2.257   4.025 -0.2592  0.8040  0.6516
 4230TIP3   OH234104   3.104   0.256  16.826 -0.8435 -0.1334 -0.7750
 4230TIP3    H134105   3.141   0.341  16.847 -2.5933  0.3519  0.4815
 4230TIP3    H234106   3.079   0.219  16.911  1.9035 -2.8755 -1.0940
 4231TIP3   OH234107   6.473   5.428  16.345  0.4704  0.3436 -0.3337
 4231TIP3    H134108   6.385   5.393  16.345  1.0260 -1.0916  1.3413
 4231TIP3    H234109   6.484   5.466  16.257 -1.0453 -1.3277 -1.2642
 4232TIP3   OH234110   3.198   3.365   4.364 -0.2733  0.3331  0.1543
 4232TIP3    H134111   3.151   3.409   4.293 -0.9730  0.9211  0.9745
 4232TIP3    H234112   3.193   3.426   4.438  1.1726  0.0944  0.4645
 4233TIP3   OH234113   2.576   1.061  15.543  0.6642 -0.0276  0.3733
 4233TIP3    H134114   2.667   1.090  15.542  1.0482 -0.6710  4.8642
 4233TIP3    H234115   2.531   1.127  15.597 -0.8981 -1.2867  0.6488
 4234TIP3   OH234116   0.990   3.980  15.544 -0.3373 -0.1941 -0.2213
 4234TIP3    H134117   1.040   3.913  15.497  1.0504 -1.2054  2.6079
 4234TIP3    H234118   1.035   4.062  15.524 -0.7140 -0.3637 -1.8880
 4235TIP3   OH234119   3.367   0.624   2.790 -0.1732 -0.3708 -0.2595
 4235TIP3    H134120   3.274   0.634   2.812  0.5803  0.9410  2.5044
 4235TIP3    H234121   3.388   0.535   2.818  0.0227  0.2420  1.6111
 4236TIP3   OH234122   0.639   1.560   0.810  0.0245  0.5836 -0.0305
 4236TIP3    H134123   0.661   1.652   0.793 -0.5098  0.7115 -0.0316
 4236TIP3    H234124   0.692   1.511   0.748 -0.4484  0.9483 -0.7281
 4237TIP3   OH234125   4.641   0.713   3.338  0.2137 -0.1648 -0.4395
 4237TIP3    H134126   4.632   0.722   3.243  0.4949  0.4429 -0.4122
 4237TIP3    H234127   4.675   0.798   3.366  2.7452 -1.2546 -0.1359
 4238TIP3   OH234128   3.989   2.657   6.924  0.1253 -0.3035 -0.0330
 4238TIP3    H134129   3.996   2.751   6.943  1.9017 -0.2646 -0.8359
 4238TIP3    H234130   3.944   2.653   6.840  0.0486 -0.1745  0.0009
 4239TIP3   OH234131   6.031   3.548  12.380 -0.2052 -0.0716 -0.5698
 4239TIP3    H134132   5.970   3.612  12.417  0.8892  0.6836 -0.0233
 4239TIP3    H234133   6.030   3.566  12.286  0.0603  0.7469 -0.4264
 4240TIP3   OH234134   6.635   2.157  10.848 -0.0410  0.6112  0.3444
 4240TIP3    H134135   6.685   2.104  10.786 -0.2838  0.9188 -0.1197
 4240TIP3    H234136   6.555   2.107  10.863  0.5959 -0.1025  1.4404
 4241TIP3   OH234137   6.083   5.907  13.893  0.1708 -0.0001 -0.3563
 4241TIP3    H134138   6.071   5.812  13.885 -0.5411  0.2736 -2.7556
 4241TIP3    H234139   6.064   5.925  13.985 -0.6306 -2.0608 -0.0881
 4242TIP3   OH234140   5.549   5.275  10.792 -0.2037  0.2619 -0.3923
 4242TIP3    H134141   5.601   5.354  10.774 -0.1491  0.4609  0.6012
 4242TIP3    H234142   5.485   5.304  10.857 -0.5021 -0.3953 -0.3970
 4243TIP3   OH234143   0.563   2.796  12.884 -0.4228  0.0553 -0.0529
 4243TIP3    H134144   0.507   2.732  12.840  1.4659 -0.3480 -1.9456
 4243TIP3    H234145   0.638   2.745  12.915  0.2697  1.0631 -0.0625
 4244TIP3   OH234146   3.335   2.556  16.243 -0.5339 -0.0293 -0.1500
 4244TIP3    H134147   3.385   2.485  16.283 -0.0581  1.0137  1.1545
 4244TIP3    H234148   3.393   2.632  16.249 -1.5520  0.7674 -0.3101
 4245TIP3   OH234149   2.800   5.401  14.879  0.6591  0.5885 -0.2942
 4245TIP3    H134150   2.722   5.379  14.929 -0.8813  1.8837 -2.0120
 4245TIP3    H234151   2.864   5.429  14.944 -0.4591 -0.0767  1.1126
 4246TIP3   OH234152   6.629   4.896   3.760  0.2288  0.5691 -0.1469
 4246TIP3    H134153   6.593   4.821   3.714 -0.2425  1.3736 -1.1124
 4246TIP3    H234154   6.604   4.882   3.852 -0.3755 -0.1503 -0.4166
 4247TIP3   OH234155   2.468   4.097  11.720 -0.2755 -0.6535  0.6710
 4247TIP3    H134156   2.433   4.157  11.654 -0.5964 -1.4225  0.1395
 4247TIP3    H234157   2.557   4.078  11.690  0.7121  1.4408  2.1154
 4248TIP3   OH234158   0.232   0.108  12.803 -0.1783  0.1804  0.4953
 4248TIP3    H134159   0.194   0.172  12.864  0.6692  1.3046 -0.1512
 4248TIP3    H234160   0.315   0.084  12.843 -1.1479 -1.6542  1.4866
 4249TIP3   OH234161   0.946   4.638   3.961  0.0382 -0.6581  0.0794
 4249TIP3    H134162   0.918   4.618   4.050  0.1323 -1.2558 -0.0257
 4249TIP3    H234163   0.886   4.707   3.932  0.6568  0.2858  0.9734
 4250TIP3   OH234164   0.670   4.696  15.012  0.0359 -0.8319  0.6649
 4250TIP3    H134165   0.732   4.709  15.084  2.7172 -0.0531 -1.6664
 4250TIP3    H234166   0.623   4.779  15.006  0.4612 -0.5685  0.9140
 4251TIP3   OH234167   1.083   1.032   2.770 -0.4853  0.1788 -0.3270
 4251TIP3    H134168   1.057   1.112   2.726 -0.6736  0.0775 -0.4009
 4251TIP3    H234169   1.035   1.033   2.853 -0.1015  0.3885 -0.1065
 4252TIP3   OH234170   2.091   3.658  12.741  0.1254 -0.0468 -0.3862
 4252TIP3    H134171   2.012   3.614  12.711  0.0216 -0.0654 -0.0891
 4252TIP3    H234172   2.132   3.595  12.801  0.7284 -0.3171 -1.0759
 4253TIP3   OH234173   4.415   2.481  11.535  0.3095  0.1458  0.1629
 4253TIP3    H134174   4.510   2.491  11.538  0.3976 -0.9522  2.0802
 4253TIP3    H234175   4.388   2.487  11.627 -1.4213  0.0091 -0.3236
 4254TIP3   OH234176   1.223   2.337  16.515  0.3183 -0.7360  0.0631
 4254TIP3    H134177   1.169   2.258  16.517  0.5734 -1.0072 -2.0892
 4254TIP3    H234178   1.163   2.406  16.489  0.1374 -0.2323  1.7597
 4255TIP3   OH234179   0.272   2.623  10.936  0.3308 -0.3509 -0.0633
 4255TIP3    H134180   0.328   2.663  11.001  0.9236 -0.0917 -0.7293
 4255TIP3    H234181   0.332   2.592  10.868 -0.3625  0.4306 -1.0520
 4256TIP3   OH234182   5.929   2.350  10.763  0.4414  0.1090  0.1689
 4256TIP3    H134183   5.898   2.441  10.758 -2.0289 -0.7560 -1.0979
 4256TIP3    H234184   5.887   2.314  10.841  0.1907 -0.3771 -0.1869
 4257TIP3   OH234185   2.705   4.519   2.172  0.4146 -0.6813  0.2302
 4257TIP3    H134186   2.780   4.576   2.153 -0.1306  0.0037  0.1247
 4257TIP3    H234187   2.684   4.479   2.087  0.7551 -0.9939  0.2908
 4258TIP3   OH234188   3.365   1.824   4.155 -0.1771  0.0875  0.4166
 4258TIP3    H134189   3.304   1.893   4.129  0.2130 -0.3686 -1.8276
 4258TIP3    H234190   3.376   1.835   4.249 -0.3158  2.9226  0.1300
 4259TIP3   OH234191   6.128   6.298   5.009 -0.0231 -0.2774 -0.3042
 4259TIP3    H134192   6.187   6.223   5.012 -0.9023 -1.0475 -1.5661
 4259TIP3    H234193   6.045   6.265   5.043 -1.1689 -0.6438 -3.2932
 4260TIP3   OH234194   6.056   4.220   1.062 -0.0507 -0.2283 -0.4133
 4260TIP3    H134195   6.104   4.287   1.013 -0.7750  1.0651  0.6338
 4260TIP3    H234196   6.013   4.167   0.994  1.5552 -0.4235 -1.2897
 4261TIP3   OH234197   3.352   0.227  10.212 -0.2170  0.1784  0.8463
 4261TIP3    H134198   3.377   0.202  10.301  2.0521 -3.2780 -0.6249
 4261TIP3    H234199   3.284   0.165  10.188 -2.4667  2.5456  0.8973
 4262TIP3   OH234200   2.768   2.055  10.911 -0.3084 -0.0939 -0.4471
 4262TIP3    H134201   2.739   1.984  10.968  1.5564 -0.7060 -0.2191
 4262TIP3    H234202   2.689   2.080  10.862 -1.0019 -2.3269 -0.5315
 4263TIP3   OH234203   3.131   1.191   2.005 -0.2110 -0.0773 -0.0991
 4263TIP3    H134204   3.102   1.172   2.094  0.0431  1.0748  0.2434
 4263TIP3    H234205   3.225   1.210   2.013 -0.1183 -0.2928 -0.6547
 4264TIP3   OH234206   5.642   5.634   2.776 -0.1630  0.1396 -0.0120
 4264TIP3    H134207   5.645   5.580   2.856  0.7595  0.4217  0.1558
 4264TIP3    H234208   5.703   5.590   2.717  0.2446  0.7502 -0.0393
 4265TIP3   OH234209   6.564   0.453  11.898  0.3835  0.5646 -0.3737
 4265TIP3    H134210   6.477   0.431  11.863  0.0808  0.3707  0.4823
 4265TIP3    H234211   6.546   0.517  11.967  0.7300 -1.1689  1.3313
 4266TIP3   OH234212   1.548   2.797  16.559  0.1156 -0.0117 -1.1019
 4266TIP3    H134213   1.479   2.861  16.539 -0.8053 -0.3840  0.7707
 4266TIP3    H234214   1.629   2.848  16.557 -0.6556  1.3644  0.8621
 4267TIP3   OH234215   5.526   3.097   3.800  0.2290  0.3686  0.0976
 4267TIP3    H134216   5.467   3.172   3.791  0.4123  0.4236 -0.6305
 4267TIP3    H234217   5.552   3.076   3.711  0.8458 -0.0343  0.3735
 4268TIP3   OH234218   0.852   3.252   1.283  0.3964 -0.3941  0.0147
 4268TIP3    H134219   0.876   3.163   1.309 -1.3021 -0.8504  0.0989
 4268TIP3    H234220   0.915   3.276   1.215  1.1884 -1.4559  0.3687
 4269TIP3   OH234221   4.244   1.617   5.960  0.4957 -0.8845  0.2477
 4269TIP3    H134222   4.152   1.639   5.948  0.1326 -2.1366  0.6511
 4269TIP3    H234223   4.278   1.683   6.019  0.3098  0.6516 -1.3327
 4270TIP3   OH234224   3.549   5.221  11.603 -0.7354 -0.5608 -0.1055
 4270TIP3    H134225   3.545   5.210  11.508 -1.8432 -0.4138 -0.0876
 4270TIP3    H234226   3.528   5.134  11.638  0.7461 -0.8890  0.0132
 4271TIP3   OH234227   3.901   4.588  11.860 -0.2297 -0.1703  0.1967
 4271TIP3    H134228   3.938   4.608  11.774 -0.2914  0.1482  0.2429
 4271TIP3    H234229   3.885   4.674  11.900 -0.3583 -0.3135  0.4587
 4272TIP3   OH234230   1.420   1.509  12.505  0.3697  0.1693  0.1598
 4272TIP3    H134231   1.329   1.506  12.536  0.0372  0.3747 -0.7925
 4272TIP3    H234232   1.427   1.592  12.459  0.9102 -0.0673 -0.1863
 4273TIP3   OH234233   3.954   1.654  15.629 -0.3336  0.0107  0.0728
 4273TIP3    H134234   3.990   1.591  15.692 -1.4082  0.5628  1.2745
 4273TIP3    H234235   4.031   1.686  15.581  0.4818 -0.5872  0.9460
 4274TIP3   OH234236   1.785   5.438   2.661 -0.3840 -0.0218  0.4389
 4274TIP3    H134237   1.843   5.494   2.609 -0.6232 -0.1119  0.0755
 4274TIP3    H234238   1.812   5.349   2.639 -0.1017 -0.0558  0.9076
 4275TIP3   OH234239   1.307   5.368   0.994  0.3581  0.3625  0.0583
 4275TIP3    H134240   1.379   5.378   0.932  1.6307  1.2600  1.6407
 4275TIP3    H234241   1.235   5.420   0.956  1.1688  1.0232 -0.5892
 4276TIP3   OH234242   2.374   2.298  14.693 -0.1621  0.1270  0.1179
 4276TIP3    H134243   2.431   2.374  14.690 -2.3067  1.7477 -0.8975
 4276TIP3    H234244   2.351   2.281  14.601 -0.3584 -1.2458  0.4040
 4277TIP3   OH234245   1.931   5.161   1.899 -0.0772  0.2074  0.8160
 4277TIP3    H134246   1.896   5.240   1.857 -0.4482 -0.4244 -0.0670
 4277TIP3    H234247   2.005   5.136   1.845 -0.0303 -0.1202  1.0315
 4278TIP3   OH234248   0.632   4.215   0.884 -0.4467 -0.0669 -0.4944
 4278TIP3    H134249   0.712   4.193   0.931 -1.8094 -1.9825  0.9478
 4278TIP3    H234250   0.561   4.181   0.938 -2.0620 -2.3264 -3.8877
 4279TIP3   OH234251   6.231   3.090   0.144 -0.1117 -0.1385  0.0144
 4279TIP3    H134252   6.322   3.079   0.117 -0.0836  0.9921 -0.3593
 4279TIP3    H234253   6.185   3.115   0.064 -0.9116 -1.4935  0.0208
 4280TIP3   OH234254   1.088   2.196   0.419 -0.3628  0.1665  0.2085
 4280TIP3    H134255   1.051   2.283   0.411  0.6386  0.4682 -1.4439
 4280TIP3    H234256   1.181   2.206   0.395 -0.0012 -1.1575  0.9615
 4281TIP3   OH234257   5.680   2.199  11.645  0.3305  0.0909  0.3021
 4281TIP3    H134258   5.664   2.279  11.695  0.6727 -0.9623  2.1440
 4281TIP3    H234259   5.620   2.134  11.684 -0.7442 -0.2850 -1.8899
 4282TIP3   OH234260   6.599   2.335  13.306  0.2320  0.0968  0.7939
 4282TIP3    H134261   6.635   2.252  13.336  1.9750  0.0381 -1.3392
 4282TIP3    H234262   6.643   2.352  13.223 -0.8505  2.6479  0.6857
 4283TIP3   OH234263   4.658   2.669  17.228 -0.4798 -0.7045  0.1578
 4283TIP3    H134264   4.694   2.581  17.235 -0.5440 -0.6652  1.0245
 4283TIP3    H234265   4.719   2.724  17.278  0.1577 -0.0797 -1.2735
 4284TIP3   OH234266   4.295   3.178   5.104  0.3667  0.3849 -0.5334
 4284TIP3    H134267   4.356   3.109   5.129  1.1397  0.2764 -2.5864
 4284TIP3    H234268   4.273   3.159   5.013 -4.6507 -0.9377  0.8169
 4285TIP3   OH234269   6.224   0.699  13.076 -0.4135 -0.2618 -0.1002
 4285TIP3    H134270   6.153   0.701  13.011  0.5798  0.5573 -1.2102
 4285TIP3    H234271   6.234   0.791  13.101 -1.7332 -0.7425  2.3148
 4286TIP3   OH234272   4.007   5.542   1.958 -0.4169 -0.1118 -0.3004
 4286TIP3    H134273   4.090   5.521   2.000 -1.4036 -0.8840  1.3046
 4286TIP3    H234274   3.994   5.635   1.975 -0.6760 -0.3592  0.8657
 4287TIP3   OH234275   3.504   6.708   1.170  0.2513  0.0449 -0.1066
 4287TIP3    H134276   3.573   6.723   1.235  0.9617  2.0611 -1.2815
 4287TIP3    H234277   3.438   6.656   1.217  1.4657  0.1279  1.7492
 4288TIP3   OH234278   6.292   5.672  11.573  0.5883  0.0657 -0.0641
 4288TIP3    H134279   6.234   5.675  11.649  2.1520  0.3507  1.1198
 4288TIP3    H234280   6.232   5.680  11.498 -0.6508  3.6424  1.2202
 4289TIP3   OH234281   0.207   0.265   1.731  0.3057 -0.3557 -0.4686
 4289TIP3    H134282   0.287   0.231   1.773 -0.3192 -0.4843  0.6293
 4289TIP3    H234283   0.176   0.192   1.678  0.3004 -0.6899 -0.0117
 4290TIP3   OH234284   3.354   4.573   4.622 -0.5099 -0.2917  0.2184
 4290TIP3    H134285   3.299   4.521   4.679 -1.1015  0.9949  0.8573
 4290TIP3    H234286   3.406   4.627   4.682  0.1991 -0.2577 -0.4175
 4291TIP3   OH234287   3.936   6.347  15.597  0.0037 -0.1193  0.2726
 4291TIP3    H134288   3.884   6.331  15.519 -0.1403  0.5582  0.2258
 4291TIP3    H234289   3.906   6.280  15.659 -0.0067 -0.5458 -0.1871
 4292TIP3   OH234290   0.139   1.515  11.688  0.1804  0.0552 -0.1904
 4292TIP3    H134291   0.102   1.428  11.699 -0.6848 -0.0627 -3.5627
 4292TIP3    H234292   0.228   1.500  11.658  1.0304  0.3603  2.1061
 4293TIP3   OH234293   6.245   3.932  16.589 -0.1570 -0.3145  0.6043
 4293TIP3    H134294   6.330   3.919  16.631 -0.8297 -1.8423  1.5342
 4293TIP3    H234295   6.262   3.921  16.496  1.1111  1.8266  0.5438
 4294TIP3   OH234296   3.005   4.051  13.317 -0.1463 -0.1994  0.0792
 4294TIP3    H134297   2.979   4.121  13.377  0.9646 -1.0464  1.5627
 4294TIP3    H234298   2.926   4.033  13.266 -0.9136  0.9648  0.8317
 4295TIP3   OH234299   1.873   0.694   3.557 -0.2208 -0.0395 -0.6875
 4295TIP3    H134300   1.840   0.621   3.506  0.3586 -1.8603  1.4716
 4295TIP3    H234301   1.848   0.675   3.647 -1.8846  3.4770 -0.2966
 4296TIP3   OH234302   5.662   5.641  14.722 -0.1490  0.0401 -0.1257
 4296TIP3    H134303   5.607   5.578  14.676 -0.1612  1.6943 -2.5145
 4296TIP3    H234304   5.603   5.714  14.742  0.3531  0.2459  0.6093
 4297TIP3   OH234305   2.340   0.272  13.108 -1.1174  0.1635 -0.0472
 4297TIP3    H134306   2.404   0.202  13.124 -0.9925  0.3088  0.0943
 4297TIP3    H234307   2.356   0.298  13.017 -0.7296  0.4509  0.1031
 4298TIP3   OH234308   5.585   1.595  11.391  0.3883 -0.3331  0.0984
 4298TIP3    H134309   5.500   1.622  11.427  0.5343 -1.9752  1.7727
 4298TIP3    H234310   5.646   1.662  11.420 -0.5838  1.7346 -2.4905
 4299TIP3   OH234311   5.194   5.479   1.633 -0.9725 -0.4911 -0.0817
 4299TIP3    H134312   5.151   5.442   1.709 -0.3132 -0.5548  0.2644
 4299TIP3    H234313   5.231   5.404   1.586 -1.2711 -0.4420 -0.3980
 4300TIP3   OH234314   1.357   0.427   0.827  0.5547  0.3038  0.0895
 4300TIP3    H134315   1.331   0.392   0.742 -0.6434  1.9294 -0.2438
 4300TIP3    H234316   1.393   0.514   0.807  2.0164 -0.0685  1.0515
 4301TIP3   OH234317   2.783   5.100   5.014  0.8077  0.4354 -0.7063
 4301TIP3    H134318   2.724   5.136   5.081 -2.7430 -0.8416 -3.0237
 4301TIP3    H234319   2.858   5.067   5.064 -1.0457  0.8294  2.4885
 4302TIP3   OH234320   3.163   2.237  15.967 -0.6682 -0.1054 -0.3040
 4302TIP3    H134321   3.179   2.320  15.922  0.8602  0.4096  1.1399
 4302TIP3    H234322   3.068   2.223  15.959 -1.3600  3.0617  1.5759
 4303TIP3   OH234323   1.471   6.276   0.883  0.2556  0.2040 -0.1971
 4303TIP3    H134324   1.379   6.296   0.897  0.2520  0.9340 -1.2310
 4303TIP3    H234325   1.479   6.263   0.789  1.3012  0.6210 -0.1718
 4304TIP3   OH234326   2.805   3.823  16.534  0.3422  0.4217  0.1136
 4304TIP3    H134327   2.818   3.918  16.527  3.0281  0.0270 -0.7429
 4304TIP3    H234328   2.828   3.789  16.447 -3.4080 -0.7800 -0.5158
 4305TIP3   OH234329   3.195   4.602  11.921  0.2396 -0.0360  0.5286
 4305TIP3    H134330   3.146   4.565  11.848  0.0249  0.3458  0.4755
 4305TIP3    H234331   3.167   4.551  11.997 -0.9169  0.7591  0.6504
 4306TIP3   OH234332   5.360   6.573   2.303  0.0321 -0.6276 -0.3604
 4306TIP3    H134333   5.356   6.658   2.347 -2.3812 -1.1822  0.5459
 4306TIP3    H234334   5.285   6.572   2.243 -0.6485 -2.5617  0.4777
 4307TIP3   OH234335   1.795   2.178  12.422 -0.2369 -0.4583  0.2619
 4307TIP3    H134336   1.855   2.108  12.443 -0.5545 -0.7998  0.0435
 4307TIP3    H234337   1.755   2.151  12.339 -1.0146 -0.4537  0.6310
 4308TIP3   OH234338   6.773   5.861  15.668  0.4316  0.2483  0.0301
 4308TIP3    H134339   6.792   5.900  15.753  1.9534 -2.3330  0.9356
 4308TIP3    H234340   6.678   5.847  15.668  0.5769 -0.8801  1.8336
 4309TIP3   OH234341   2.776   2.044  15.325 -0.1537  0.6182 -0.4657
 4309TIP3    H134342   2.759   2.063  15.418 -3.5508 -2.0851 -0.4162
 4309TIP3    H234343   2.740   2.120  15.279 -2.0300  0.2239  0.2853
 4310TIP3   OH234344   2.905   5.808  13.926  0.2347 -0.2612 -0.0236
 4310TIP3    H134345   2.955   5.748  13.981 -1.7698 -1.2345  0.7809
 4310TIP3    H234346   2.829   5.831  13.979  0.5062  2.2622 -0.7031
 4311TIP3   OH234347   1.141   0.951   5.436 -0.0823 -0.3091 -0.0971
 4311TIP3    H134348   1.195   0.988   5.367 -1.0826 -0.3243 -0.9104
 4311TIP3    H234349   1.133   0.858   5.413 -0.2648 -0.3527  0.1374
 4312TIP3   OH234350   3.284   2.986   2.244  0.0310  0.0244  0.4628
 4312TIP3    H134351   3.313   3.033   2.166 -0.9629 -0.5744 -0.2806
 4312TIP3    H234352   3.273   3.054   2.310  0.5797  0.5779 -0.0063
 4313TIP3   OH234353   4.209   2.974   6.116 -0.1010  0.7804  0.5414
 4313TIP3    H134354   4.246   2.901   6.066 -1.1249  0.4113  0.3114
 4313TIP3    H234355   4.238   2.957   6.206  0.7672  0.8125  0.2725
 4314TIP3   OH234356   3.630   3.266  14.372 -0.0499  0.4896  0.8027
 4314TIP3    H134357   3.716   3.227  14.358 -0.5674  0.0316 -1.1944
 4314TIP3    H234358   3.580   3.244  14.294 -2.4115 -0.3490  2.4828
 4315TIP3   OH234359   3.139   5.301  12.038  0.3670 -0.5302  0.1915
 4315TIP3    H134360   3.055   5.322  11.996 -0.5341 -2.1272  1.1571
 4315TIP3    H234361   3.118   5.230  12.098  2.3292 -0.5804  0.8273
 4316TIP3   OH234362   0.183   6.254  13.774 -0.0175  0.5108  0.7814
 4316TIP3    H134363   0.247   6.227  13.840  2.3699 -1.6931 -2.3066
 4316TIP3    H234364   0.226   6.324  13.726 -1.3557  1.4346  0.9148
 4317TIP3   OH234365   5.863   6.227  11.480  0.5310 -0.0681  0.5407
 4317TIP3    H134366   5.850   6.322  11.486  1.7263  0.2224 -1.2054
 4317TIP3    H234367   5.830   6.204  11.393 -1.1468 -1.5091  1.5246
 4318TIP3   OH234368   1.029   5.432  11.423 -0.6431  0.1914 -0.3420
 4318TIP3    H134369   0.958   5.475  11.471 -1.4527  0.8144 -2.0724
 4318TIP3    H234370   1.043   5.487  11.346  0.2694 -1.0835 -1.1052
 4319TIP3   OH234371   5.467   0.022  12.514 -0.0902 -0.0989 -0.2144
 4319TIP3    H134372   5.552   0.062  12.496  0.5182 -1.3262 -0.0645
 4319TIP3    H234373   5.404   0.092  12.496  0.9497  0.8433 -0.2302
 4320TIP3   OH234374   5.805   3.597   1.432 -0.0264  0.0977 -0.3913
 4320TIP3    H134375   5.765   3.602   1.519 -0.2860 -0.7879 -0.4581
 4320TIP3    H234376   5.744   3.645   1.375 -1.5321 -2.1213 -0.6855
 4321TIP3   OH234377   4.621   1.669  17.157 -0.3541  0.0521 -0.5252
 4321TIP3    H134378   4.570   1.701  17.083 -2.0700 -3.1039 -0.7904
 4321TIP3    H234379   4.573   1.698  17.235 -0.2964  0.6075 -0.6953
 4322TIP3   OH234380   4.022   1.029   0.555  0.0321 -0.3501 -0.0779
 4322TIP3    H134381   4.048   1.115   0.523 -0.8757 -0.1337 -0.2318
 4322TIP3    H234382   3.961   1.047   0.626  0.3493 -0.8580  0.3237
 4323TIP3   OH234383   3.017   2.410  12.310 -0.5279  0.1316 -0.2468
 4323TIP3    H134384   2.945   2.470  12.291 -2.9090 -1.9984  1.7676
 4323TIP3    H234385   3.037   2.370  12.225 -1.3738  1.0535 -0.9031
 4324TIP3   OH234386   0.435   0.113  12.322  0.3315  0.1527 -0.1864
 4324TIP3    H134387   0.425   0.078  12.411  0.0424  0.9020  0.0802
 4324TIP3    H234388   0.430   0.036  12.265  1.4659 -0.4423  0.5068
 4325TIP3   OH234389   2.780   1.621  15.466 -0.1150  0.2936  0.2952
 4325TIP3    H134390   2.787   1.696  15.406 -0.4683 -0.8315 -1.1729
 4325TIP3    H234391   2.861   1.572  15.452 -0.5856 -0.4335  0.1055
 4326TIP3   OH234392   4.351   1.186   1.259 -0.4795  0.6070  0.1118
 4326TIP3    H134393   4.369   1.097   1.288  1.1249  0.8277 -0.1409
 4326TIP3    H234394   4.272   1.179   1.206 -0.2326 -0.6932 -0.0885
 4327TIP3   OH234395   4.148   0.976  13.389  0.6205 -0.1693  0.3614
 4327TIP3    H134396   4.240   0.962  13.411  0.0836 -0.7223  2.4305
 4327TIP3    H234397   4.123   0.897  13.341  1.3979  0.2963 -0.8272
 4328TIP3   OH234398   0.380   1.593   1.736  0.0709  0.1332 -0.0446
 4328TIP3    H134399   0.353   1.593   1.644  0.3765  1.8482 -0.1624
 4328TIP3    H234400   0.463   1.641   1.736 -0.1436  0.5189  1.1775
 4329TIP3   OH234401   6.604   2.502   2.102  0.1647 -0.7712  0.0340
 4329TIP3    H134402   6.640   2.549   2.027 -0.6152 -2.1301 -1.2164
 4329TIP3    H234403   6.602   2.410   2.074  2.5990 -1.7387  2.7799
 4330TIP3   OH234404   2.006   5.878   2.105  0.2687 -0.8769 -0.3292
 4330TIP3    H134405   2.076   5.813   2.113 -0.1676 -1.5626 -1.9192
 4330TIP3    H234406   1.929   5.836   2.143  0.3542 -0.6800  0.0706
 4331TIP3   OH234407   2.491   5.572   5.600  0.3662 -0.5553  0.1961
 4331TIP3    H134408   2.444   5.628   5.662  1.6291 -2.1200  2.6679
 4331TIP3    H234409   2.573   5.619   5.583 -0.7470  0.7404 -1.7656
 4332TIP3   OH234410   4.826   6.701   2.497  0.0106  0.5294  0.2330
 4332TIP3    H134411   4.779   6.783   2.487  1.6081  1.5921  1.2223
 4332TIP3    H234412   4.916   6.722   2.472  0.6873 -0.6168  1.6512
 4333TIP3   OH234413   1.627   2.926   4.293 -0.0462 -0.7437  0.3473
 4333TIP3    H134414   1.672   3.009   4.312 -0.6694 -0.5967  1.1971
 4333TIP3    H234415   1.678   2.887   4.222  0.1259  0.4655 -0.1957
 4334TIP3   OH234416   6.347   1.826   1.795  0.0221  0.4550 -0.3784
 4334TIP3    H134417   6.415   1.765   1.767 -0.0373  0.5705 -0.7761
 4334TIP3    H234418   6.388   1.876   1.866 -0.0074 -0.2012  0.1097
 4335TIP3   OH234419   2.406   0.349  12.189 -0.3650 -0.9087 -0.0365
 4335TIP3    H134420   2.442   0.380  12.105  1.5540 -0.2816  0.9865
 4335TIP3    H234421   2.431   0.256  12.193 -0.7698 -1.0314 -0.3133
 4336TIP3   OH234422   2.938   6.704  14.563 -0.1997 -0.3006  0.2242
 4336TIP3    H134423   2.881   6.748  14.500 -0.4077 -0.5267  0.2517
 4336TIP3    H234424   3.024   6.705  14.523  0.3257  2.3054  1.2827
 4337TIP3   OH234425   4.034   4.460   5.074 -0.2073  0.1974 -0.1393
 4337TIP3    H134426   4.082   4.542   5.061  2.3302 -1.2437 -0.1889
 4337TIP3    H234427   4.031   4.448   5.169  0.3524 -0.1637 -0.1630
 4338TIP3   OH234428   2.249   4.202   4.907 -0.2938  0.1377  0.1176
 4338TIP3    H134429   2.205   4.117   4.893 -0.4419  0.1539  0.4639
 4338TIP3    H234430   2.342   4.181   4.909 -0.4145 -0.3750  2.5008
 4339TIP3   OH234431   0.235   6.771   5.112 -0.5981  0.4049  0.3980
 4339TIP3    H134432   0.148   6.733   5.122 -1.1500  1.7560  0.7854
 4339TIP3    H234433   0.260   6.748   5.022 -0.0421 -2.6248  1.2615
 4340TIP3   OH234434   3.741   5.874   6.052 -0.4460  0.4137 -1.0221
 4340TIP3    H134435   3.771   5.902   6.138 -0.5017  0.8542 -1.1400
 4340TIP3    H234436   3.646   5.863   6.062 -0.3007 -0.6277 -0.7410
 4341TIP3   OH234437   5.563   3.464   4.500  0.6883 -0.0090 -0.0099
 4341TIP3    H134438   5.632   3.523   4.471  1.0269 -0.6184 -0.4622
 4341TIP3    H234439   5.608   3.393   4.546  0.4809 -0.9681 -1.2300
 4342TIP3   OH234440   3.319   4.237   2.009  0.2651  0.1930 -0.3725
 4342TIP3    H134441   3.269   4.318   2.003  0.4240  0.2558 -0.8644
 4342TIP3    H234442   3.410   4.264   2.009  0.3061  0.0523  0.0961
 4343TIP3   OH234443   5.553   0.852  10.818 -0.3265  0.1958 -0.3819
 4343TIP3    H134444   5.581   0.785  10.756 -1.0551  0.7419 -1.3075
 4343TIP3    H234445   5.459   0.837  10.829 -0.3953  0.7421 -0.1978
 4344TIP3   OH234446   2.508   1.099  17.103  0.5749  0.3668  0.1713
 4344TIP3    H134447   2.576   1.163  17.082  1.9768 -0.4356  2.1468
 4344TIP3    H234448   2.537   1.019  17.060  0.3454  0.3013  0.1416
 4345TIP3   OH234449   0.186   0.586   2.608 -0.5971 -0.0353 -0.5539
 4345TIP3    H134450   0.122   0.531   2.654  1.3762 -0.6352  1.5167
 4345TIP3    H234451   0.213   0.650   2.673  0.8746  0.2436 -1.4314
 4346TIP3   OH234452   3.407   1.814   2.953  0.4760 -0.5604 -0.4067
 4346TIP3    H134453   3.372   1.825   3.041  0.3524 -0.9495 -0.4084
 4346TIP3    H234454   3.478   1.879   2.947 -1.3581  1.4474 -1.0095
 4347TIP3   OH234455   2.888   3.278   2.361 -0.4594 -0.3846 -0.5679
 4347TIP3    H134456   2.919   3.245   2.276  0.1079  0.8414 -0.8419
 4347TIP3    H234457   2.858   3.367   2.342  0.1307  0.0698  0.6214
 4348TIP3   OH234458   1.378   4.271  16.837  0.1543 -0.6665  0.4597
 4348TIP3    H134459   1.326   4.198  16.802  2.2605 -2.1136  0.2183
 4348TIP3    H234460   1.426   4.232  16.911  0.7858  0.6521  0.7499
 4349TIP3   OH234461   0.860   4.223   1.030 -0.1676 -0.3979 -0.0146
 4349TIP3    H134462   0.936   4.168   1.010 -0.1812  0.2835 -2.0183
 4349TIP3    H234463   0.898   4.308   1.054 -0.2723 -0.1596 -0.6786
 4350TIP3   OH234464   2.853   1.322   5.120 -0.0423 -0.0445 -0.5210
 4350TIP3    H134465   2.904   1.243   5.137  1.4932  0.8275 -0.9161
 4350TIP3    H234466   2.827   1.354   5.206  1.3725  0.3076 -0.2098
 4351TIP3   OH234467   6.286   4.782   1.263  0.1813 -0.0936 -0.2055
 4351TIP3    H134468   6.354   4.730   1.306  0.0739 -0.4713 -0.4895
 4351TIP3    H234469   6.316   4.791   1.172 -0.4120 -0.7183 -0.4634
 4352TIP3   OH234470   2.509   5.091  14.920  0.1217  0.1208  0.5743
 4352TIP3    H134471   2.433   5.051  14.961 -0.6791 -0.4550 -1.4276
 4352TIP3    H234472   2.476   5.172  14.881  0.6806  0.2045  0.2673
 4353TIP3   OH234473   0.270   2.236  13.990  0.5582  0.5291  0.1825
 4353TIP3    H134474   0.288   2.330  13.996 -2.6366  1.1745  0.6271
 4353TIP3    H234475   0.278   2.205  14.080 -1.0805  0.9507  0.4928
 4354TIP3   OH234476   1.849   6.450  14.609  0.2891 -0.3673 -1.2633
 4354TIP3    H134477   1.887   6.441  14.697  2.1067  0.1154 -1.9658
 4354TIP3    H234478   1.841   6.360  14.577 -1.7337 -0.6310 -0.0669
 4355TIP3   OH234479   4.356   3.387  13.464  0.0171  0.0223 -0.1951
 4355TIP3    H134480   4.278   3.412  13.512  0.6113  1.7410 -0.0979
 4355TIP3    H234481   4.331   3.308  13.416 -1.7678  0.5673 -0.1737
 4356TIP3   OH234482   2.274   6.774  12.505  0.2044 -0.5424  0.3580
 4356TIP3    H134483   2.223   6.822  12.440  0.5385 -2.3301 -1.2450
 4356TIP3    H234484   2.302   6.842  12.567  1.1109  1.4661 -2.1269
 4357TIP3   OH234485   3.774   4.692  16.222 -0.1707 -0.1510  0.4916
 4357TIP3    H134486   3.769   4.774  16.272  1.3431 -1.1156  2.2664
 4357TIP3    H234487   3.691   4.649  16.240 -0.2856  0.2329  0.9119
 4358TIP3   OH234488   5.564   2.894  12.103  0.3238 -0.0326  0.5047
 4358TIP3    H134489   5.647   2.908  12.059  0.4869  1.3527  1.1988
 4358TIP3    H234490   5.588   2.865  12.191  0.0126 -2.2766 -0.1244
 4359TIP3   OH234491   2.164   1.976   3.073 -0.1183 -0.7677  0.1894
 4359TIP3    H134492   2.204   2.002   2.990 -1.0104  0.7702  0.2112
 4359TIP3    H234493   2.238   1.957   3.130  0.5229 -0.9829 -0.7021
 4360TIP3   OH234494   4.254   5.516  13.678 -0.2967  0.1345  0.6441
 4360TIP3    H134495   4.247   5.580  13.606 -2.2390  0.7659  1.3602
 4360TIP3    H234496   4.336   5.470  13.661  0.3106  1.6989 -0.8218
 4361TIP3   OH234497   4.910   2.149   0.846 -0.3509 -0.4336 -0.0695
 4361TIP3    H134498   4.953   2.235   0.837  0.5462 -0.9521 -0.8260
 4361TIP3    H234499   4.979   2.086   0.829 -1.3308 -1.2894 -0.9579
 4362TIP3   OH234500   3.445   1.429  12.927 -0.4164  0.2867  0.5137
 4362TIP3    H134501   3.408   1.482  12.998 -2.2996 -0.0724 -0.1764
 4362TIP3    H234502   3.448   1.340  12.962  0.6725  0.4686  0.8939
 4363TIP3   OH234503   0.017   6.644  12.875  0.3291  0.0613 -0.2995
 4363TIP3    H134504   0.079   6.678  12.939  1.2708 -1.9075 -0.1159
 4363TIP3    H234505   0.058   6.661  12.790  1.4041 -1.7176 -0.1571
 4364TIP3   OH234506   0.554   6.105  14.011 -0.2415 -0.2779  0.5556
 4364TIP3    H134507   0.607   6.032  13.979  0.5294  0.9499 -1.0239
 4364TIP3    H234508   0.504   6.134  13.934  1.3646  2.4737  0.5091
 4365TIP3   OH234509   6.747   2.276  14.377 -0.1881 -0.2082  0.3801
 4365TIP3    H134510   6.712   2.220  14.307 -0.5691  2.1325 -1.3921
 4365TIP3    H234511   6.670   2.314  14.417  0.0343 -1.5950  2.1642
 4366TIP3   OH234512   6.650   1.006  11.856 -0.1463  0.5240  0.0619
 4366TIP3    H134513   6.602   1.089  11.850 -1.5560 -0.1261  1.6628
 4366TIP3    H234514   6.742   1.031  11.847 -0.5854  2.1891 -0.1047
 4367TIP3   OH234515   0.840   4.622  11.659 -0.0483  0.4643  0.0808
 4367TIP3    H134516   0.860   4.692  11.597  3.4153 -2.4301 -2.3108
 4367TIP3    H234517   0.909   4.627  11.725  0.2595 -0.6378 -0.1366
 4368TIP3   OH234518   3.180   4.542  16.901 -0.8655  0.3616  0.3867
 4368TIP3    H134519   3.086   4.525  16.912 -0.9722  1.0083  0.4959
 4368TIP3    H234520   3.212   4.560  16.989 -0.8023  0.9458  0.2443
 4369TIP3   OH234521   6.340   2.762   3.257  0.1699 -0.3183 -0.1007
 4369TIP3    H134522   6.294   2.844   3.241  1.6914  0.3898 -0.9380
 4369TIP3    H234523   6.272   2.695   3.250 -1.2611  0.9204  1.5130
 4370TIP3   OH234524   0.784   2.280  11.744 -0.0440 -0.0251  0.4332
 4370TIP3    H134525   0.716   2.219  11.715  0.3577  0.1707 -0.9100
 4370TIP3    H234526   0.769   2.288  11.839 -0.2569 -2.0072  0.6006
 4371TIP3   OH234527   2.506   1.453   5.057 -0.4492  0.4335 -0.5878
 4371TIP3    H134528   2.587   1.404   5.073 -0.8312 -0.1575 -0.4224
 4371TIP3    H234529   2.458   1.446   5.140 -1.0028  0.1346 -0.9349
 4372TIP3   OH234530   0.614   2.995  16.987  0.5655 -0.0794 -0.5533
 4372TIP3    H134531   0.525   2.994  16.952  0.2355  1.5603  0.1758
 4372TIP3    H234532   0.668   2.964  16.915 -0.4693  0.0732 -1.4193
 4373TIP3   OH234533   4.151   0.290  11.042 -0.8217  0.0558 -0.0030
 4373TIP3    H134534   4.218   0.352  11.073  0.1735 -0.4219 -1.1860
 4373TIP3    H234535   4.133   0.316  10.952 -3.4440  1.1975  0.8139
 4374TIP3   OH234536   2.386   0.468  13.286 -0.0236  0.2770 -0.5173
 4374TIP3    H134537   2.373   0.379  13.254  0.8945 -0.1424  0.2333
 4374TIP3    H234538   2.311   0.518  13.252 -0.8345 -0.9008 -0.4644
 4375TIP3   OH234539   4.020   3.203  11.946  0.2022 -0.2436 -0.7747
 4375TIP3    H134540   4.100   3.158  11.974  0.6970  0.2205 -1.4233
 4375TIP3    H234541   3.981   3.144  11.882 -0.0231 -0.5152 -0.3862
 4376TIP3   OH234542   5.121   1.790   1.701  0.1542  0.1025  0.2438
 4376TIP3    H134543   5.090   1.788   1.611  2.7669  1.0489 -0.7229
 4376TIP3    H234544   5.056   1.739   1.750 -1.5070 -0.0900 -2.0748
 4377TIP3   OH234545   6.737   5.635   3.159 -0.5563 -0.6476 -0.0927
 4377TIP3    H134546   6.669   5.567   3.158 -0.6165 -0.6402  1.7375
 4377TIP3    H234547   6.689   5.717   3.154 -0.6609 -0.6694  0.4373
 4378TIP3   OH234548   4.949   5.112   5.263  0.3034 -0.0666 -0.0452
 4378TIP3    H134549   4.864   5.120   5.307  0.6323 -1.0802  0.8066
 4378TIP3    H234550   4.968   5.018   5.267  0.8676 -0.0121 -1.3729
 4379TIP3   OH234551   3.222   3.118  13.646  0.5209 -0.2047  0.1402
 4379TIP3    H134552   3.148   3.060  13.631 -0.1686  0.9696 -1.1509
 4379TIP3    H234553   3.183   3.200  13.677  1.3136  0.2518 -0.0409
 4380TIP3   OH234554   0.785   1.706  13.616  0.0698 -0.2523  0.1876
 4380TIP3    H134555   0.817   1.756  13.691 -1.7305  0.1653  0.7141
 4380TIP3    H234556   0.828   1.746  13.541 -0.7049  1.5734  0.6830
 4381TIP3   OH234557   3.966   1.890   5.599 -0.7581  0.0074 -0.1065
 4381TIP3    H134558   3.950   1.984   5.590 -0.8080 -0.2314 -3.0455
 4381TIP3    H234559   3.900   1.848   5.544 -0.2221 -1.7047  0.5107
 4382TIP3   OH234560   2.446   3.995   0.864 -0.2948  0.1365 -0.1575
 4382TIP3    H134561   2.536   3.964   0.865 -0.5159 -0.4607  0.8625
 4382TIP3    H234562   2.453   4.084   0.829  0.6688  0.0459 -0.2244
 4383TIP3   OH234563   5.451   1.429   0.900 -0.3879 -0.3484  0.1949
 4383TIP3    H134564   5.361   1.460   0.913 -0.2666 -0.0503  0.3074
 4383TIP3    H234565   5.440   1.336   0.879 -0.8863  0.1964 -2.1380
 4384TIP3   OH234566   2.327   0.264   1.697  0.6869  0.2699  0.3862
 4384TIP3    H134567   2.335   0.237   1.788  1.0709  0.4794  0.4153
 4384TIP3    H234568   2.236   0.246   1.674  1.3029 -2.4851 -0.0700
 4385TIP3   OH234569   4.203   0.382  14.956 -0.2891 -1.0124  0.0224
 4385TIP3    H134570   4.244   0.436  14.888  0.9541 -1.6038  0.2724
 4385TIP3    H234571   4.245   0.411  15.037 -0.2023 -1.7928  0.2538
 4386TIP3   OH234572   6.759   2.636   2.929  0.1466 -0.7501  0.2291
 4386TIP3    H134573   6.711   2.602   2.853 -0.2791 -0.5037  0.3807
 4386TIP3    H234574   6.850   2.612   2.914  0.3967  1.0963 -1.3645
 4387TIP3   OH234575   1.365   2.504  11.762 -0.8223 -0.0448  0.1628
 4387TIP3    H134576   1.346   2.597  11.774  0.9227  0.1453  1.6058
 4387TIP3    H234577   1.306   2.459  11.821 -2.4689  0.0645 -1.3685
 4388TIP3   OH234578   3.859   1.642  14.281  0.1041 -0.3758  0.0446
 4388TIP3    H134579   3.839   1.662  14.372 -0.2272 -0.7282  0.0484
 4388TIP3    H234580   3.884   1.727  14.243  0.0095 -0.1886  0.3994
 4389TIP3   OH234581   2.246   3.003   3.378 -0.4829  0.3978 -0.0252
 4389TIP3    H134582   2.311   2.940   3.348 -1.9991 -0.4796 -1.4997
 4389TIP3    H234583   2.232   2.981   3.470 -1.1430 -1.5564 -0.5764
 4390TIP3   OH234584   1.750   2.302  11.904 -0.3565  0.2994 -0.0982
 4390TIP3    H134585   1.743   2.223  11.849  0.2333 -1.0359  1.6797
 4390TIP3    H234586   1.660   2.325  11.924 -0.5422  0.1638 -0.7847
 4391TIP3   OH234587   2.987   2.246  16.305  0.4288 -0.0024  0.0236
 4391TIP3    H134588   3.024   2.200  16.380  0.5151 -0.5320 -0.3371
 4391TIP3    H234589   3.022   2.334  16.311  2.6155 -0.7805 -0.9014
 4392TIP3   OH234590   3.380   5.995  10.777  0.1611 -0.2192  0.0357
 4392TIP3    H134591   3.293   6.021  10.810 -0.2522 -0.8462 -0.5588
 4392TIP3    H234592   3.363   5.960  10.690  1.2936  1.6926 -0.9875
 4393TIP3   OH234593   1.516   1.142   6.576  0.6709  0.1546  0.0415
 4393TIP3    H134594   1.454   1.109   6.511  0.2892  2.1482 -0.6293
 4393TIP3    H234595   1.564   1.064   6.604 -0.8348 -1.1211 -0.8118
 4394TIP3   OH234596   5.755   2.537  15.662 -0.1095 -0.6848 -0.0018
 4394TIP3    H134597   5.758   2.630  15.638  0.5423 -0.6397  0.2547
 4394TIP3    H234598   5.782   2.491  15.583  1.3795 -0.5661  0.4226
 4395TIP3   OH234599   3.140   4.633  16.518 -0.2243  0.3291  0.2163
 4395TIP3    H134600   3.046   4.650  16.503  0.1889  1.9498 -0.7896
 4395TIP3    H234601   3.173   4.716  16.552  0.8922 -0.1737  0.3586
 4396TIP3   OH234602   2.808   1.593  13.584  0.0637 -0.2930  0.2207
 4396TIP3    H134603   2.727   1.638  13.607  0.4075 -0.2962  1.4550
 4396TIP3    H234604   2.873   1.629  13.644  1.3674  0.9599 -1.8750
 4397TIP3   OH234605   3.354   5.633   3.411  0.4821 -0.2311  0.0776
 4397TIP3    H134606   3.383   5.588   3.490 -1.0987 -0.1395  0.7288
 4397TIP3    H234607   3.264   5.602   3.397  1.0684 -1.0258 -2.2654
 4398TIP3   OH234608   5.054   3.368   1.415  0.1535 -0.1866 -0.0920
 4398TIP3    H134609   5.066   3.388   1.508  0.0944 -1.3228  0.1760
 4398TIP3    H234610   5.085   3.277   1.407  1.4675  0.3693 -1.4600
 4399TIP3   OH234611   1.643   4.491   1.704  0.0618 -0.6379  0.2017
 4399TIP3    H134612   1.715   4.531   1.753 -0.8990  0.4079  0.7695
 4399TIP3    H234613   1.678   4.480   1.615  0.6554  0.6009  0.2762
 4400TIP3   OH234614   3.509   3.137   5.842  0.1473 -0.0260 -0.0938
 4400TIP3    H134615   3.555   3.056   5.864 -0.5652 -0.4614 -0.2103
 4400TIP3    H234616   3.420   3.124   5.873  0.9663  2.2888  3.5602
 4401TIP3   OH234617   5.512   1.982  16.358  0.1915  0.2426 -0.0631
 4401TIP3    H134618   5.444   2.049  16.360 -2.0682 -1.9912  1.3726
 4401TIP3    H234619   5.547   1.985  16.268 -3.2811  0.0510 -1.4943
 4402TIP3   OH234620   5.427   3.585  15.051 -0.5784 -0.2464  0.7502
 4402TIP3    H134621   5.355   3.534  15.089 -2.4201  2.7852  1.4740
 4402TIP3    H234622   5.384   3.648  14.993  1.6134  0.6245  0.0063
 4403TIP3   OH234623   0.657   0.659   4.881 -0.6906  0.2119  0.0347
 4403TIP3    H134624   0.638   0.740   4.928 -0.5624 -0.2166  0.8355
 4403TIP3    H234625   0.650   0.591   4.947  1.1301 -0.2297 -0.1871
 4404TIP3   OH234626   3.551   5.771   1.226 -0.1929 -0.0041  0.5458
 4404TIP3    H134627   3.569   5.770   1.132 -0.2633  0.9268  0.5158
 4404TIP3    H234628   3.621   5.824   1.263  0.8892 -1.8636  1.2614
 4405TIP3   OH234629   2.327   2.264   1.064  0.4883  0.4554  0.3871
 4405TIP3    H134630   2.362   2.229   0.981  0.0102 -1.0663  0.8088
 4405TIP3    H234631   2.344   2.195   1.128 -0.3743  1.0621  1.2827
 4406TIP3   OH234632   1.558   1.088  14.098 -0.0444 -0.4536  0.1072
 4406TIP3    H134633   1.544   1.120  14.188  2.1532 -1.6810  0.9141
 4406TIP3    H234634   1.469   1.074  14.064 -0.9286 -1.3504  2.6193
 4407TIP3   OH234635   4.177   3.500  16.853 -0.8372  0.3064 -0.5673
 4407TIP3    H134636   4.188   3.441  16.928  0.7799  0.8452 -0.3613
 4407TIP3    H234637   4.152   3.584  16.893  0.6420  0.7575 -0.5849
 4408TIP3   OH234638   2.821   0.732   3.345 -0.1743  0.6515 -0.0960
 4408TIP3    H134639   2.819   0.676   3.268 -2.5362 -0.2003  0.5370
 4408TIP3    H234640   2.885   0.691   3.403 -1.4027 -1.0484  0.0893
 4409TIP3   OH234641   0.114   2.161   5.120 -0.5110 -0.1669  0.4407
 4409TIP3    H134642   0.025   2.126   5.115 -0.7226  0.4852 -0.6302
 4409TIP3    H234643   0.170   2.090   5.088 -0.8768  0.2011 -1.0954
 4410TIP3   OH234644   1.065   1.033  15.256 -0.1384 -0.0007 -0.2846
 4410TIP3    H134645   1.108   1.068  15.178  1.5914  0.4561  0.8364
 4410TIP3    H234646   1.039   0.944  15.231 -0.2536  0.4082 -1.6190
 4411TIP3   OH234647   0.693   1.613   1.536 -0.0914  0.5066 -0.9741
 4411TIP3    H134648   0.771   1.644   1.490 -0.9181  1.4976 -1.7490
 4411TIP3    H234649   0.654   1.693   1.573  0.0077 -0.1584  0.5632
 4412TIP3   OH234650   6.412   0.852  15.067 -0.0227  0.1611  0.2501
 4412TIP3    H134651   6.387   0.925  15.124  0.1223 -0.6303  1.3446
 4412TIP3    H234652   6.463   0.893  14.997 -0.5505  1.2024  0.4601
 4413TIP3   OH234653   5.671   6.716  14.851 -0.3958 -0.0001 -0.3479
 4413TIP3    H134654   5.702   6.683  14.767 -2.1422  1.7829 -1.7631
 4413TIP3    H234655   5.617   6.645  14.887 -0.8417 -0.2225 -1.4431
 4414TIP3   OH234656   4.559   4.948  12.193 -0.5271 -0.4658  0.1099
 4414TIP3    H134657   4.617   4.905  12.131 -0.8322 -1.6125  0.6225
 4414TIP3    H234658   4.611   5.022  12.226 -0.2256 -0.0839 -1.1890
 4415TIP3   OH234659   3.088   4.047  12.258 -0.3563  0.1449 -1.1622
 4415TIP3    H134660   3.026   4.109  12.296 -0.5260  1.7893 -3.9763
 4415TIP3    H234661   3.174   4.086  12.273  0.0057 -1.5909  1.7428
 4416TIP3   OH234662   2.196   4.481  11.673  0.0758 -0.2780 -0.0372
 4416TIP3    H134663   2.110   4.450  11.645  0.7674 -0.8746 -1.6029
 4416TIP3    H234664   2.211   4.560  11.622  1.0372 -0.9568 -0.8328
 4417TIP3   OH234665   0.538   1.615  14.643 -0.2887  0.4055 -0.2492
 4417TIP3    H134666   0.591   1.677  14.693  0.2533 -0.5943  0.4246
 4417TIP3    H234667   0.455   1.661  14.629 -0.1924  0.9663  0.9600
 4418TIP3   OH234668   1.837   2.063  12.819 -0.1338  0.0382  0.3672
 4418TIP3    H134669   1.828   2.151  12.781 -0.6922 -0.1536  0.0542
 4418TIP3    H234670   1.758   2.052  12.872  0.0032 -0.2211  0.5163
 4419TIP3   OH234671   2.213   6.149  15.221  0.4070 -0.0346 -0.0903
 4419TIP3    H134672   2.196   6.216  15.287 -1.2672 -1.2826  0.8123
 4419TIP3    H234673   2.159   6.074  15.249  1.1914 -1.2752 -1.7942
 4420TIP3   OH234674   2.888   2.446  14.559  0.1293 -0.3446 -0.6530
 4420TIP3    H134675   2.852   2.525  14.599  0.5491 -0.4276 -0.0986
 4420TIP3    H234676   2.874   2.458  14.465  2.3513  1.5149 -0.8068
 4421TIP3   OH234677   3.010   2.812  11.628  0.1289  0.3686  0.0998
 4421TIP3    H134678   2.941   2.862  11.583  0.8791  1.0906 -0.2577
 4421TIP3    H234679   3.051   2.760  11.559  0.2389  0.2790  0.2328
 4422TIP3   OH234680   3.015   5.042   4.552  0.2319  0.0419  0.3732
 4422TIP3    H134681   2.950   5.066   4.617 -0.7050 -1.7608  0.1210
 4422TIP3    H234682   2.965   5.013   4.476  1.2825  3.2147 -1.6362
 4423TIP3   OH234683   5.234   0.833  16.177  0.0093 -0.0722  0.0210
 4423TIP3    H134684   5.222   0.852  16.084  0.3341  0.4442  0.0813
 4423TIP3    H234685   5.326   0.855  16.194  0.0300 -0.4478  0.3936
 4424TIP3   OH234686   1.283   0.509   4.176  0.2081  0.4580  0.3820
 4424TIP3    H134687   1.350   0.537   4.113 -1.5633 -1.0123 -2.2743
 4424TIP3    H234688   1.204   0.555   4.148 -0.3053  0.8534  2.4425
 4425TIP3   OH234689   0.967   4.711  11.905  0.1427 -0.0876 -0.4376
 4425TIP3    H134690   0.992   4.765  11.979 -1.5590 -0.1359  0.2064
 4425TIP3    H234691   0.926   4.633  11.944 -0.4988 -0.2502 -1.3977
 4426TIP3   OH234692   6.435   1.375   6.389 -0.1784  0.4220  0.4803
 4426TIP3    H134693   6.366   1.309   6.398 -0.8343  0.7523 -1.7644
 4426TIP3    H234694   6.504   1.330   6.340 -0.3765  1.1908 -0.5299
 4427TIP3   OH234695   2.211   4.375   5.514  0.1537  0.1057 -0.0047
 4427TIP3    H134696   2.146   4.367   5.584  1.3310 -0.9110  0.9860
 4427TIP3    H234697   2.295   4.366   5.558  0.9507  0.5576 -1.4071
 4428TIP3   OH234698   5.180   2.063   0.552  0.0764  0.3607  1.2228
 4428TIP3    H134699   5.158   2.140   0.605  1.8230  1.2828  0.6557
 4428TIP3    H234700   5.141   2.081   0.466  1.3902  1.1319  0.7711
 4429TIP3   OH234701   4.224   3.235  12.566  0.3667 -0.4590  0.5240
 4429TIP3    H134702   4.238   3.211  12.658 -0.8422  0.7427  1.0327
 4429TIP3    H234703   4.140   3.280  12.565  0.0615 -1.0059 -1.2867
 4430TIP3   OH234704   2.750   2.147  11.953  0.3585  0.4958  0.7175
 4430TIP3    H134705   2.807   2.101  11.892  0.3550  1.0634  0.2849
 4430TIP3    H234706   2.748   2.091  12.031 -0.0040 -0.4685  0.0343
 4431TIP3   OH234707   4.273   5.884   2.723  0.1734 -0.2321  0.0139
 4431TIP3    H134708   4.361   5.904   2.755  0.2033 -0.7696  0.2647
 4431TIP3    H234709   4.232   5.835   2.794 -1.0517  1.8082  0.7597
 4432TIP3   OH234710   4.129   2.124   0.890  0.4492  0.2350 -0.0130
 4432TIP3    H134711   4.220   2.108   0.864  0.1676  1.7908 -2.0294
 4432TIP3    H234712   4.079   2.059   0.841  0.4092 -0.4045  0.8503
 4433TIP3   OH234713   6.775   6.004  14.123 -0.2844 -0.4635  0.1719
 4433TIP3    H134714   6.734   5.968  14.044 -2.2671  0.1727  0.8801
 4433TIP3    H234715   6.731   6.087  14.137 -0.2075 -0.7447  2.1682
 4434TIP3   OH234716   4.132   3.541  12.867 -0.2460 -0.0927  0.8011
 4434TIP3    H134717   4.131   3.511  12.958 -2.9360  0.1314  0.8990
 4434TIP3    H234718   4.082   3.623  12.869  2.9706  1.9557 -0.2665
 4435TIP3   OH234719   1.413   2.906  16.143  0.6273 -0.0259  0.5434
 4435TIP3    H134720   1.339   2.959  16.175  1.0389  1.1655 -0.4669
 4435TIP3    H234721   1.388   2.880  16.055  0.0047 -2.3725  1.3565
 4436TIP3   OH234722   1.884   2.430  12.097  0.2590  0.2227  0.0698
 4436TIP3    H134723   1.829   2.390  12.029 -1.6486 -0.4171  1.9005
 4436TIP3    H234724   1.949   2.363  12.118  0.1270 -0.0267 -0.3167
 4437TIP3   OH234725   1.861   3.203   2.441  0.5168  0.3289 -0.3121
 4437TIP3    H134726   1.946   3.199   2.485  0.8917 -0.1952 -1.0786
 4437TIP3    H234727   1.850   3.295   2.418  0.8794  0.3932 -0.2237
 4438TIP3   OH234728   6.765   0.252   5.292  0.1697  0.4081 -0.2875
 4438TIP3    H134729   6.684   0.223   5.334  0.6882 -1.6007 -0.6251
 4438TIP3    H234730   6.740   0.269   5.201 -0.2040  1.3241 -0.0150
 4439TIP3   OH234731   3.323   6.310  15.468  0.9947 -0.1403  0.3172
 4439TIP3    H134732   3.267   6.384  15.444 -0.4105 -1.0366  0.7672
 4439TIP3    H234733   3.293   6.284  15.555  1.0614 -1.6084 -0.0751
 4440TIP3   OH234734   6.612   5.660  16.743  0.3343  0.0256 -0.0042
 4440TIP3    H134735   6.562   5.651  16.662 -1.2122  0.2367  0.8986
 4440TIP3    H234736   6.661   5.742  16.733  0.9321 -0.4668 -1.1245
 4441TIP3   OH234737   2.320   3.347  10.858 -0.1412 -0.5235 -0.4718
 4441TIP3    H134738   2.339   3.422  10.915 -0.2815 -3.2753  3.3441
 4441TIP3    H234739   2.241   3.373  10.810 -0.2661  1.7316  0.8678
 4442TIP3   OH234740   0.746   0.160   1.980 -0.1801  0.1182 -0.9142
 4442TIP3    H134741   0.823   0.183   2.033 -0.7672  0.1787 -0.0789
 4442TIP3    H234742   0.777   0.165   1.889  0.6344  0.7626 -0.6067
 4443TIP3   OH234743   4.513   6.288   3.525 -0.3676  0.4820 -0.0299
 4443TIP3    H134744   4.517   6.365   3.469  3.5730  1.1923  1.1170
 4443TIP3    H234745   4.424   6.289   3.561 -1.2209  2.9598 -2.0686
 4444TIP3   OH234746   4.021   1.251   2.962  1.2255 -0.1757  0.0826
 4444TIP3    H134747   3.959   1.191   2.921  0.8658 -0.2026  0.6617
 4444TIP3    H234748   4.103   1.201   2.965  1.3222 -0.0801 -0.8286
 4445TIP3   OH234749   2.790   1.503  14.639 -0.3938  0.2614 -0.7389
 4445TIP3    H134750   2.787   1.524  14.732 -1.5981  1.8258 -1.0917
 4445TIP3    H234751   2.845   1.425  14.633 -0.2287  0.1988  1.2607
 4446TIP3   OH234752   2.717   1.158   3.941 -0.3076  0.0399  0.4084
 4446TIP3    H134753   2.636   1.115   3.913  0.1360 -0.5400  0.0167
 4446TIP3    H234754   2.698   1.190   4.029 -2.5094  3.9022 -1.3623
 4447TIP3   OH234755   1.197   5.627  15.370 -0.0284  0.0599  0.5095
 4447TIP3    H134756   1.124   5.606  15.312 -0.1000  3.0737 -0.5474
 4447TIP3    H234757   1.168   5.703  15.419  2.0241  0.6818  0.8062
 4448TIP3   OH234758   6.571   4.861   1.215 -0.8043 -0.2829  0.0795
 4448TIP3    H134759   6.561   4.787   1.275  1.5832 -0.9081 -0.2747
 4448TIP3    H234760   6.589   4.821   1.130  0.3117  0.7137 -0.1581
 4449TIP3   OH234761   3.885   0.487  13.703  0.4565 -0.0550 -0.5335
 4449TIP3    H134762   3.843   0.404  13.725  1.4461 -0.7275 -1.1242
 4449TIP3    H234763   3.924   0.472  13.617  1.3730  0.7499 -0.2737
 4450TIP3   OH234764   4.965   3.232  13.831 -0.0208 -0.1373  0.5717
 4450TIP3    H134765   4.993   3.141  13.835 -1.2594 -0.6037 -0.6580
 4450TIP3    H234766   4.910   3.244  13.909 -3.1015 -1.6340 -1.2588
 4451TIP3   OH234767   1.084   6.202  14.489  0.2613 -0.0663 -0.4312
 4451TIP3    H134768   1.150   6.265  14.458 -0.8123  0.7818 -1.0076
 4451TIP3    H234769   1.003   6.252  14.494 -0.0807 -0.7922  1.5196
 4452TIP3   OH234770   0.155   6.302   5.636 -0.2803 -0.0845 -0.4862
 4452TIP3    H134771   0.082   6.355   5.605 -1.0803 -1.8771 -1.7057
 4452TIP3    H234772   0.115   6.231   5.685  0.6385 -0.9123 -0.9029
 4453TIP3   OH234773   5.046   0.268  13.334 -0.6291  0.1345 -0.0483
 4453TIP3    H134774   4.996   0.186  13.336 -0.5848  0.1018 -0.2458
 4453TIP3    H234775   5.068   0.280  13.241  1.0826 -0.6628  0.2356
 4454TIP3   OH234776   5.791   0.858  13.652  0.6701 -0.1638 -0.4943
 4454TIP3    H134777   5.842   0.877  13.573 -1.2885  2.4680 -1.1984
 4454TIP3    H234778   5.830   0.913  13.720 -0.0274  0.4139 -0.5604
 4455TIP3   OH234779   6.426   3.823   4.130  0.1865  0.4688  0.0334
 4455TIP3    H134780   6.420   3.847   4.222  0.3337 -2.8504  0.9691
 4455TIP3    H234781   6.517   3.841   4.107  0.7076 -0.6100  1.1542
 4456TIP3   OH234782   6.361   0.773   4.780 -0.3342  0.1247 -0.2208
 4456TIP3    H134783   6.417   0.795   4.706 -0.0192 -2.2645 -0.7567
 4456TIP3    H234784   6.406   0.700   4.823 -1.6449 -0.0082  0.9760
 4457TIP3   OH234785   3.437   1.386  15.107  0.2397  0.5959 -0.3029
 4457TIP3    H134786   3.457   1.444  15.181 -1.6439  0.9742 -0.0584
 4457TIP3    H234787   3.459   1.299  15.138 -0.9263  0.7051  0.8660
 4458TIP3   OH234788   0.495   2.316   3.876  0.2203  0.0855  0.5289
 4458TIP3    H134789   0.513   2.410   3.878 -0.9013  0.3105  2.0082
 4458TIP3    H234790   0.561   2.279   3.818  1.3434  1.6535  0.7786
 4459TIP3   OH234791   3.958   5.941   3.212  0.9208  0.1868 -0.1525
 4459TIP3    H134792   3.981   5.998   3.286 -0.4473  0.2212  0.2649
 4459TIP3    H234793   3.977   5.853   3.244  1.1690  0.2629 -0.0838
 4460TIP3   OH234794   3.762   6.550  11.985 -0.0972  0.0898  0.1909
 4460TIP3    H134795   3.683   6.601  11.968  0.5933  1.4185  0.8910
 4460TIP3    H234796   3.743   6.504  12.067 -0.2409  0.2093  0.2241
 4461TIP3   OH234797   0.160   6.378  11.217  0.1448  0.6111  0.5242
 4461TIP3    H134798   0.176   6.472  11.228  0.2738  0.6521 -0.0111
 4461TIP3    H234799   0.237   6.336  11.257 -0.2417  0.7097  1.3926
 4462TIP3   OH234800   0.318   0.682  16.149 -0.2692 -0.0983 -0.1918
 4462TIP3    H134801   0.363   0.610  16.106 -0.5330 -0.7292  0.5866
 4462TIP3    H234802   0.239   0.697  16.097 -1.3308 -1.8193  0.8886
 4463TIP3   OH234803   4.828   3.534   1.331  0.0649 -0.2755  0.0051
 4463TIP3    H134804   4.847   3.620   1.293  2.1530  0.8407  3.3132
 4463TIP3    H234805   4.913   3.490   1.336 -0.6237 -1.5663  0.5036
 4464TIP3   OH234806   0.056   5.766   5.311 -0.5436  0.1251  0.4538
 4464TIP3    H134807   0.067   5.827   5.238 -1.1667 -0.3498 -0.0354
 4464TIP3    H234808   0.122   5.698   5.296  0.4865  0.9187  1.2656
 4465TIP3   OH234809   1.066   4.434   4.340 -0.0007 -0.4478 -0.1481
 4465TIP3    H134810   1.010   4.379   4.285  1.1841  0.5663 -2.4330
 4465TIP3    H234811   1.129   4.373   4.378 -0.9546 -1.1908  0.2753
 4466TIP3   OH234812   0.943   5.018  14.196 -0.6678  0.0921  0.1038
 4466TIP3    H134813   1.038   5.012  14.211 -0.6204 -0.1649 -0.2890
 4466TIP3    H234814   0.925   4.952  14.128 -1.1157  0.1905  0.1235
 4467TIP3   OH234815   2.154   5.502  11.690 -0.0631 -0.0505  0.1051
 4467TIP3    H134816   2.179   5.587  11.654 -0.8196 -0.3491 -1.1317
 4467TIP3    H234817   2.165   5.441  11.617 -0.1439 -0.9155  0.8118
 4468TIP3   OH234818   5.338   0.816   2.465  0.0932 -0.7433 -0.1119
 4468TIP3    H134819   5.301   0.730   2.442 -1.3733 -0.1332 -0.0677
 4468TIP3    H234820   5.408   0.829   2.402 -0.1215 -1.6805 -0.5582
 4469TIP3   OH234821   4.008   1.803   0.996  0.5231 -0.1397  0.0564
 4469TIP3    H134822   3.922   1.846   0.992  0.8373  0.3872 -1.4597
 4469TIP3    H234823   4.051   1.828   0.914  2.1588 -0.3362  0.8329
 4470TIP3   OH234824   2.527   1.380  12.921  0.2513 -0.5472  0.6352
 4470TIP3    H134825   2.617   1.353  12.941 -0.3111 -1.8212  1.5063
 4470TIP3    H234826   2.478   1.359  13.000 -0.5528  1.4873  0.7023
 4471TIP3   OH234827   0.285   1.992   1.478  0.6543  0.6781 -0.2108
 4471TIP3    H134828   0.372   1.964   1.451  1.3226 -0.0152  2.4968
 4471TIP3    H234829   0.300   2.073   1.526 -0.2604  0.8574 -0.2273
 4472TIP3   OH234830   1.533   3.732  11.604  0.1925  0.4246  0.2934
 4472TIP3    H134831   1.486   3.673  11.546 -0.5121  0.9463  0.3255
 4472TIP3    H234832   1.464   3.787  11.643  0.8383  1.3137  0.2006
 4473TIP3   OH234833   5.534   3.638  11.918  0.2886  0.3485 -0.3794
 4473TIP3    H134834   5.471   3.682  11.861  0.1654 -0.5467 -0.9392
 4473TIP3    H234835   5.485   3.624  12.000  0.2443  1.0028 -0.2928
 4474TIP3   OH234836   3.701   5.288   5.221 -0.8414 -0.3128  0.1509
 4474TIP3    H134837   3.790   5.277   5.186 -0.3782 -1.5116  1.6406
 4474TIP3    H234838   3.672   5.199   5.239 -1.3644  0.2319  2.0441
 4475TIP3   OH234839   3.647   4.339  13.367  0.1240  0.2515  0.2332
 4475TIP3    H134840   3.594   4.274  13.321  2.7833 -0.0382 -2.5171
 4475TIP3    H234841   3.589   4.415  13.374 -1.7135 -1.0919  0.0889
 4476TIP3   OH234842   5.969   2.233  13.858  0.1182 -0.2906  0.3092
 4476TIP3    H134843   6.055   2.266  13.885  0.6681 -0.5882 -1.0409
 4476TIP3    H234844   5.935   2.188  13.936  0.6848  0.8057  1.2090
 4477TIP3   OH234845   1.676   2.309  16.451  0.3363  0.3106 -0.3452
 4477TIP3    H134846   1.597   2.360  16.432  0.2518  0.6778  0.9271
 4477TIP3    H234847   1.666   2.229  16.399 -1.9419 -0.6448  1.4499
 4478TIP3   OH234848   6.617   3.990  17.093  0.5441  0.0340  0.2441
 4478TIP3    H134849   6.632   3.928  17.022  0.3367  0.5130 -0.2170
 4478TIP3    H234850   6.643   4.075  17.058 -0.2949  0.3931  0.4724
 4479TIP3   OH234851   5.701   0.146   0.059  0.5484 -0.0228 -0.4576
 4479TIP3    H134852   5.607   0.139   0.076  0.5384 -1.9117 -1.2021
 4479TIP3    H234853   5.715   0.240   0.044 -1.3407  0.1912 -1.0628
 4480TIP3   OH234854   2.344   4.360   4.055  0.4576 -0.8445  0.2899
 4480TIP3    H134855   2.335   4.454   4.036 -1.4861 -1.0551  0.0644
 4480TIP3    H234856   2.320   4.353   4.148  0.5860 -1.1096  0.3026
 4481TIP3   OH234857   4.798   1.496   6.654  0.3848  0.0124  0.3114
 4481TIP3    H134858   4.748   1.514   6.575 -0.8318 -0.0783  1.0502
 4481TIP3    H234859   4.874   1.554   6.648  0.3772 -0.0938 -0.9855
 4482TIP3   OH234860   0.592   3.647  15.950  0.1574  0.0550 -0.0830
 4482TIP3    H134861   0.584   3.569  16.005  2.6833 -0.2043 -0.0212
 4482TIP3    H234862   0.635   3.711  16.007  1.7529  0.1614 -1.3876
 4483TIP3   OH234863   0.112   5.822   5.722 -0.1534  0.5692 -1.2835
 4483TIP3    H134864   0.125   5.881   5.647  1.5916 -0.1415 -1.5855
 4483TIP3    H234865   0.161   5.863   5.793  2.6377 -1.3672 -1.9884
 4484TIP3   OH234866   4.239   6.358   4.913 -0.4634  0.2207  0.2453
 4484TIP3    H134867   4.298   6.295   4.953 -1.4281 -0.3581  0.7898
 4484TIP3    H234868   4.188   6.307   4.850 -2.4931  0.0403  1.9537
 4485TIP3   OH234869   6.758   0.297  11.718 -0.0680  0.2403 -0.5491
 4485TIP3    H134870   6.699   0.303  11.643 -1.3730 -1.1350  0.3524
 4485TIP3    H234871   6.727   0.364  11.779  0.4816  0.8008 -0.8840
 4486TIP3   OH234872   2.571   2.085  16.207  0.2281  0.5140 -0.6091
 4486TIP3    H134873   2.595   2.006  16.256 -1.2748 -0.8116 -1.9475
 4486TIP3    H234874   2.523   2.139  16.270  2.7008  1.1604  0.7888
 4487TIP3   OH234875   4.893   3.096   4.363 -0.2866 -0.1606  0.3931
 4487TIP3    H134876   4.976   3.100   4.411  0.4085 -0.8742 -0.7223
 4487TIP3    H234877   4.826   3.105   4.430  0.6793 -0.5242  1.4262
 4488TIP3   OH234878   6.031   1.167  14.721  0.0862  0.2094 -0.0861
 4488TIP3    H134879   6.093   1.157  14.793  0.3979 -0.0198 -0.3845
 4488TIP3    H234880   6.012   1.261  14.720  1.1410  0.4288 -0.5676
 4489TIP3   OH234881   5.846   0.755   0.410  0.0904  0.1377  0.1147
 4489TIP3    H134882   5.900   0.697   0.356 -0.6202 -0.1725 -0.2733
 4489TIP3    H234883   5.775   0.783   0.352 -0.5959 -0.0757  0.8275
 4490TIP3   OH234884   2.600   3.377   4.350 -0.6217 -0.4007 -0.2072
 4490TIP3    H134885   2.695   3.382   4.364 -0.4698 -0.1588 -1.3056
 4490TIP3    H234886   2.569   3.317   4.419  0.2657 -0.1670  0.4130
 4491TIP3   OH234887   0.260   1.650  14.741  0.1662  0.1667  0.0813
 4491TIP3    H134888   0.283   1.559  14.723 -1.1810  0.1386 -1.6552
 4491TIP3    H234889   0.209   1.647  14.822 -0.4878 -0.7216 -0.3584
 4492TIP3   OH234890   4.232   0.826  11.747 -0.3504  0.2621 -0.9100
 4492TIP3    H134891   4.158   0.777  11.783 -0.2875  0.7646 -0.1001
 4492TIP3    H234892   4.308   0.795  11.796 -0.5274  2.2848  0.6735
 4493TIP3   OH234893   2.178   5.442  16.835 -0.1132  0.2590 -0.8690
 4493TIP3    H134894   2.258   5.391  16.824  1.3925  2.8161 -2.1750
 4493TIP3    H234895   2.201   5.506  16.903 -0.3597  2.2968 -2.6694
 4494TIP3   OH234896   1.270   1.419  12.944  0.3604  0.1577 -0.3947
 4494TIP3    H134897   1.249   1.392  13.033  0.9095  1.0051  0.0022
 4494TIP3    H234898   1.283   1.337  12.896 -4.5128 -0.5330 -0.8856
 4495TIP3   OH234899   4.563   5.862  13.343 -0.0460  0.2597  0.0632
 4495TIP3    H134900   4.621   5.835  13.272  1.4535  0.3620  1.2123
 4495TIP3    H234901   4.477   5.872  13.302  0.9194  0.9093 -1.8467
 4496TIP3   OH234902   1.074   5.606   2.858 -0.5870 -0.0910  0.5642
 4496TIP3    H134903   1.148   5.567   2.811  0.7744  0.7109  1.9842
 4496TIP3    H234904   1.048   5.681   2.804  1.8448  1.6384  1.6837
 4497TIP3   OH234905   0.608   4.178   1.609  0.4565 -0.3075  0.3891
 4497TIP3    H134906   0.561   4.094   1.616 -0.1321  0.0640  0.9981
 4497TIP3    H234907   0.680   4.160   1.549 -0.6991 -0.7966 -0.8901
 4498TIP3   OH234908   1.331   2.047   2.718 -0.4089  0.1565 -0.1018
 4498TIP3    H134909   1.288   1.966   2.692 -4.0495  1.3564  1.8561
 4498TIP3    H234910   1.388   2.022   2.792 -1.2131 -0.6769  0.2395
 4499TIP3   OH234911   6.070   5.711  14.238  0.4945  0.5606 -0.2413
 4499TIP3    H134912   6.005   5.752  14.296  0.9845 -0.2476  0.9137
 4499TIP3    H234913   6.031   5.715  14.151 -1.5324 -0.7805  0.5834
 4500TIP3   OH234914   4.936   1.582   0.996 -0.2542 -0.1142 -0.1611
 4500TIP3    H134915   4.855   1.562   1.043  0.3773 -1.3769  0.4097
 4500TIP3    H234916   4.972   1.658   1.041 -1.1657  0.5156 -0.4778
 4501TIP3   OH234917   1.420   1.758  11.711  0.3025  0.7875  0.1212
 4501TIP3    H134918   1.427   1.695  11.639  0.6061  0.7198  0.2116
 4501TIP3    H234919   1.481   1.726  11.777 -0.4848  0.4555  0.7049
 4502TIP3   OH234920   2.950   0.089  15.942 -0.0656  0.1672 -0.0859
 4502TIP3    H134921   2.992   0.043  15.869 -1.7238  0.2588 -1.1348
 4502TIP3    H234922   3.013   0.156  15.968  1.5550 -1.4304  0.1637
 4503TIP3   OH234923   6.299   0.233   1.441  0.0115  0.2159  0.7875
 4503TIP3    H134924   6.353   0.311   1.429  1.1920 -0.8265 -0.8193
 4503TIP3    H234925   6.222   0.264   1.489  0.1700  2.4715 -0.3815
 4504TIP3   OH234926   4.351   4.441   2.532 -0.2863  0.1404  0.1409
 4504TIP3    H134927   4.318   4.444   2.442 -0.1186 -0.1527  0.0713
 4504TIP3    H234928   4.281   4.480   2.584  0.0567  1.2961 -0.2448
 4505TIP3   OH234929   5.797   3.785   3.081 -0.0939 -0.3093  0.5546
 4505TIP3    H134930   5.893   3.779   3.082 -0.0532 -0.9576 -2.3386
 4505TIP3    H234931   5.767   3.707   3.129  0.8055 -0.2032  1.3048
 4506TIP3   OH234932   1.923   4.956   4.952 -0.8458 -0.2263  0.3915
 4506TIP3    H134933   1.994   4.894   4.935 -1.9016 -1.8012  1.5390
 4506TIP3    H234934   1.861   4.942   4.881 -1.1415 -0.5832  0.7168
 4507TIP3   OH234935   4.125   4.960   4.800 -0.2004  0.0583 -0.2876
 4507TIP3    H134936   4.181   4.912   4.862  0.7153  1.0683 -0.3134
 4507TIP3    H234937   4.172   4.954   4.717 -0.0226  1.0712 -0.2676
 4508TIP3   OH234938   2.447   3.974  13.323  0.0875  0.0984 -0.2660
 4508TIP3    H134939   2.381   4.041  13.343 -0.2575  0.0794 -1.3148
 4508TIP3    H234940   2.432   3.953  13.231  0.4848 -1.1095 -0.0570
 4509TIP3   OH234941   2.498   1.117  14.380  0.0614 -0.3206  0.1138
 4509TIP3    H134942   2.417   1.167  14.370  1.0490  1.2343 -0.4099
 4509TIP3    H234943   2.525   1.098  14.290 -1.1883 -3.3341  0.3224
 4510TIP3   OH234944   6.786   3.060  13.170 -0.0339  0.2947  0.4654
 4510TIP3    H134945   6.815   3.140  13.212 -0.0314  0.3136  0.4285
 4510TIP3    H234946   6.769   2.999  13.242  0.2823  0.2221  0.4793
 4511TIP3   OH234947   0.169   6.196   1.937  0.0040  0.0231 -0.4440
 4511TIP3    H134948   0.148   6.194   1.843 -0.5388 -1.9827 -0.2945
 4511TIP3    H234949   0.100   6.248   1.976 -1.2955 -1.4014 -0.8040
 4512TIP3   OH234950   0.885   5.476  16.458 -0.1726 -0.5432 -0.6740
 4512TIP3    H134951   0.923   5.436  16.536  1.3894  2.6149  0.2654
 4512TIP3    H234952   0.792   5.487  16.480 -0.0273 -0.9530  0.1844
 4513TIP3   OH234953   1.648   1.729  11.878  0.3707 -0.1006 -0.2593
 4513TIP3    H134954   1.722   1.732  11.818  0.3295 -0.0634 -0.3090
 4513TIP3    H234955   1.641   1.637  11.903  0.1401 -0.1845 -0.6249
 4514TIP3   OH234956   2.637   0.608   6.377 -0.2702  0.1558 -0.3137
 4514TIP3    H134957   2.564   0.548   6.360  0.2073  0.1263 -2.3828
 4514TIP3    H234958   2.707   0.551   6.410 -0.8394  0.0328  0.6891
 4515TIP3   OH234959   0.027   6.156   5.299  0.0734 -0.2493  0.2712
 4515TIP3    H134960  -0.048   6.113   5.258  0.0533  2.1265 -2.3095
 4515TIP3    H234961   0.104   6.110   5.263 -0.0391 -0.5616  0.4249
 4516TIP3   OH234962   1.527   2.543   0.929  0.0138  0.5083  0.5199
 4516TIP3    H134963   1.452   2.595   0.959 -2.4007 -1.9611 -0.9625
 4516TIP3    H234964   1.566   2.509   1.009  0.8761  3.5490  1.4296
 4517TIP3   OH234965   5.340   6.536   0.391  0.5916 -0.6714  0.3515
 4517TIP3    H134966   5.280   6.518   0.319  0.6250  0.0887  0.1266
 4517TIP3    H234967   5.283   6.553   0.466  0.5647 -2.5220  0.7891
 4518TIP3   OH234968   5.131   4.004   4.305  0.1072 -0.1016 -0.5102
 4518TIP3    H134969   5.159   3.926   4.353  0.0564 -0.3170 -0.8242
 4518TIP3    H234970   5.050   3.977   4.262 -0.6670  0.5686  0.5253
 4519TIP3   OH234971   2.340   2.964  14.729  0.3423 -0.1334 -0.2198
 4519TIP3    H134972   2.372   2.924  14.810  0.5111  0.2973 -0.0744
 4519TIP3    H234973   2.319   3.054  14.753 -1.0737 -0.4319 -0.2876
 4520TIP3   OH234974   4.461   4.630  13.315 -0.0281 -0.4993 -0.5850
 4520TIP3    H134975   4.491   4.678  13.392 -2.3982  1.4089 -0.7805
 4520TIP3    H234976   4.442   4.542  13.347  0.4615 -0.1544  0.6793
 4521TIP3   OH234977   3.371   4.523  13.765  0.3194  0.1244  0.3149
 4521TIP3    H134978   3.350   4.518  13.859  0.0584  1.1086  0.3177
 4521TIP3    H234979   3.361   4.433  13.734 -0.0562 -0.1301  1.1342
 4522TIP3   OH234980   6.558   0.537   5.432  0.3533 -0.0245  0.5821
 4522TIP3    H134981   6.510   0.575   5.506  0.4276  0.5107  0.3575
 4522TIP3    H234982   6.636   0.497   5.472  0.5624  0.5514  0.7560
 4523TIP3   OH234983   3.272   4.185   4.267 -0.0523  0.1214  0.3275
 4523TIP3    H134984   3.241   4.275   4.260  1.6536  0.8684  2.1524
 4523TIP3    H234985   3.197   4.132   4.239 -0.8482  2.1004 -1.3849
 4524TIP3   OH234986   1.977   6.124  10.993  0.2417 -0.4182  0.5205
 4524TIP3    H134987   1.997   6.202  10.941  0.2906 -0.8547 -0.1281
 4524TIP3    H234988   2.056   6.069  10.984 -0.7431 -1.6183 -1.0482
 4525TIP3   OH234989   5.510   4.136   5.523 -0.2370 -0.1425 -0.2547
 4525TIP3    H134990   5.515   4.182   5.439 -1.4602  0.5314  0.0191
 4525TIP3    H234991   5.542   4.199   5.587 -1.5838  0.2254  0.0790
 4526TIP3   OH234992   2.096   3.919  15.325 -0.0586  0.0280  0.3545
 4526TIP3    H134993   2.182   3.879  15.314  0.7396  1.8630 -0.4026
 4526TIP3    H234994   2.047   3.892  15.247  1.0263  1.8352 -0.9844
 4527TIP3   OH234995   4.364   5.649  10.689 -0.4515 -0.3142 -0.0897
 4527TIP3    H134996   4.307   5.572  10.688 -0.0254 -0.6874  1.8745
 4527TIP3    H234997   4.304   5.723  10.697 -0.7489 -0.5776  0.1357
 4528TIP3   OH234998   0.667   2.800   0.768 -0.1077 -0.1368  0.2373
 4528TIP3    H134999   0.632   2.843   0.847 -0.2359  2.2489 -1.0717
 4528TIP3    H235000   0.589   2.771   0.720 -0.1190  0.4798 -0.1229
 4529TIP3   OH235001   3.884   6.214   4.107  0.1148 -0.5006 -0.2926
 4529TIP3    H135002   3.800   6.191   4.145  1.3299 -1.8642  1.6808
 4529TIP3    H235003   3.914   6.133   4.065  1.3700 -0.6237  0.8208
 4530TIP3   OH235004   4.820   3.687   4.681 -0.2074 -0.4545 -0.3531
 4530TIP3    H135005   4.816   3.686   4.585  1.2810 -0.8511 -0.4257
 4530TIP3    H235006   4.736   3.724   4.708 -0.1655  0.8289 -1.8606
 4531TIP3   OH235007   3.712   1.016  14.542 -0.1351 -0.4571  0.2186
 4531TIP3    H135008   3.707   0.982  14.453 -0.7029  1.1067 -0.3713
 4531TIP3    H235009   3.684   0.943  14.597  0.6668 -1.5927 -0.8274
 4532TIP3   OH235010   5.741   5.324  15.660 -0.1244  0.2792 -0.2039
 4532TIP3    H135011   5.781   5.410  15.676 -2.1706  1.2458 -0.1665
 4532TIP3    H235012   5.702   5.331  15.573 -1.2043 -0.2632  0.2254
 4533TIP3   OH235013   2.345   0.884   5.313 -0.5637 -0.4832 -0.0161
 4533TIP3    H135014   2.426   0.845   5.346  1.0175  0.3308 -2.8535
 4533TIP3    H235015   2.358   0.978   5.322 -1.5265 -0.3698  0.2268
 4534TIP3   OH235016   3.114   6.025  10.281  0.3352  0.1167  0.0509
 4534TIP3    H135017   3.117   5.942  10.329  2.1131 -0.4065 -0.9259
 4534TIP3    H235018   3.086   6.089  10.346  0.5768 -0.9609  1.2400
 4535TIP3   OH235019   6.489   3.964  12.082 -0.3523 -0.7763 -0.3532
 4535TIP3    H135020   6.545   3.889  12.104  0.0479  0.0120  1.3688
 4535TIP3    H235021   6.401   3.936  12.105 -0.0584 -0.3144  1.3923
 4536TIP3   OH235022   2.420   5.136   0.461 -0.2528  0.1194  0.1915
 4536TIP3    H135023   2.337   5.144   0.413  0.7505 -2.0557 -2.0406
 4536TIP3    H235024   2.485   5.115   0.394  1.8408  0.2776  2.1000
 4537TIP3   OH235025   0.693   3.238   6.360 -0.4056  0.0500 -0.4084
 4537TIP3    H135026   0.731   3.315   6.319  1.4897 -0.2985  0.6219
 4537TIP3    H235027   0.621   3.213   6.303  0.0339  1.5776 -1.6587
 4538TIP3   OH235028   3.663   6.766  11.713  0.1252 -1.1212  0.6925
 4538TIP3    H135029   3.750   6.794  11.686 -1.8067  4.1325 -0.7815
 4538TIP3    H235030   3.652   6.803  11.801 -0.1177 -3.0651  1.5144
 4539TIP3   OH235031   5.214   0.900  13.303  0.1816  0.0226  0.1055
 4539TIP3    H135032   5.118   0.896  13.297  0.2504  0.9002 -2.0432
 4539TIP3    H235033   5.238   0.820  13.350 -1.4800 -1.1594 -0.9911
 4540TIP3   OH235034   5.089   4.729  12.392  0.1426  0.4771 -0.0902
 4540TIP3    H135035   5.155   4.721  12.323  1.2680  1.8453  0.7901
 4540TIP3    H235036   5.049   4.642  12.397  2.0050 -0.4331 -0.5460
 4541TIP3   OH235037   2.480   6.234  11.397 -0.0819 -0.3658  0.1852
 4541TIP3    H135038   2.526   6.177  11.337  1.8573  0.2720  1.0251
 4541TIP3    H235039   2.530   6.230  11.478 -0.3944  1.8310  0.5371
 4542TIP3   OH235040   1.200   0.584   5.071 -0.3561  0.4541  0.0855
 4542TIP3    H135041   1.155   0.507   5.105  2.3679 -1.4023 -0.2772
 4542TIP3    H235042   1.141   0.619   5.004 -0.2188 -3.3754 -2.1763
 4543TIP3   OH235043   6.152   3.902   2.992 -0.0923 -0.0800 -0.5693
 4543TIP3    H135044   6.214   3.846   3.039 -0.8969 -0.1621  0.4336
 4543TIP3    H235045   6.165   3.881   2.900  0.9670 -0.5072 -0.3250
 4544TIP3   OH235046   1.693   5.764   3.581  0.6901 -0.0082  0.0751
 4544TIP3    H135047   1.721   5.753   3.672 -0.9178  1.0446  0.7176
 4544TIP3    H235048   1.697   5.859   3.566  0.7474 -0.1589 -0.8980
 4545TIP3   OH235049   4.908   2.688  12.197  0.2567 -0.3881  0.0510
 4545TIP3    H135050   4.963   2.767  12.195 -0.5031  0.1442 -0.2059
 4545TIP3    H235051   4.940   2.639  12.273 -1.9280  2.1825  2.8108
 4546TIP3   OH235052   3.854   4.516  14.482 -0.7554 -0.3663 -0.1006
 4546TIP3    H135053   3.786   4.494  14.419 -0.7209 -1.0579  0.1059
 4546TIP3    H235054   3.863   4.611  14.475 -0.1629 -0.5394 -1.7348
 4547TIP3   OH235055   0.710   3.680  10.483 -0.1254  0.2873 -0.4448
 4547TIP3    H135056   0.665   3.634  10.411 -0.3908 -0.3751  0.1440
 4547TIP3    H235057   0.708   3.618  10.556  2.5269 -0.0916 -0.6601
 4548TIP3   OH235058   2.655   5.939  15.031  0.5080 -0.0431  0.5091
 4548TIP3    H135059   2.735   5.887  15.030  0.1229 -0.6391 -0.5883
 4548TIP3    H235060   2.635   5.952  14.938  0.7855  2.3382  0.7447
 4549TIP3   OH235061   5.065   5.163  12.434  0.4196 -0.4251 -0.2144
 4549TIP3    H135062   5.109   5.144  12.517 -0.7504 -0.0160  0.5215
 4549TIP3    H235063   5.130   5.142  12.367  1.0250 -1.7742  0.7637
 4550TIP3   OH235064   2.221   1.713   0.189 -0.1544  0.2586 -0.3909
 4550TIP3    H135065   2.308   1.686   0.216 -0.2746 -0.2111 -0.4735
 4550TIP3    H235066   2.186   1.760   0.265 -1.0974 -2.4112  0.8813
 4551TIP3   OH235067   5.091   4.518   1.599 -0.5860  0.6677 -0.1866
 4551TIP3    H135068   5.048   4.457   1.660 -0.3732  1.4509  0.7717
 4551TIP3    H235069   5.021   4.578   1.572 -0.8927 -0.2518 -1.4719
 4552TIP3   OH235070   2.969   3.754   5.474  0.3248  0.1797  0.1206
 4552TIP3    H135071   3.019   3.710   5.543  1.4305  2.3763  0.7726
 4552TIP3    H235072   3.036   3.791   5.416 -0.5925  0.1750 -0.9569
 4553TIP3   OH235073   1.865   1.565  12.026 -0.0655 -1.1067 -0.1872
 4553TIP3    H135074   1.925   1.638  12.040 -0.7602 -0.4550 -0.5884
 4553TIP3    H235075   1.891   1.529  11.941 -0.8482 -0.2378 -0.7986
 4554TIP3   OH235076   1.627   2.616   3.037 -0.1301 -0.0989 -0.1440
 4554TIP3    H135077   1.550   2.569   3.004  0.0302 -0.2357 -0.3230
 4554TIP3    H235078   1.668   2.654   2.960  0.4638 -0.7513 -0.1551
 4555TIP3   OH235079   3.436   2.307  12.990  0.1213  0.0971 -0.0568
 4555TIP3    H135080   3.389   2.231  13.026  1.2030 -0.4449  0.2271
 4555TIP3    H235081   3.367   2.362  12.953 -0.8301 -0.2902  1.0925
 4556TIP3   OH235082   4.796   5.128  11.102  0.3011  0.3002 -0.6058
 4556TIP3    H135083   4.757   5.076  11.032  1.6526  0.2559 -1.3384
 4556TIP3    H235084   4.824   5.209  11.059 -0.3650  0.9821  0.2184
 4557TIP3   OH235085   1.968   1.288  14.330  0.4494  0.2310 -0.1868
 4557TIP3    H135086   1.956   1.222  14.262 -0.5906  0.7766 -0.5589
 4557TIP3    H235087   1.888   1.342  14.325  0.1028 -0.0477  1.8284
 4558TIP3   OH235088   1.747   6.029   6.093 -0.6542  0.3818  0.2989
 4558TIP3    H135089   1.662   6.067   6.114 -0.2604  1.7905 -0.6299
 4558TIP3    H235090   1.809   6.075   6.149 -0.2492  0.7473 -0.4350
 4559TIP3   OH235091   5.116   4.203   2.726 -0.0605  0.1431 -0.3809
 4559TIP3    H135092   5.157   4.289   2.717  0.9355 -0.2786  0.0447
 4559TIP3    H235093   5.123   4.183   2.820  0.9838 -1.0147 -0.6830
 4560TIP3   OH235094   1.837   0.573   3.815  0.1128  1.2146  0.4130
 4560TIP3    H135095   1.802   0.516   3.883  0.3666  1.4392  0.7310
 4560TIP3    H235096   1.909   0.522   3.777 -0.8704  0.5428 -0.5839
 4561TIP3   OH235097   4.523   3.007   2.420 -0.1603 -0.0933  0.4690
 4561TIP3    H135098   4.511   2.987   2.512 -1.2263  0.3493  0.4241
 4561TIP3    H235099   4.453   2.960   2.375  0.8517 -1.0019 -0.2145
 4562TIP3   OH235100   1.629   2.083  16.228 -0.0822  0.5695  0.4710
 4562TIP3    H135101   1.543   2.044  16.238 -0.8641  1.9890 -0.4908
 4562TIP3    H235102   1.690   2.009  16.229 -1.4584 -0.6018 -0.7041
 4563TIP3   OH235103   2.084   2.460  15.762 -0.0276 -0.2362 -0.2550
 4563TIP3    H135104   2.100   2.504  15.679 -1.2814  2.1711  0.7328
 4563TIP3    H235105   2.005   2.408  15.748 -2.4277  3.1034  0.4626
 4564TIP3   OH235106   1.817   5.872   1.208  0.1273 -0.2321  0.0638
 4564TIP3    H135107   1.829   5.943   1.146 -0.2457  0.2779  0.5687
 4564TIP3    H235108   1.844   5.908   1.292 -1.0706 -0.3397  0.5109
 4565TIP3   OH235109   0.366   6.230  16.728 -0.1813  0.0253 -0.0854
 4565TIP3    H135110   0.405   6.144  16.711  0.1309  0.0763  0.3467
 4565TIP3    H235111   0.344   6.264  16.641  2.9344  1.0075 -0.5387
 4566TIP3   OH235112   0.084   5.115  13.635  0.3764 -0.3287  0.2119
 4566TIP3    H135113   0.077   5.210  13.621 -1.0198 -0.5653 -0.8035
 4566TIP3    H235114   0.169   5.104  13.677  0.0024  1.5058  1.5268
 4567TIP3   OH235115   5.220   4.770  15.091  0.0186  0.3750  0.4416
 4567TIP3    H135116   5.205   4.680  15.122  0.7004 -0.2904 -1.0748
 4567TIP3    H235117   5.143   4.791  15.039  0.7347 -0.0803 -0.8241
 4568TIP3   OH235118   0.631   4.984  15.440  0.4564 -0.2851  0.2544
 4568TIP3    H135119   0.619   4.931  15.519  2.3150 -1.2211 -0.0589
 4568TIP3    H235120   0.664   4.922  15.374 -0.6181  0.5792 -1.1291
 4569TIP3   OH235121   3.082   0.264   0.661  0.1500 -0.2053 -0.2778
 4569TIP3    H135122   3.146   0.334   0.656  0.9014 -0.7973  0.7794
 4569TIP3    H235123   3.112   0.199   0.597  0.0952 -0.0704 -0.4395
 4570TIP3   OH235124   3.024   3.763   1.051  0.0753  0.3238 -0.1407
 4570TIP3    H135125   3.022   3.669   1.032 -0.8042 -0.1065  1.9141
 4570TIP3    H235126   3.086   3.799   0.988  0.4597 -1.6440 -0.9258
 4571TIP3   OH235127   4.003   4.112   1.324  0.1828 -0.1096  0.5071
 4571TIP3    H135128   3.972   4.044   1.383  1.3361  1.6065  3.1805
 4571TIP3    H235129   4.092   4.085   1.302  0.1242 -0.2146  0.3986
 4572TIP3   OH235130   4.663   3.733   2.589 -0.1416 -0.4906 -0.7292
 4572TIP3    H135131   4.745   3.763   2.548  0.3460 -0.1203  0.5128
 4572TIP3    H235132   4.623   3.677   2.522  0.6164  0.1618 -1.7476
 4573TIP3   OH235133   4.239   4.090   1.522 -0.3163  0.2729 -0.1126
 4573TIP3    H135134   4.234   4.003   1.481 -0.6701  0.7824 -1.1640
 4573TIP3    H235135   4.292   4.142   1.462  1.4730  0.2803  1.4392
 4574TIP3   OH235136   5.517   2.401  12.644 -0.2528 -0.2510 -0.0599
 4574TIP3    H135137   5.610   2.399  12.623  0.0072 -0.1131  1.1017
 4574TIP3    H235138   5.512   2.439  12.731 -1.4377  0.2423 -0.3307
 4575TIP3   OH235139   3.691   2.941  14.567  0.0110 -0.3832  0.0807
 4575TIP3    H135140   3.734   2.940  14.482 -0.5404 -0.0598 -0.2028
 4575TIP3    H235141   3.743   2.881  14.621  1.1120  0.3929 -0.1101
 4576TIP3   OH235142   2.110   2.397   2.588  0.6784 -0.4309 -0.2031
 4576TIP3    H135143   2.026   2.416   2.629  0.7919  0.7198 -0.4916
 4576TIP3    H235144   2.106   2.441   2.503  2.0719  0.7678  0.3241
 4577TIP3   OH235145   3.203   0.607  12.801  0.4440 -0.0746 -0.0619
 4577TIP3    H135146   3.158   0.653  12.730  1.2013  0.7844  0.0097
 4577TIP3    H235147   3.247   0.534  12.758  0.2884  0.0097 -0.3663
 4578TIP3   OH235148   6.213   0.835  16.198  0.0844  0.6209 -0.1774
 4578TIP3    H135149   6.224   0.746  16.230  1.4018  0.7358 -0.2792
 4578TIP3    H235150   6.179   0.884  16.272  1.4504  0.5074  0.5320
 4579TIP3   OH235151   5.214   4.708  15.850 -0.0304  0.4204  0.2532
 4579TIP3    H135152   5.213   4.693  15.756 -0.5519 -1.2858  0.5191
 4579TIP3    H235153   5.304   4.690  15.877 -0.6977 -2.6247  0.6050
 4580TIP3   OH235154   6.542   2.564   4.227 -0.4402  0.1151 -0.1409
 4580TIP3    H135155   6.617   2.615   4.196  0.1403 -1.2313 -1.0206
 4580TIP3    H235156   6.474   2.578   4.162  0.3987 -1.8061 -1.4814
 4581TIP3   OH235157   2.869   1.315  16.085 -0.3775 -0.1984  0.0030
 4581TIP3    H135158   2.845   1.268  16.165  1.1618  0.0466  0.6348
 4581TIP3    H235159   2.846   1.255  16.014 -0.9712 -0.7749  0.6727
 4582TIP3   OH235160   2.520   3.495   0.081 -0.3856 -0.4686 -0.4788
 4582TIP3    H135161   2.452   3.523   0.020 -0.5905 -0.3035 -0.1702
 4582TIP3    H235162   2.602   3.505   0.031 -0.5570 -0.3986 -0.7493
 4583TIP3   OH235163   3.196   2.693  17.070 -0.0418 -0.5909  1.0723
 4583TIP3    H135164   3.225   2.607  17.040  2.5418  0.5651  0.1321
 4583TIP3    H235165   3.101   2.685  17.075 -0.1392 -2.5368 -2.1347
 4584TIP3   OH235166   3.894   4.544  13.008  0.0748  0.1317 -0.1787
 4584TIP3    H135167   3.962   4.609  13.025  0.8574 -0.2230 -1.8373
 4584TIP3    H235168   3.907   4.476  13.074  2.0392 -0.4724 -1.1741
 4585TIP3   OH235169   4.889   6.207   1.839  0.1188  0.0407  0.2982
 4585TIP3    H135170   4.857   6.264   1.769 -3.0182  0.1259  1.7047
 4585TIP3    H235171   4.877   6.118   1.804  0.3627  0.1168  0.0144
 4586TIP3   OH235172   6.439   0.915  15.379  0.1980 -0.8977 -0.0686
 4586TIP3    H135173   6.444   0.944  15.470 -1.7689  0.3293 -0.3234
 4586TIP3    H235174   6.384   0.837  15.382 -1.0652 -0.0210 -0.3860
 4587TIP3   OH235175   2.435   3.123   6.479 -0.1141 -0.5373  0.0333
 4587TIP3    H135176   2.402   3.049   6.428  1.5358 -2.7772  2.1294
 4587TIP3    H235177   2.461   3.085   6.563  3.1117  1.9669  0.2588
 4588TIP3   OH235178   5.555   2.925  12.887 -0.3023  0.2307  0.0947
 4588TIP3    H135179   5.538   3.011  12.925  1.2185  0.3465  0.5710
 4588TIP3    H235180   5.520   2.863  12.951  0.2094  0.4744  0.6242
 4589TIP3   OH235181   1.785   5.165   3.177 -0.1475  0.0755 -0.0358
 4589TIP3    H135182   1.820   5.112   3.248 -0.1946  0.9141  0.6273
 4589TIP3    H235183   1.849   5.157   3.106  0.6848  0.4905  0.6650
 4590TIP3   OH235184   0.409   5.892   3.029 -0.0307  0.3549  0.3542
 4590TIP3    H135185   0.400   5.926   2.940 -1.3615  1.6712  0.9785
 4590TIP3    H235186   0.423   5.970   3.083 -1.0904 -0.2769  1.5537
 4591TIP3   OH235187   6.634   5.365   0.233 -0.4660 -0.4313 -0.0946
 4591TIP3    H135188   6.699   5.354   0.302 -0.9762  2.6934  0.9737
 4591TIP3    H235189   6.614   5.276   0.203  0.5833 -1.7591  3.0132
 4592TIP3   OH235190   0.866   5.012  12.275  0.5380  0.5938  0.3231
 4592TIP3    H135191   0.867   5.098  12.317 -0.2791  1.1045 -0.6600
 4592TIP3    H235192   0.885   5.030  12.183 -0.3354 -0.1960 -0.0218
 4593TIP3   OH235193   1.211   0.494   2.722  0.3643  0.6247 -0.1865
 4593TIP3    H135194   1.292   0.535   2.751 -0.4468  2.1358  0.0272
 4593TIP3    H235195   1.208   0.411   2.770  0.3414  1.8908  2.1134
 4594TIP3   OH235196   5.560   4.186  12.462  0.3799  0.1170 -0.0242
 4594TIP3    H135197   5.593   4.106  12.504 -0.0376 -0.0877 -0.0859
 4594TIP3    H235198   5.465   4.173  12.457  0.4577  0.0116 -1.3216
 4595TIP3   OH235199   6.568   6.683  12.971  0.1723  0.1816 -0.3938
 4595TIP3    H135200   6.552   6.778  12.978  3.5968  0.9203 -1.7218
 4595TIP3    H235201   6.654   6.676  12.931  0.9848 -3.5201  1.7530
 4596TIP3   OH235202   4.592   4.307   3.032  0.1371  0.7142 -0.3284
 4596TIP3    H135203   4.552   4.344   2.953  0.8157  0.8483 -0.6097
 4596TIP3    H235204   4.661   4.369   3.056 -0.4429  0.9637  0.7029
 4597TIP3   OH235205   6.372   2.999  11.354 -0.2098 -0.3471 -0.5978
 4597TIP3    H135206   6.371   3.093  11.336  1.4463 -0.4664 -1.4012
 4597TIP3    H235207   6.302   2.964  11.299 -0.4997  0.3472 -0.6837
 4598TIP3   OH235208   3.483   2.664   4.032  0.1422  0.1464  0.0564
 4598TIP3    H135209   3.413   2.682   3.970  0.9477 -2.3254 -1.6634
 4598TIP3    H235210   3.439   2.654   4.116 -1.0425  2.9568 -0.1936
 4599TIP3   OH235211   1.438   2.843  11.026 -0.3492 -0.4070  0.0974
 4599TIP3    H135212   1.444   2.766  10.970  0.7143  0.4412 -0.9678
 4599TIP3    H235213   1.528   2.859  11.055 -1.0504 -1.5541  3.0490
 4600TIP3   OH235214   6.704   2.856  13.757  0.3725 -0.5318  0.1564
 4600TIP3    H135215   6.715   2.932  13.814  1.1962 -1.2547  0.9851
 4600TIP3    H235216   6.664   2.789  13.813  0.1177 -0.8727 -0.4301
 4601TIP3   OH235217   5.421   3.635  12.179 -0.1232 -0.3007 -0.0899
 4601TIP3    H135218   5.490   3.670  12.236  1.2466 -0.1858 -1.7584
 4601TIP3    H235219   5.370   3.577  12.235 -0.9509  2.4340  2.1490
 4602TIP3   OH235220   3.655   6.401  13.341  0.0347 -0.3486  0.1180
 4602TIP3    H135221   3.731   6.405  13.400 -0.7692 -0.1931  1.1648
 4602TIP3    H235222   3.653   6.488  13.299 -2.3412  1.4276  3.6692
 4603TIP3   OH235223   1.325   3.620  14.058 -0.2279 -0.0598  0.8715
 4603TIP3    H135224   1.274   3.598  14.136 -0.4135  1.8357  1.2890
 4603TIP3    H235225   1.259   3.633  13.990 -0.1366 -0.3540  0.7242
 4604TIP3   OH235226   2.625   0.438  11.261  0.2396  0.3421  0.7172
 4604TIP3    H135227   2.587   0.385  11.192  0.3977  0.2398  0.7082
 4604TIP3    H235228   2.592   0.527  11.245  0.2466  0.3111  0.5338
 4605TIP3   OH235229   5.788   0.813  14.814 -0.0837  0.8612  0.3696
 4605TIP3    H135230   5.702   0.852  14.831 -0.5627 -0.5542  1.3051
 4605TIP3    H235231   5.829   0.872  14.751 -2.3872  0.7057 -1.3348
 4606TIP3   OH235232   1.697   4.775   0.160 -0.8663 -0.2215 -0.2509
 4606TIP3    H135233   1.665   4.827   0.086  0.2958 -0.3314 -0.8467
 4606TIP3    H235234   1.787   4.806   0.174 -1.5843  0.9272  2.1489
 4607TIP3   OH235235   0.889   2.788  17.061 -0.7246 -0.1346 -0.1342
 4607TIP3    H135236   0.945   2.714  17.035 -2.3888 -1.5023  0.1509
 4607TIP3    H235237   0.830   2.800  16.987 -2.0268 -0.6505  0.8009
 4608TIP3   OH235238   3.839   2.808   4.779 -0.1636  0.1720 -0.1086
 4608TIP3    H135239   3.779   2.737   4.758 -0.4385 -0.0632  1.4061
 4608TIP3    H235240   3.825   2.825   4.873 -0.5436  2.6262 -0.5547
 4609TIP3   OH235241   6.274   5.923  12.790 -0.1009  0.3327 -0.0678
 4609TIP3    H135242   6.308   6.013  12.795 -2.5254  1.2025  1.3737
 4609TIP3    H235243   6.324   5.875  12.856  1.7728  0.3882 -1.3997
 4610TIP3   OH235244   0.761   1.168   4.970  0.2364  0.1075 -0.6223
 4610TIP3    H135245   0.778   1.235   4.905 -0.0374  0.3679 -0.4300
 4610TIP3    H235246   0.666   1.171   4.982  0.2475 -0.1743 -0.4650
 4611TIP3   OH235247   6.469   5.758  12.132 -0.2368 -0.0508 -0.5330
 4611TIP3    H135248   6.492   5.684  12.076  0.0958 -0.2011 -0.1954
 4611TIP3    H235249   6.429   5.719  12.209 -1.9996  0.2249 -1.2876
 4612TIP3   OH235250   3.127   0.479   0.322 -0.3589  0.1198  0.0050
 4612TIP3    H135251   3.116   0.408   0.258 -0.9814  0.0820  0.1561
 4612TIP3    H235252   3.209   0.458   0.366 -0.0848 -0.0227 -0.5690
 4613TIP3   OH235253   1.440   1.888  11.053 -0.2393 -0.4010  0.0909
 4613TIP3    H135254   1.400   1.857  11.135  0.4333 -1.0191  0.1914
 4613TIP3    H235255   1.526   1.921  11.080 -0.6763  0.9485 -0.1206
 4614TIP3   OH235256   0.250   6.399  13.523 -0.6926 -0.1461 -0.6063
 4614TIP3    H135257   0.316   6.466  13.542 -0.4912 -0.6101  0.3444
 4614TIP3    H235258   0.282   6.358  13.442 -1.3655  1.5809 -1.7716
 4615TIP3   OH235259   1.154   0.236  15.865  0.7082 -0.6535  0.3153
 4615TIP3    H135260   1.134   0.248  15.772 -0.8995 -0.6402  0.6575
 4615TIP3    H235261   1.096   0.165  15.893  0.1299  0.3334  1.6575
 4616TIP3   OH235262   4.974   2.001   4.951 -0.3301 -0.0587 -0.4031
 4616TIP3    H135263   4.904   1.937   4.932  0.1116 -0.6229 -0.1426
 4616TIP3    H235264   4.979   2.055   4.872  1.4611 -2.3651 -1.9415
 4617TIP3   OH235265   3.549   2.604  15.641 -0.7374 -0.4059  0.8884
 4617TIP3    H135266   3.515   2.664  15.707  0.6346 -0.7844  1.9678
 4617TIP3    H235267   3.637   2.583  15.671  0.4333  0.4555 -1.7686
 4618TIP3   OH235268   0.721   5.718  11.295  0.0095  0.1848 -0.3020
 4618TIP3    H135269   0.704   5.687  11.206  0.4823 -0.1215 -0.2848
 4618TIP3    H235270   0.792   5.663  11.327  0.7022  1.1271 -0.1919
 4619TIP3   OH235271   1.520   4.705   3.259  0.0249 -0.4384  0.1436
 4619TIP3    H135272   1.514   4.795   3.225  1.0714 -1.0392 -1.6883
 4619TIP3    H235273   1.598   4.705   3.314  0.5523 -0.4654 -0.6061
 4620TIP3   OH235274   0.771   0.841   3.354 -0.3203  0.0202 -0.1384
 4620TIP3    H135275   0.862   0.811   3.354  0.2671  1.7180  0.2510
 4620TIP3    H235276   0.776   0.932   3.384 -2.0471  0.4434 -1.0671
 4621TIP3   OH235277   1.280   0.332   3.265  0.1930 -0.6165 -0.3349
 4621TIP3    H135278   1.232   0.262   3.310 -0.4742 -0.3227 -0.5965
 4621TIP3    H235279   1.289   0.401   3.330 -1.8803  0.3286 -1.0235
 4622TIP3   OH235280   0.713   2.183  15.301 -0.2617 -0.1825  0.2769
 4622TIP3    H135281   0.676   2.101  15.270 -0.0606  0.5306 -1.9139
 4622TIP3    H235282   0.655   2.251  15.266  1.7946  0.8092 -1.3261
 4623TIP3   OH235283   3.294   1.565  16.019 -0.1018  0.3210  0.2996
 4623TIP3    H135284   3.201   1.587  16.025  0.1567  1.1988  1.2939
 4623TIP3    H235285   3.295   1.470  16.008 -1.0716  0.0854  2.0066
 4624TIP3   OH235286   0.742   4.400  16.361  0.3986  0.1811 -0.1561
 4624TIP3    H135287   0.706   4.410  16.273  0.1108  1.6460  0.1205
 4624TIP3    H235288   0.698   4.322  16.396  1.4025 -1.1213 -1.7167
 4625TIP3   OH235289   6.122   4.142  15.942 -0.8242  0.4246 -0.1738
 4625TIP3    H135290   6.132   4.047  15.940  1.8902  0.6535  0.8284
 4625TIP3    H235291   6.139   4.169  15.852  0.9800  0.1442  0.0513
 4626TIP3   OH235292   3.058   1.642   4.779  0.0525  0.5395 -0.0142
 4626TIP3    H135293   2.972   1.659   4.740 -0.4282 -1.0379  0.3262
 4626TIP3    H235294   3.055   1.550   4.804  1.6106  0.6482  0.6115
 4627TIP3   OH235295   0.891   5.472   4.944 -0.4644 -0.1697 -0.0668
 4627TIP3    H135296   0.801   5.506   4.942 -0.6675 -0.5234  2.0606
 4627TIP3    H235297   0.905   5.437   4.856 -2.3627  0.0421 -0.4733
 4628TIP3   OH235298   6.267   3.555   6.565  0.1709  0.4527 -0.2726
 4628TIP3    H135299   6.335   3.515   6.621  0.4887  3.1233  1.3546
 4628TIP3    H235300   6.316   3.615   6.509 -0.7703  2.1943  0.7255
 4629TIP3   OH235301   5.235   6.579  15.034  0.2257  0.1302  0.1521
 4629TIP3    H135302   5.331   6.581  15.026  0.2914  1.5496  1.0265
 4629TIP3    H235303   5.215   6.490  15.062  1.0905 -0.8276 -2.1612
 4630TIP3   OH235304   2.538   4.180   5.024 -0.3212  0.2759 -0.2927
 4630TIP3    H135305   2.565   4.271   5.035 -0.1714  0.1028  0.8304
 4630TIP3    H235306   2.591   4.148   4.951 -0.1981  1.0171 -0.5331
 4631TIP3   OH235307   2.098   6.632  11.756 -0.5768  0.4631  0.3968
 4631TIP3    H135308   2.012   6.632  11.799 -1.2793  0.9115 -0.9708
 4631TIP3    H235309   2.092   6.703  11.692  0.4593 -0.1834 -0.4151
 4632TIP3   OH235310   4.375   3.541  16.622 -0.3368  0.2976  0.0395
 4632TIP3    H135311   4.434   3.466  16.609  0.7900  1.4029 -1.3782
 4632TIP3    H235312   4.331   3.523  16.705 -0.7552 -2.3906 -0.7206
 4633TIP3   OH235313   6.767   1.713   5.606 -0.6095 -0.0638 -0.3274
 4633TIP3    H135314   6.820   1.699   5.684 -1.0125 -1.6143 -0.3144
 4633TIP3    H235315   6.817   1.672   5.535 -1.4812 -0.9932 -0.4210
 4634TIP3   OH235316   2.793   1.745  15.765 -0.3254 -0.1637 -0.2997
 4634TIP3    H135317   2.845   1.681  15.815  0.3012  0.5802  0.0072
 4634TIP3    H235318   2.843   1.759  15.685 -0.7890 -0.5331 -0.6628
 4635TIP3   OH235319   3.551   0.234  12.734 -0.0235 -0.1416 -0.1232
 4635TIP3    H135320   3.630   0.253  12.684  0.2007 -2.9191 -0.8863
 4635TIP3    H235321   3.536   0.141  12.721 -0.8912 -0.6111  3.6857
 4636TIP3   OH235322   2.135   1.935   4.681  0.5062 -0.3879  0.8481
 4636TIP3    H135323   2.215   1.923   4.731  1.5638 -2.6774 -1.2696
 4636TIP3    H235324   2.064   1.921   4.743  1.7462  1.0507  2.6096
 4637TIP3   OH235325   3.560   1.916  11.960  0.2973  0.0708 -0.0125
 4637TIP3    H135326   3.588   1.854  11.892 -0.4919  2.2692 -2.4097
 4637TIP3    H235327   3.635   1.974  11.973  0.3164 -0.1146  0.7581
 4638TIP3   OH235328   1.202   2.599   2.087  0.2438  0.5323  0.0024
 4638TIP3    H135329   1.278   2.611   2.030 -0.3541 -1.4931 -1.2895
 4638TIP3    H235330   1.224   2.523   2.141 -0.0419  1.1776  1.0397
 4639TIP3   OH235331   4.807   3.908   4.945 -0.4206  0.6549  0.5053
 4639TIP3    H135332   4.891   3.881   4.907  0.0296  0.7518  1.4197
 4639TIP3    H235333   4.825   3.914   5.039 -2.0894 -1.7327  1.0201
 4640TIP3   OH235334   0.287   0.842  15.373  0.4597  0.3488  0.3108
 4640TIP3    H135335   0.276   0.898  15.450  3.5296  0.2693  0.8742
 4640TIP3    H235336   0.382   0.839  15.358  0.1145 -1.7229 -1.9329
 4641TIP3   OH235337   2.191   5.929  11.944  0.6017  0.1692 -0.0300
 4641TIP3    H135338   2.142   6.000  11.985  0.9702  0.7673 -0.6113
 4641TIP3    H235339   2.214   5.871  12.016 -1.7830 -0.6330  0.1134
 4642TIP3   OH235340   4.297   3.831  14.988  0.0573 -0.4814 -0.5513
 4642TIP3    H135341   4.289   3.921  14.957  2.9595  0.3996  1.1027
 4642TIP3    H235342   4.357   3.789  14.927  0.6223 -0.6014  0.0852
 4643TIP3   OH235343   1.274   3.236  11.615 -0.4422 -0.5730  0.2260
 4643TIP3    H135344   1.336   3.164  11.601 -0.9276 -1.0877  0.7156
 4643TIP3    H235345   1.269   3.245  11.710 -0.3308  0.1539  0.1653
 4644TIP3   OH235346   0.676   6.624  10.495  0.1528 -0.6351 -0.0991
 4644TIP3    H135347   0.737   6.576  10.550 -0.9476 -0.1981  1.5381
 4644TIP3    H235348   0.612   6.558  10.467  0.6515 -0.8348 -0.7763
 4645TIP3   OH235349   3.872   0.445   0.511  0.1243  0.3953 -0.2807
 4645TIP3    H135350   3.880   0.536   0.482  2.6355  1.1800  2.6093
 4645TIP3    H235351   3.956   0.406   0.489  0.1924 -0.3592  1.3069
 4646TIP3   OH235352   2.401   6.309   2.320  0.1078 -0.2102  0.3578
 4646TIP3    H135353   2.395   6.400   2.291 -2.6807  0.2943  2.3958
 4646TIP3    H235354   2.438   6.315   2.409 -0.9331 -0.9929  0.8452
 4647TIP3   OH235355   0.868   4.305  17.035  0.4497 -0.1434  0.4386
 4647TIP3    H135356   0.775   4.324  17.038  0.5313  0.2508  0.5940
 4647TIP3    H235357   0.882   4.241  17.105  0.3803  0.1997  0.7745
 4648TIP3   OH235358   3.115   0.128  14.677 -0.1729  0.2057  0.1615
 4648TIP3    H135359   3.173   0.085  14.740  1.4019  1.8657 -0.0859
 4648TIP3    H235360   3.111   0.219  14.706 -2.3136  0.2269 -0.1018
 4649TIP3   OH235361   5.974   2.821  12.604 -0.1306  0.4354 -0.4968
 4649TIP3    H135362   6.038   2.790  12.668 -1.2126 -1.4872 -0.2869
 4649TIP3    H235363   6.026   2.868  12.538  1.6106 -1.8449 -0.8109
 4650TIP3   OH235364   5.730   4.803  12.682  0.4314 -0.1639 -0.3626
 4650TIP3    H135365   5.778   4.720  12.688 -0.5773 -0.6237  2.5253
 4650TIP3    H235366   5.747   4.846  12.766 -1.0549  1.4016 -0.8379
 4651TIP3   OH235367   1.806   6.552   4.855 -0.2724 -0.3762 -0.0812
 4651TIP3    H135368   1.828   6.628   4.802  0.4824  1.2989  2.5474
 4651TIP3    H235369   1.710   6.552   4.857 -0.3021 -0.2020 -1.0372
 4652TIP3   OH235370   2.030   4.791   0.700  0.4809  0.0668 -0.4006
 4652TIP3    H135371   1.995   4.737   0.629  2.0112 -0.5985 -0.6590
 4652TIP3    H235372   2.027   4.881   0.666  0.4967 -0.1625 -1.0161
 4653TIP3   OH235373   4.799   4.689  12.328  0.1360  0.3542 -0.4292
 4653TIP3    H135374   4.877   4.745  12.326 -1.3684  2.4744 -2.1499
 4653TIP3    H235375   4.773   4.687  12.420  0.7263  1.7520 -0.2284
 4654TIP3   OH235376   4.886   3.341   4.025  0.5042 -0.4149 -0.0203
 4654TIP3    H135377   4.952   3.273   4.041 -0.7762 -1.5337  0.5489
 4654TIP3    H235378   4.802   3.296   4.036 -0.3560  1.0224 -0.6595
 4655TIP3   OH235379   3.623   5.392   3.841  0.8182 -0.1518  0.0572
 4655TIP3    H135380   3.592   5.329   3.907 -0.9341 -0.9675 -1.5121
 4655TIP3    H235381   3.545   5.442   3.817  1.5656  0.5182 -1.0054
 4656TIP3   OH235382   2.198   5.586  14.079  0.1344  0.0908  0.5530
 4656TIP3    H135383   2.264   5.571  14.011  0.6285  1.1575  0.7868
 4656TIP3    H235384   2.208   5.679  14.102 -3.7290  1.1613 -1.7840
 4657TIP3   OH235385   3.708   0.436  16.511 -0.3483 -0.2944  0.4040
 4657TIP3    H135386   3.639   0.501  16.522  0.9568  1.3454 -1.0499
 4657TIP3    H235387   3.742   0.422  16.600 -2.5419 -1.1533  1.1389
 4658TIP3   OH235388   2.152   4.562  16.937 -0.1782  0.3934  0.7089
 4658TIP3    H135389   2.156   4.650  16.975 -0.8816  0.3062  1.0015
 4658TIP3    H235390   2.205   4.508  16.996 -1.4222  0.2208  1.6955
 4659TIP3   OH235391   0.187   0.251   5.049 -0.2442 -0.1547  0.1410
 4659TIP3    H135392   0.170   0.172   5.102  2.3523 -1.0759 -0.3438
 4659TIP3    H235393   0.193   0.219   4.959  1.1172  0.5452 -0.0288
 4660TIP3   OH235394   4.902   0.546  13.411  0.3364 -0.4190 -0.4790
 4660TIP3    H135395   4.963   0.473  13.409 -0.3604 -1.0535  0.8539
 4660TIP3    H235396   4.942   0.613  13.356  0.5725 -2.1219 -2.4242
 4661TIP3   OH235397   6.021   6.145  13.146 -0.3095  0.4316  0.0904
 4661TIP3    H135398   6.025   6.054  13.115  0.4137  0.4030  0.2536
 4661TIP3    H235399   5.962   6.189  13.085  0.0109  0.0523 -0.4963
 4662TIP3   OH235400   1.955   4.818   3.037  0.2030 -0.6561  0.0388
 4662TIP3    H135401   1.871   4.799   2.995 -1.1213 -0.4603  2.4796
 4662TIP3    H235402   1.932   4.868   3.116  2.5664 -1.1342  1.0868
 4663TIP3   OH235403   0.405   0.061  10.804 -0.5931  0.2001 -0.2447
 4663TIP3    H135404   0.495   0.072  10.771  0.8279 -1.5804  2.8263
 4663TIP3    H235405   0.356   0.134  10.765  2.1009  1.0331 -2.2297
 4664TIP3   OH235406   3.468   1.977   3.479 -0.3141  0.8301  0.2433
 4664TIP3    H135407   3.389   1.927   3.459  0.0061  0.3313  0.2068
 4664TIP3    H235408   3.525   1.963   3.404  0.5809 -0.4112  1.1238
 4665TIP3   OH235409   3.999   6.368   5.879  0.0282 -0.2076  0.1145
 4665TIP3    H135410   4.044   6.452   5.875 -0.7050  0.1549 -0.6017
 4665TIP3    H235411   3.916   6.382   5.834 -0.3252 -1.1763  0.4316
 4666TIP3   OH235412   3.005   2.946  16.987 -0.6068  0.2579  0.6018
 4666TIP3    H135413   2.990   2.934  16.894  0.9627  0.5298  0.3077
 4666TIP3    H235414   3.030   2.860  17.019  0.4650  0.5052  0.4522
 4667TIP3   OH235415   3.031   1.775  15.550 -0.5613  0.2178 -0.0155
 4667TIP3    H135416   3.120   1.751  15.575 -1.1797 -2.3205 -0.1569
 4667TIP3    H235417   3.037   1.868  15.526  1.8720  0.2758  0.7091
 4668TIP3   OH235418   0.843   4.593   0.315 -0.1321  0.3603  0.0162
 4668TIP3    H135419   0.932   4.608   0.345  0.5723  0.0518 -1.8176
 4668TIP3    H235420   0.847   4.510   0.267 -1.8212 -0.6389  1.5299
 4669TIP3   OH235421   3.492   3.164   4.838  0.5911 -0.0690  0.2702
 4669TIP3    H135422   3.465   3.222   4.767  0.8611 -0.1094  0.1359
 4669TIP3    H235423   3.410   3.137   4.879  0.4514  0.1942  0.1643
 4670TIP3   OH235424   1.940   2.520   4.564 -0.3302 -0.3198  0.2077
 4670TIP3    H135425   1.991   2.508   4.645 -0.1305  1.8959  0.4490
 4670TIP3    H235426   1.851   2.539   4.594 -0.2568  0.5048 -0.0612
 4671TIP3   OH235427   2.154   5.041   2.127  0.4210 -0.2883 -0.3925
 4671TIP3    H135428   2.237   5.088   2.120  1.0442 -1.4412 -0.9348
 4671TIP3    H235429   2.134   5.014   2.037 -0.2041 -0.5857 -0.1647
 4672TIP3   OH235430   2.699   1.937  15.987  0.1329  0.0407 -0.1146
 4672TIP3    H135431   2.620   1.908  16.033 -0.3262 -0.4201 -1.1566
 4672TIP3    H235432   2.713   1.870  15.920  0.5711  0.8822 -0.8792
 4673TIP3   OH235433   3.708   1.249   5.618  0.0630 -0.2344 -0.1926
 4673TIP3    H135434   3.628   1.201   5.596  0.1069 -0.1556 -0.5156
 4673TIP3    H235435   3.678   1.317   5.679 -0.2153  0.1756 -0.7847
 4674TIP3   OH235436   0.475   2.936   4.978  0.2038 -0.0783 -0.3944
 4674TIP3    H135437   0.403   2.975   4.928 -0.7996 -0.3032  0.8765
 4674TIP3    H235438   0.548   2.997   4.965 -0.8496  1.3163  0.1394
 4675TIP3   OH235439   2.122   3.631  14.815  0.1614 -0.0454  0.7118
 4675TIP3    H135440   2.083   3.717  14.800  1.4746  0.6434  1.2668
 4675TIP3    H235441   2.203   3.648  14.862 -0.1607 -1.6741  1.9034
 4676TIP3   OH235442   5.588   5.120  12.212 -0.4300 -0.7369  0.4560
 4676TIP3    H135443   5.581   5.090  12.303 -2.0534  1.0172  0.9492
 4676TIP3    H235444   5.669   5.080  12.180  1.2837  0.2496  3.2997
 4677TIP3   OH235445   3.795   0.277  12.613  0.3529  0.8193  0.3633
 4677TIP3    H135446   3.856   0.248  12.545 -0.8391  0.2831 -0.4975
 4677TIP3    H235447   3.785   0.371  12.599  1.5721  1.0416  0.9878
 4678TIP3   OH235448   4.065   3.304   5.144  0.6158 -0.1854  0.1256
 4678TIP3    H135449   4.093   3.395   5.150  2.1070 -0.5691 -0.8320
 4678TIP3    H235450   4.145   3.255   5.124 -0.5880 -1.3637 -2.0836
 4679TIP3   OH235451   6.648   1.557  14.422 -0.6358  0.4371 -0.1214
 4679TIP3    H135452   6.637   1.462  14.424 -0.3049  0.3953 -0.2189
 4679TIP3    H235453   6.603   1.589  14.500 -1.3647  0.2610 -0.4708
 4680TIP3   OH235454   6.638   5.392   1.614 -0.5271  0.9944  0.0162
 4680TIP3    H135455   6.712   5.422   1.562  0.7397 -1.3441  0.3974
 4680TIP3    H235456   6.671   5.387   1.704 -0.3340 -2.3386 -0.1545
 4681TIP3   OH235457   0.668   4.577   1.177 -1.0760 -0.0950 -0.0400
 4681TIP3    H135458   0.685   4.484   1.164  1.0952  0.2278  0.1522
 4681TIP3    H235459   0.680   4.591   1.271 -0.0580  0.5880 -0.2515
 4682TIP3   OH235460   0.080   5.241   5.821 -0.0006 -0.1069 -0.3970
 4682TIP3    H135461   0.062   5.331   5.794 -1.0003 -0.2752 -0.3462
 4682TIP3    H235462   0.156   5.246   5.878  0.1691  0.6611 -0.6971
 4683TIP3   OH235463   0.495   5.460   3.906  0.4012 -0.4030  0.4351
 4683TIP3    H135464   0.473   5.531   3.966  1.3853 -1.6421  2.3369
 4683TIP3    H235465   0.544   5.502   3.835 -2.4866  1.3753 -0.5602
 4684TIP3   OH235466   4.551   0.002  17.004 -0.0807 -0.1777  0.2134
 4684TIP3    H135467   4.548   0.086  17.049  1.0766  0.4498 -0.8472
 4684TIP3    H235468   4.513   0.020  16.917 -0.9825 -1.0432  0.4156
 4685TIP3   OH235469   0.342   6.016   1.674  0.5885  0.2039 -0.3610
 4685TIP3    H135470   0.359   6.019   1.768 -1.9425  0.4473  0.1162
 4685TIP3    H235471   0.254   6.053   1.664  0.8299  0.1912 -2.8250
 4686TIP3   OH235472   4.287   1.829   6.176 -0.0850 -0.9124 -0.0013
 4686TIP3    H135473   4.303   1.894   6.245  0.1245 -0.7458 -0.2056
 4686TIP3    H235474   4.192   1.831   6.163 -0.2985 -2.0224  1.3318
 4687TIP3   OH235475   1.624   1.005  15.901 -0.5251 -0.6929 -0.1830
 4687TIP3    H135476   1.545   0.966  15.864 -2.5846  2.5148  0.6566
 4687TIP3    H235477   1.604   1.099  15.908  2.9891  0.0538  0.9923
 4688TIP3   OH235478   2.876   0.950   0.792  0.0238 -0.2404  0.2545
 4688TIP3    H135479   2.799   0.893   0.798 -0.5676  0.6952  1.7245
 4688TIP3    H235480   2.893   0.977   0.882  3.3798 -2.1070  0.2252
 4689TIP3   OH235481   0.550   3.090  15.687  0.0608  0.1994 -0.2470
 4689TIP3    H135482   0.460   3.069  15.713 -0.8288  1.0454 -2.4701
 4689TIP3    H235483   0.568   3.174  15.730 -0.6940  0.6667 -0.8274
 4690TIP3   OH235484   2.418   5.700   2.822 -0.8202 -0.5394 -0.2284
 4690TIP3    H135485   2.425   5.680   2.915 -1.4889  0.8074  0.1298
 4690TIP3    H235486   2.505   5.734   2.799 -0.7202 -0.6625 -0.0341
 4691TIP3   OH235487   1.748   4.925   4.743  0.1366  0.2190  0.1405
 4691TIP3    H135488   1.719   4.940   4.653  0.2125  0.5404  0.1692
 4691TIP3    H235489   1.726   4.834   4.761  0.6323 -0.0099 -0.3990
 4692TIP3   OH235490   0.055   5.802  14.363  0.3602 -0.1510  0.7697
 4692TIP3    H135491   0.129   5.831  14.309 -0.4075 -0.1240 -0.2622
 4692TIP3    H235492  -0.022   5.815  14.308 -0.4703  0.2098  1.9901
 4693TIP3   OH235493   2.849   2.634  13.824  0.2631  0.3775  0.9905
 4693TIP3    H135494   2.931   2.682  13.837  0.8061 -0.2554 -0.0439
 4693TIP3    H235495   2.868   2.545  13.853  0.6086 -0.3142 -1.2300
 4694TIP3   OH235496   4.773   5.896   1.739  0.0820  0.1962 -0.6801
 4694TIP3    H135497   4.868   5.904   1.737  0.2717 -1.3095  1.0338
 4694TIP3    H235498   4.757   5.803   1.754 -1.6525  0.6616  0.5148
 4695TIP3   OH235499   3.479   0.148   1.811 -0.0211  0.2084 -0.1578
 4695TIP3    H135500   3.460   0.240   1.825  4.8397  1.1736  0.7799
 4695TIP3    H235501   3.487   0.111   1.899 -0.2334 -0.7296 -0.5218
 4696TIP3   OH235502   0.226   2.752   1.430  0.7548  0.0929 -0.8515
 4696TIP3    H135503   0.246   2.844   1.412  1.2142  0.9040  3.3278
 4696TIP3    H235504   0.269   2.734   1.513 -0.9704 -3.3849 -0.6156
 4697TIP3   OH235505   0.488   0.034   6.185  0.7047  0.4304 -0.7940
 4697TIP3    H135506   0.406   0.011   6.227  0.4945  0.7482 -1.0273
 4697TIP3    H235507   0.547  -0.039   6.205  0.4364  0.3116 -0.4356
 4698TIP3   OH235508   1.603   4.234  15.421  0.1253  0.5566 -0.0886
 4698TIP3    H135509   1.577   4.143  15.434  0.2915  0.3429 -1.2423
 4698TIP3    H235510   1.521   4.280  15.401  0.0062  0.7091  0.7393
 4699TIP3   OH235511   1.199   3.502  16.675 -0.6072 -0.5226  0.0546
 4699TIP3    H135512   1.282   3.458  16.693 -1.0064 -1.0322  0.6819
 4699TIP3    H235513   1.141   3.473  16.745 -1.4000 -0.4032 -0.5437
 4700TIP3   OH235514   5.494   3.749  15.281 -0.1380  0.2885 -0.5228
 4700TIP3    H135515   5.515   3.664  15.242  1.5493  0.3062  0.2865
 4700TIP3    H235516   5.410   3.736  15.324 -0.2843 -0.7402 -1.1074
 4701TIP3   OH235517   2.428   6.551   4.325  0.2055  0.8566 -0.0486
 4701TIP3    H135518   2.457   6.541   4.415  1.1181  2.4832 -0.1374
 4701TIP3    H235519   2.489   6.498   4.273 -0.4613 -0.2617  0.3026
 4702TIP3   OH235520   5.568   6.083  12.437  0.5786  0.2102 -0.2361
 4702TIP3    H135521   5.598   6.020  12.371 -1.3791  0.9535 -1.8773
 4702TIP3    H235522   5.479   6.055  12.458 -0.7276  3.0259 -1.7777
 4703TIP3   OH235523   5.746   0.398   0.939 -0.7494  0.2878 -0.2435
 4703TIP3    H135524   5.760   0.312   0.901  0.5202  0.7197 -0.7504
 4703TIP3    H235525   5.723   0.380   1.030 -0.8775 -0.6028 -0.4483
 4704TIP3   OH235526   2.744   0.818  14.567 -0.1673  0.0974  0.4768
 4704TIP3    H135527   2.706   0.730  14.574  1.5918 -0.7944 -0.8078
 4704TIP3    H235528   2.677   0.870  14.523 -0.6637 -0.9605 -0.0304
 4705TIP3   OH235529   3.508   0.241   5.121  0.0740  0.7176  0.1866
 4705TIP3    H135530   3.510   0.336   5.135 -0.9008  0.8296 -0.3943
 4705TIP3    H235531   3.520   0.230   5.027 -0.6664  0.3078  0.1368
 4706TIP3   OH235532   1.662   4.018   2.062  0.0628  0.0640 -0.4340
 4706TIP3    H135533   1.613   4.098   2.083  0.0144 -0.3315  1.0655
 4706TIP3    H235534   1.701   3.992   2.146  3.9351  1.0619 -1.8395
 4707TIP3   OH235535   5.596   2.842   1.831  0.3171 -0.3179 -0.1659
 4707TIP3    H135536   5.598   2.769   1.892 -0.9678 -2.1183 -2.2139
 4707TIP3    H235537   5.680   2.886   1.843  0.0663 -0.5746  2.9130
 4708TIP3   OH235538   5.539   5.718  13.009  0.4675  0.0680  0.3775
 4708TIP3    H135539   5.551   5.813  13.010 -1.1266  0.3016 -0.6856
 4708TIP3    H235540   5.568   5.691  12.921  2.3590 -0.6414  1.2056
 4709TIP3   OH235541   5.832   1.350  10.766  0.4437  0.1859  0.4998
 4709TIP3    H135542   5.774   1.326  10.838 -1.0585  0.5629 -0.5694
 4709TIP3    H235543   5.824   1.446  10.759  0.1889  0.1023 -0.4807
 4710TIP3   OH235544   3.643   4.646   5.155  0.1364 -0.7011  0.0390
 4710TIP3    H135545   3.717   4.707   5.154 -0.1204 -0.3891 -0.1475
 4710TIP3    H235546   3.658   4.592   5.233 -0.1629  0.2618  0.7758
 4711TIP3   OH235547   0.040   0.676  14.567  0.6678  0.4159 -0.2385
 4711TIP3    H135548  -0.009   0.757  14.549  0.4627  0.6714  1.4395
 4711TIP3    H235549   0.012   0.650  14.654  4.1962  1.0683  1.1687
 4712TIP3   OH235550   6.541   0.728  11.981  0.0215 -0.4713 -0.5926
 4712TIP3    H135551   6.485   0.781  11.925  0.9755  0.7269 -0.4462
 4712TIP3    H235552   6.566   0.787  12.052  2.2473 -0.6638 -1.1758
 4713TIP3   OH235553   2.178   6.350   1.391  0.5487  0.3185 -0.4606
 4713TIP3    H135554   2.206   6.372   1.303 -1.7048  0.6393 -1.1267
 4713TIP3    H235555   2.208   6.422   1.446  2.6147 -0.2522 -0.8267
 4714TIP3   OH235556   4.557   0.052  12.841  1.0828 -0.0463  0.4648
 4714TIP3    H135557   4.649   0.044  12.864  0.9496  2.3059  1.9150
 4714TIP3    H235558   4.512   0.066  12.924 -0.5412 -0.6319 -0.2817
 4715TIP3   OH235559   1.454   5.374  15.205  0.5914  0.5561  0.2585
 4715TIP3    H135560   1.532   5.360  15.151  0.1030  1.3106 -0.6661
 4715TIP3    H235561   1.488   5.400  15.291  1.3565  2.0170 -0.4667
 4716TIP3   OH235562   6.052   0.068   5.844 -0.5660  0.5761  0.5521
 4716TIP3    H135563   6.125   0.075   5.784 -1.3022 -1.8012 -0.6939
 4716TIP3    H235564   6.061   0.143   5.902  0.9321  2.1752 -1.6655
 4717TIP3   OH235565   0.957   5.336   4.705  0.0453 -1.0831 -0.0241
 4717TIP3    H135566   1.020   5.266   4.686 -0.0077 -0.9306 -0.7390
 4717TIP3    H235567   0.943   5.380   4.622 -1.7784 -1.7560 -0.0874
 4718TIP3   OH235568   0.276   4.032   5.048 -0.8206  0.1568  0.6354
 4718TIP3    H135569   0.251   4.004   5.136  1.8884 -1.5651  0.9265
 4718TIP3    H235570   0.347   4.094   5.062  2.8705 -3.5974 -0.3299
 4719TIP3   OH235571   4.310   6.761   2.914  0.2898  0.3078 -0.2409
 4719TIP3    H135572   4.301   6.667   2.929  1.6413  0.2118 -0.0042
 4719TIP3    H235573   4.234   6.800   2.957  0.0654 -0.6181  0.2061
 4720TIP3   OH235574   4.268   6.499   1.725  0.2830 -0.4861  0.9267
 4720TIP3    H135575   4.308   6.434   1.782  2.9068  0.8814  0.7380
 4720TIP3    H235576   4.319   6.493   1.644 -0.9135  0.2417  0.1169
 4721TIP3   OH235577   2.368   4.126  14.355 -0.2824  0.0178 -0.0797
 4721TIP3    H135578   2.319   4.068  14.413  0.4204 -1.4019 -0.8597
 4721TIP3    H235579   2.315   4.206  14.349 -1.4175 -0.6639  0.7783
 4722TIP3   OH235580   0.795   1.214   1.811  0.0925  0.4956  0.4331
 4722TIP3    H135581   0.776   1.258   1.729  2.0303  1.5332  0.5147
 4722TIP3    H235582   0.856   1.144   1.787  0.5633  0.7181  0.9657
 4723TIP3   OH235583   5.451   4.628  11.839  0.4797  0.6218 -0.4430
 4723TIP3    H135584   5.384   4.686  11.876  2.0449  1.4818  1.1213
 4723TIP3    H235585   5.470   4.565  11.909 -1.2558 -1.8983 -2.1428
 4724TIP3   OH235586   4.836   4.884   2.140  0.1535  0.2433  0.1663
 4724TIP3    H135587   4.756   4.834   2.133 -0.0653  0.3676  1.6652
 4724TIP3    H235588   4.826   4.934   2.221  0.2764  2.8464 -1.3690
 4725TIP3   OH235589   2.772   4.064   1.293 -0.5461  0.3649 -0.5848
 4725TIP3    H135590   2.793   4.008   1.367 -0.1689  1.0773 -0.1441
 4725TIP3    H235591   2.740   4.004   1.225 -0.8800 -0.2898  0.1451
 4726TIP3   OH235592   2.777   1.523  11.860 -0.2120 -0.1367  0.4423
 4726TIP3    H135593   2.856   1.566  11.826 -1.1717  1.5136  0.2080
 4726TIP3    H235594   2.743   1.585  11.926 -1.4654 -0.6812  0.3166
 4727TIP3   OH235595   0.050   3.419  12.447  0.0228 -0.2753  0.2043
 4727TIP3    H135596   0.089   3.353  12.390 -0.0649  1.0248 -1.3959
 4727TIP3    H235597  -0.030   3.377  12.479  1.2978 -1.9250  1.3250
 4728TIP3   OH235598   4.390   4.272  13.049 -0.2470  0.1039 -0.0149
 4728TIP3    H135599   4.305   4.310  13.026  0.4258  1.5925 -0.0795
 4728TIP3    H235600   4.398   4.287  13.143  1.4543  3.0870 -0.5901
 4729TIP3   OH235601   3.743   3.925  12.534 -0.0893  0.4871 -0.1294
 4729TIP3    H135602   3.760   3.886  12.620 -1.5119 -0.5195 -0.2880
 4729TIP3    H235603   3.658   3.889  12.508 -0.8883  2.8276 -0.7990
 4730TIP3   OH235604   2.150   2.259   2.835  0.4756  0.2733 -0.3074
 4730TIP3    H135605   2.141   2.327   2.768  0.4298  2.8123  2.2168
 4730TIP3    H235606   2.063   2.220   2.842  0.3223  0.4369 -1.2475
 4731TIP3   OH235607   4.460   0.433  13.752  0.5347 -0.1705 -0.4086
 4731TIP3    H135608   4.453   0.356  13.808 -0.8979 -0.2657 -0.6945
 4731TIP3    H235609   4.545   0.425  13.709  1.0333 -0.8160  0.6975
 4732TIP3   OH235610   6.358   6.273   0.827  0.0322 -0.1002 -0.5621
 4732TIP3    H135611   6.375   6.241   0.915  0.3649 -0.8282 -0.8877
 4732TIP3    H235612   6.413   6.219   0.770 -0.2514  0.2962 -1.2248
 4733TIP3   OH235613   5.479   5.299  17.180 -0.1036  0.6893  0.1611
 4733TIP3    H135614   5.464   5.216  17.136  1.2596  0.3340  0.3521
 4733TIP3    H235615   5.522   5.354  17.115  1.0385  0.4834  0.7209
 4734TIP3   OH235616   5.593   2.363   1.229  0.5616 -0.2092 -0.2555
 4734TIP3    H135617   5.530   2.398   1.166  0.3124  0.3314  0.2786
 4734TIP3    H235618   5.573   2.411   1.310  1.1326 -0.6155  0.1227
 4735TIP3   OH235619   0.148   0.366  13.840  0.1754 -0.6132  0.0246
 4735TIP3    H135620   0.115   0.278  13.856  0.1956 -0.5413  0.4506
 4735TIP3    H235621   0.237   0.352  13.806 -0.0459 -0.7768 -0.5030
 4736TIP3   OH235622   0.115   4.759   1.606 -0.2107 -0.8124 -0.0902
 4736TIP3    H135623   0.046   4.813   1.569  1.2012  0.0093 -1.6064
 4736TIP3    H235624   0.096   4.671   1.575 -0.8082 -0.6610 -0.1603
 4737TIP3   OH235625   3.038   1.672   4.020  0.0065 -0.1494 -0.0995
 4737TIP3    H135626   3.125   1.711   4.007 -1.0786  2.1563 -0.7834
 4737TIP3    H235627   2.995   1.682   3.935 -0.7576 -1.8048  0.0678
 4738TIP3   OH235628   0.371   5.605  14.268 -0.5537 -0.6349 -0.3748
 4738TIP3    H135629   0.295   5.562  14.309 -2.2713 -0.2628 -3.0663
 4738TIP3    H235630   0.339   5.690  14.239  1.1309 -0.1349 -0.8585
 4739TIP3   OH235631   0.833   2.641  15.389 -0.0964  0.2956  0.2532
 4739TIP3    H135632   0.920   2.650  15.351 -0.2235  0.6723  0.0509
 4739TIP3    H235633   0.780   2.708  15.345 -0.1857  0.8925  1.2763
 4740TIP3   OH235634   2.070   4.975  13.264 -0.8721 -0.4334  0.6161
 4740TIP3    H135635   2.083   4.903  13.203 -2.7950 -0.8873  0.7372
 4740TIP3    H235636   2.080   5.054  13.210  0.8066 -0.7538  0.4075
 4741TIP3   OH235637   1.906   6.137  15.793  0.1284 -0.4353  0.1071
 4741TIP3    H135638   1.969   6.105  15.728  0.9395 -0.4341  0.8808
 4741TIP3    H235639   1.910   6.232  15.785 -1.9433 -0.4707 -1.8676
 4742TIP3   OH235640   5.212   3.259  14.866  0.3193 -0.3290 -0.2629
 4742TIP3    H135641   5.307   3.255  14.880  0.4695  1.8419 -0.4178
 4742TIP3    H235642   5.198   3.214  14.783  0.9366 -2.4891  0.7812
 4743TIP3   OH235643   3.562   0.958  10.897 -0.5254 -0.2850 -0.3888
 4743TIP3    H135644   3.470   0.971  10.872 -0.8775  0.3657  1.1494
 4743TIP3    H235645   3.561   0.966  10.993  1.0230 -1.0156 -0.3046
 4744TIP3   OH235646   5.865   2.171   4.037  0.2578  0.6551  0.5632
 4744TIP3    H135647   5.779   2.207   4.062 -0.2579 -0.3510  0.2832
 4744TIP3    H235648   5.888   2.219   3.957  0.1637  1.2455  0.8848
 4745TIP3   OH235649   5.291   2.532  12.226 -0.2274  0.2225 -0.1669
 4745TIP3    H135650   5.270   2.611  12.275 -1.0281 -1.1156  1.7079
 4745TIP3    H235651   5.319   2.563  12.140 -1.8363  2.4554  0.1023
 4746TIP3   OH235652   3.396   1.664  13.077  0.1053  0.3228  0.4469
 4746TIP3    H135653   3.443   1.700  13.153 -1.5018  2.4539  0.4749
 4746TIP3    H235654   3.408   1.730  13.009  0.5714 -1.0547 -0.8261
 4747TIP3   OH235655   4.948   4.629   5.713  1.2860  0.1436  0.1640
 4747TIP3    H135656   4.902   4.597   5.791  1.2409 -1.0075 -0.3249
 4747TIP3    H235657   5.010   4.694   5.747 -0.1727  1.1801  0.9126
 4748TIP3   OH235658   6.087   4.474  14.451 -0.2574  0.1325  0.0414
 4748TIP3    H135659   6.045   4.524  14.381  1.4136  1.7145  0.1213
 4748TIP3    H235660   6.021   4.471  14.520 -0.0967  3.1183  0.4248
 4749TIP3   OH235661   0.515   5.662  15.500 -0.2623  0.2676  0.0708
 4749TIP3    H135662   0.451   5.692  15.564  0.4107 -0.6960  1.2074
 4749TIP3    H235663   0.584   5.729  15.502  0.0923 -0.1154  0.8680
 4750TIP3   OH235664   0.361   0.734   4.109  0.2333 -0.4401  0.2556
 4750TIP3    H135665   0.338   0.775   4.026 -1.0049  0.1703  0.8857
 4750TIP3    H235666   0.456   0.734   4.110  0.2558 -0.0050 -0.9427
 4751TIP3   OH235667   1.428   6.420   2.442 -0.2550  0.0054 -0.0951
 4751TIP3    H135668   1.474   6.502   2.459 -0.3210  0.1871 -0.7687
 4751TIP3    H235669   1.360   6.443   2.379 -0.1690 -0.5981 -0.4174
 4752TIP3   OH235670   0.482   3.527   3.041  0.2180  0.5517  0.3356
 4752TIP3    H135671   0.522   3.537   2.955 -0.2380  0.4916  0.1190
 4752TIP3    H235672   0.412   3.592   3.043 -1.3685 -1.1126 -0.2629
 4753TIP3   OH235673   1.307   0.565   6.513  0.1339  0.1609 -0.2506
 4753TIP3    H135674   1.233   0.612   6.552 -0.3820 -0.5809 -0.3285
 4753TIP3    H235675   1.284   0.473   6.522  2.1280 -0.1656  1.8478
 4754TIP3   OH235676   5.817   2.957  12.791 -0.3402 -0.2440 -0.6177
 4754TIP3    H135677   5.733   2.921  12.819 -0.4848 -1.0101 -2.0039
 4754TIP3    H235678   5.862   2.883  12.750  1.4688 -0.1396  1.0854
 4755TIP3   OH235679   2.593   2.168   3.671  0.2494 -0.2150  0.0947
 4755TIP3    H135680   2.592   2.109   3.595 -0.2057  1.8990 -1.5738
 4755TIP3    H235681   2.502   2.177   3.696  0.2286  0.5863 -0.2778
 4756TIP3   OH235682   6.717   6.646  11.171 -0.0888  0.4531 -0.0617
 4756TIP3    H135683   6.718   6.561  11.214  1.0140  0.8349  0.6591
 4756TIP3    H235684   6.626   6.674  11.177 -0.5548 -0.8443 -0.6704
 4757TIP3   OH235685   1.784   0.190  11.122  0.4174  0.4957 -1.0777
 4757TIP3    H135686   1.733   0.118  11.161  0.8492  0.2265 -1.0012
 4757TIP3    H235687   1.724   0.232  11.061  0.1119  0.1583 -1.0123
 4758TIP3   OH235688   3.118   0.179   2.136  0.2816 -0.1674 -0.4230
 4758TIP3    H135689   3.067   0.133   2.203  0.9506 -1.6974 -0.9319
 4758TIP3    H235690   3.151   0.257   2.181  1.0700 -1.3759  1.1863
 4759TIP3   OH235691   5.449   1.026   5.255  0.5567  0.3128 -0.2355
 4759TIP3    H135692   5.398   1.076   5.191  2.3223  0.2673 -1.7389
 4759TIP3    H235693   5.481   0.950   5.205  0.1640 -0.8787  1.2969
 4760TIP3   OH235694   1.722   4.040  16.371 -0.4159 -0.4591  0.1240
 4760TIP3    H135695   1.654   4.070  16.432 -1.5488 -1.1200 -0.8005
 4760TIP3    H235696   1.777   3.982  16.423 -0.3132  0.3843  0.9816
 4761TIP3   OH235697   2.853   4.558  15.815 -0.0976 -0.2577  0.0798
 4761TIP3    H135698   2.800   4.578  15.738 -1.5273 -0.5330  0.9843
 4761TIP3    H235699   2.874   4.644  15.852  1.1613 -0.0925 -0.9806
 4762TIP3   OH235700   6.680   0.144  15.072 -0.5048  0.4218 -0.2967
 4762TIP3    H135701   6.656   0.231  15.105 -1.2740  1.0160 -2.3468
 4762TIP3    H235702   6.701   0.158  14.980  0.0417 -1.4680 -0.4893
 4763TIP3   OH235703   4.413   6.316  15.247 -0.1124 -0.1395  0.3835
 4763TIP3    H135704   4.351   6.388  15.232 -0.6476 -0.8235 -0.7798
 4763TIP3    H235705   4.397   6.290  15.338  0.2413  1.3454  0.8917
 4764TIP3   OH235706   4.180   6.245  10.199 -0.0032  0.2185 -0.2407
 4764TIP3    H135707   4.100   6.198  10.222  0.5005 -0.7766 -0.4633
 4764TIP3    H235708   4.161   6.337  10.218 -0.7369 -0.1714  0.9355
 4765TIP3   OH235709   4.911   3.305  12.452 -0.2669 -0.2756  0.1468
 4765TIP3    H135710   4.841   3.240  12.442 -0.1663 -0.3515 -0.0667
 4765TIP3    H235711   4.990   3.259  12.422 -0.2118 -0.0186 -0.0955
 4766TIP3   OH235712   2.702   0.783   4.666  0.2626 -0.2253 -0.3120
 4766TIP3    H135713   2.700   0.791   4.570 -1.0622  2.5076 -0.0971
 4766TIP3    H235714   2.619   0.740   4.687  0.0731  0.1322 -0.3227
 4767TIP3   OH235715   5.080   2.096   6.458  0.0202  0.4730  0.0816
 4767TIP3    H135716   5.023   2.141   6.521 -1.9464  1.0803 -2.0891
 4767TIP3    H235717   5.124   2.167   6.412 -0.1903  0.0854 -0.7185
 4768TIP3   OH235718   6.166   1.709   3.824 -0.0293 -0.7962 -0.1706
 4768TIP3    H135719   6.121   1.626   3.842  0.0355 -1.1861 -1.6792
 4768TIP3    H235720   6.180   1.748   3.909 -3.1210 -0.7290  0.3378
 4769TIP3   OH235721   3.722   5.658  15.123 -0.1489 -0.0939 -0.4130
 4769TIP3    H135722   3.647   5.683  15.070 -0.0453  0.5824 -0.2514
 4769TIP3    H235723   3.703   5.696  15.210  0.1663 -0.3021 -0.2548
 4770TIP3   OH235724   1.150   0.329  13.359 -0.1052  0.1443 -0.3842
 4770TIP3    H135725   1.173   0.401  13.301  0.4944  1.2790  1.2291
 4770TIP3    H235726   1.232   0.282  13.372 -0.6398 -1.2998 -2.0217
 4771TIP3   OH235727   3.134   1.338  15.624 -0.9333  0.1466  0.1687
 4771TIP3    H135728   3.131   1.254  15.578 -1.7857 -0.7373  1.8068
 4771TIP3    H235729   3.076   1.395  15.573 -0.0963 -0.1583 -1.1325
 4772TIP3   OH235730   1.898   4.712   3.450  0.3848  0.4406 -0.4591
 4772TIP3    H135731   1.826   4.655   3.478 -0.7974  1.1301 -2.0057
 4772TIP3    H235732   1.944   4.734   3.531  0.0382 -1.5965  0.3155
 4773TIP3   OH235733   4.043   6.560  15.900  0.0756  0.4171  0.1487
 4773TIP3    H135734   4.068   6.602  15.982 -0.0609 -0.3119  0.5582
 4773TIP3    H235735   4.068   6.469  15.910 -0.4494  0.2057 -0.4070
 4774TIP3   OH235736   5.546   5.159   0.437  0.2726  0.2498 -0.0527
 4774TIP3    H135737   5.633   5.196   0.449  0.4793 -0.0907 -0.4864
 4774TIP3    H235738   5.499   5.224   0.384  0.3448  0.3093 -0.0432
 4775TIP3   OH235739   1.262   2.879   1.727 -0.1502 -0.8280  0.4214
 4775TIP3    H135740   1.222   2.815   1.668  0.1105 -1.1325  0.5759
 4775TIP3    H235741   1.350   2.892   1.691  0.1657 -1.3477  1.0009
 4776TIP3   OH235742   0.265   2.756   3.939  0.3694  0.0461 -0.0525
 4776TIP3    H135743   0.215   2.723   4.014  0.4745  0.1707  0.0748
 4776TIP3    H235744   0.247   2.850   3.939  0.1754  0.0093 -0.3327
 4777TIP3   OH235745   1.022   0.886  11.012 -0.3069  0.8777  0.4088
 4777TIP3    H135746   1.019   0.859  10.921  2.1498  1.0507  0.2309
 4777TIP3    H235747   1.030   0.804  11.061 -0.6850  0.8358  0.3981
 4778TIP3   OH235748   3.609   6.085   3.795  0.4092 -0.2287 -0.0688
 4778TIP3    H135749   3.522   6.051   3.776  0.1971 -0.0990  0.6446
 4778TIP3    H235750   3.630   6.049   3.881  0.9953 -0.1336 -0.1703
 4779TIP3   OH235751   5.294   4.179   4.535 -0.1175 -0.2693 -0.3196
 4779TIP3    H135752   5.272   4.092   4.568 -1.3242  0.2284  0.2439
 4779TIP3    H235753   5.321   4.165   4.445  1.6470 -1.4673  0.3775
 4780TIP3   OH235754   4.780   3.267   0.877  0.8157 -0.1176  0.2621
 4780TIP3    H135755   4.825   3.220   0.807 -0.4959 -0.3703 -0.4277
 4780TIP3    H235756   4.821   3.237   0.957  0.9782 -1.3296 -0.2693
 4781TIP3   OH235757   2.970   4.823   4.417  0.4121  0.1607  0.3102
 4781TIP3    H135758   3.058   4.787   4.405 -0.8092 -3.0713  0.3823
 4781TIP3    H235759   2.920   4.751   4.457 -2.3608  1.7676 -0.0995
 4782TIP3   OH235760   3.520   5.088   0.352  0.2333  0.0505 -0.4807
 4782TIP3    H135761   3.538   5.011   0.406  1.0463  0.3072 -0.3754
 4782TIP3    H235762   3.426   5.086   0.337  0.0185 -0.1266  0.8051
 4783TIP3   OH235763   4.182   5.985   6.349 -0.8787 -0.2044 -0.2948
 4783TIP3    H135764   4.150   5.988   6.439  0.9859 -0.2263  0.3992
 4783TIP3    H235765   4.175   5.892   6.324 -1.2039 -0.2310 -0.1034
 4784TIP3   OH235766   5.228   5.068   0.025 -0.0237 -0.0172  0.2821
 4784TIP3    H135767   5.310   5.066   0.074 -0.6848 -1.1935  1.3609
 4784TIP3    H235768   5.160   5.054   0.091 -1.1249  1.2026 -0.5581
 4785TIP3   OH235769   4.510   4.770  13.066 -0.5046  0.0126  0.1108
 4785TIP3    H135770   4.483   4.709  13.134  0.5456 -1.8947 -1.1410
 4785TIP3    H235771   4.558   4.838  13.113 -1.3550 -0.3105  1.4760
 4786TIP3   OH235772   5.568   3.262  11.566  0.6652  0.0385  0.2172
 4786TIP3    H135773   5.609   3.258  11.480  1.8872 -1.4250  0.8469
 4786TIP3    H235774   5.604   3.341  11.607  2.2140 -0.7463  0.4171
 4787TIP3   OH235775   0.422   1.006  12.269 -0.4357  0.4280  0.4950
 4787TIP3    H135776   0.491   0.991  12.204  0.1002  0.8364  0.9687
 4787TIP3    H235777   0.400   1.099  12.259 -0.5882  0.4099  0.6624
 4788TIP3   OH235778   3.825   0.092  14.279  0.1889 -0.0824 -0.2467
 4788TIP3    H135779   3.856   0.017  14.228 -0.5427 -0.7460  0.2602
 4788TIP3    H235780   3.801   0.158  14.214 -2.1228 -1.4519 -0.8410
 4789TIP3   OH235781   5.064   2.077   5.972 -0.1170 -0.0652  1.0800
 4789TIP3    H135782   5.110   2.025   6.039 -1.7622 -0.7923  1.6731
 4789TIP3    H235783   4.975   2.042   5.973 -0.5371  0.9628 -0.4368
 4790TIP3   OH235784   6.117   1.601  14.984 -0.0611  0.1765  0.1369
 4790TIP3    H135785   6.116   1.659  14.909  0.6918  0.0664  0.0365
 4790TIP3    H235786   6.026   1.596  15.012 -0.0646  1.8020  0.4623
 4791TIP3   OH235787   1.185   5.152  16.898  0.4401 -0.3066  0.1357
 4791TIP3    H135788   1.258   5.178  16.843  0.7845 -0.5392  0.4772
 4791TIP3    H235789   1.123   5.110  16.839  0.0281  1.0045 -0.3639
 4792TIP3   OH235790   5.463   0.805  11.767  0.8848  0.1453  0.6320
 4792TIP3    H135791   5.512   0.825  11.846 -0.8219 -0.0640  1.7868
 4792TIP3    H235792   5.408   0.730  11.791  1.1085 -0.5892 -1.0759
 4793TIP3   OH235793   0.454   0.753  14.844  0.0692 -0.2951 -0.5096
 4793TIP3    H135794   0.439   0.701  14.923 -0.4447 -1.6106 -1.4561
 4793TIP3    H235795   0.529   0.808  14.866  0.0215 -0.7360  0.8519
 4794TIP3   OH235796   2.564   5.840  11.902  0.2004 -0.2025  0.2304
 4794TIP3    H135797   2.556   5.767  11.841  1.2220  0.5728 -0.8699
 4794TIP3    H235798   2.645   5.884  11.876 -0.4430  1.3653  0.8077
 4795TIP3   OH235799   2.955   2.683  12.509  0.4019  0.2745  0.0755
 4795TIP3    H135800   3.048   2.703  12.513  0.6739 -0.5462 -1.5969
 4795TIP3    H235801   2.919   2.746  12.447 -0.0288  0.1021  0.1454
 4796TIP3   OH235802   6.646   2.909  12.732  0.2434 -0.4225  0.0010
 4796TIP3    H135803   6.563   2.862  12.739  0.1970 -0.2098  0.9950
 4796TIP3    H235804   6.694   2.885  12.812  1.0996 -0.4683 -0.5161
 4797TIP3   OH235805   0.428   3.120  12.196  0.1306 -0.2141 -0.0968
 4797TIP3    H135806   0.464   3.088  12.278 -0.5832 -0.7481  0.0035
 4797TIP3    H235807   0.479   3.076  12.128  0.7246  0.2343  0.0568
 4798TIP3   OH235808   4.517   0.963  16.345 -0.2360 -0.0357 -0.4148
 4798TIP3    H135809   4.497   0.980  16.438  0.5866 -1.5693  0.0669
 4798TIP3    H235810   4.520   0.868  16.339  0.3785  0.0695 -1.8906
 4799TIP3   OH235811   1.197   1.482  12.118  0.4690  0.1810 -0.4220
 4799TIP3    H135812   1.165   1.462  12.206  1.0389 -0.6918 -0.4145
 4799TIP3    H235813   1.130   1.539  12.081 -1.3915 -2.0627 -0.6080
 4800TIP3   OH235814   0.065   1.953  16.893 -0.2964  0.0456  0.5236
 4800TIP3    H135815   0.156   1.945  16.867 -0.6979 -0.6745 -0.7131
 4800TIP3    H235816   0.065   2.017  16.964  0.7709  2.4686 -1.6200
 4801TIP3   OH235817   3.951   4.336   3.307  0.4245  0.1076 -0.1099
 4801TIP3    H135818   4.004   4.412   3.334  0.0565 -0.4676  2.3017
 4801TIP3    H235819   3.861   4.365   3.319  0.2045  0.3454 -2.1912
 4802TIP3   OH235820   0.633   1.483   0.446 -0.4295 -0.1797 -0.5048
 4802TIP3    H135821   0.588   1.404   0.476 -0.1521 -0.4681 -0.8677
 4802TIP3    H235822   0.566   1.531   0.396 -1.5629  1.3173  2.2835
 4803TIP3   OH235823   4.614   3.262   4.316  0.4225  0.5445 -0.0149
 4803TIP3    H135824   4.594   3.354   4.335  1.3392  0.4773  1.3178
 4803TIP3    H235825   4.560   3.213   4.378  1.3643  0.2400  0.5664
 4804TIP3   OH235826   3.710   3.406   3.511 -0.0522 -0.0980  0.1883
 4804TIP3    H135827   3.760   3.487   3.500  0.2746 -0.5165 -1.4981
 4804TIP3    H235828   3.640   3.413   3.446 -1.7885  0.1594  2.0381
 4805TIP3   OH235829   5.517   2.944   0.917  0.0647 -0.3104  0.0824
 4805TIP3    H135830   5.438   2.925   0.967 -1.1860  0.7953 -1.3955
 4805TIP3    H235831   5.550   3.026   0.955  0.0845 -0.3907  0.2360
 4806TIP3   OH235832   6.426   5.103   3.481  0.3344  0.0668 -0.0552
 4806TIP3    H135833   6.380   5.153   3.413 -0.8672 -1.9292 -0.7443
 4806TIP3    H235834   6.457   5.025   3.437  0.9274 -0.4969  1.3365
 4807TIP3   OH235835   3.463   1.356   2.725 -0.1804 -0.5939  0.0531
 4807TIP3    H135836   3.417   1.439   2.719  1.6640  0.3555 -1.7037
 4807TIP3    H235837   3.516   1.363   2.805 -0.5023 -0.3393  0.2452
 4808TIP3   OH235838   3.454   2.972  12.496 -0.2665  1.0367 -0.3456
 4808TIP3    H135839   3.390   3.029  12.452 -1.2622  0.2173  0.0126
 4808TIP3    H235840   3.410   2.945  12.576  1.5318  2.5292  1.1932
 4809TIP3   OH235841   2.416   6.346  12.850 -0.3612 -0.2036  0.0635
 4809TIP3    H135842   2.443   6.256  12.862 -0.1751  0.0284  1.4867
 4809TIP3    H235843   2.329   6.341  12.809 -1.1414 -1.0680  1.7720
 4810TIP3   OH235844   4.423   6.102   5.331 -0.2529  0.2485 -0.4574
 4810TIP3    H135845   4.380   6.106   5.417 -1.6829 -0.6838 -1.1219
 4810TIP3    H235846   4.512   6.072   5.351  0.5517  3.3834  1.0698
 4811TIP3   OH235847   4.859   1.962  11.598  0.3393 -0.5327  0.2635
 4811TIP3    H135848   4.765   1.973  11.611  0.4839  0.3067  0.6515
 4811TIP3    H235849   4.898   1.995  11.679  1.0304  0.2224 -0.3747
 4812TIP3   OH235850   6.445   1.123   0.436  0.4864 -0.0450  0.2232
 4812TIP3    H135851   6.355   1.134   0.406  0.4168  1.2912  0.9084
 4812TIP3    H235852   6.498   1.162   0.366  0.4227  1.2425  0.8957
 4813TIP3   OH235853   4.846   2.319  12.247 -0.1881  0.2003 -0.1512
 4813TIP3    H135854   4.941   2.319  12.240 -0.1326 -0.8195  0.4468
 4813TIP3    H235855   4.826   2.384  12.315 -0.0388  1.6569 -1.4663
 4814TIP3   OH235856   0.562   4.505  14.252  0.5501 -0.7669 -0.1700
 4814TIP3    H135857   0.646   4.505  14.297  1.1473 -1.2343 -1.2940
 4814TIP3    H235858   0.581   4.538  14.164 -0.7070  0.6584  0.0655
 4815TIP3   OH235859   4.013   6.582  11.882  0.2291  0.0757  0.4605
 4815TIP3    H135860   4.028   6.564  11.790 -1.0804 -1.1295  0.4810
 4815TIP3    H235861   3.924   6.551  11.900  0.4391  0.3408  2.1108
 4816TIP3   OH235862   2.473   2.493  11.237 -0.2611 -0.4916  0.2404
 4816TIP3    H135863   2.474   2.411  11.188  1.6992 -0.9904  1.0462
 4816TIP3    H235864   2.435   2.557  11.177 -1.2754 -1.8528 -0.6036
 4817TIP3   OH235865   4.857   4.855   5.317 -0.7596 -0.9645 -0.0576
 4817TIP3    H135866   4.837   4.793   5.247 -2.7078 -0.3834 -0.0573
 4817TIP3    H235867   4.906   4.804   5.382 -1.3523 -2.2224 -0.5834
 4818TIP3   OH235868   1.992   2.929  11.232 -0.5581 -0.1207 -0.5368
 4818TIP3    H135869   2.051   2.961  11.300 -0.9122 -0.7875  0.0928
 4818TIP3    H235870   2.022   2.972  11.152  1.6199 -1.4492 -0.4720
 4819TIP3   OH235871   0.515   0.659   0.705  0.4616  0.0205 -1.0145
 4819TIP3    H135872   0.427   0.633   0.678  0.2699  0.6723 -1.0422
 4819TIP3    H235873   0.563   0.667   0.623  0.8185 -1.2730 -0.9375
 4820TIP3   OH235874   3.372   0.121   3.004 -0.3813  0.0075 -0.4609
 4820TIP3    H135875   3.300   0.078   3.051 -0.4400  0.2577 -0.3205
 4820TIP3    H235876   3.445   0.058   3.009 -0.2268  0.2458  0.4198
 4821TIP3   OH235877   6.159   5.520   4.556 -0.2099  0.2046 -0.4872
 4821TIP3    H135878   6.153   5.483   4.468 -1.2522  0.1123 -0.3854
 4821TIP3    H235879   6.195   5.449   4.610  1.2602  0.5469 -1.0019
 4822TIP3   OH235880   3.379   3.585   1.757  0.7187  0.7134  0.4073
 4822TIP3    H135881   3.386   3.563   1.849  0.3709 -1.7338 -0.1241
 4822TIP3    H235882   3.356   3.503   1.714  0.4821  1.9009 -1.8094
 4823TIP3   OH235883   4.679   3.754  13.165 -0.4947 -0.0360  0.1803
 4823TIP3    H135884   4.719   3.773  13.080 -2.0330  0.7271 -0.3823
 4823TIP3    H235885   4.685   3.836  13.214 -0.7054 -0.1248  0.3596
 4824TIP3   OH235886   5.752   2.736  14.603 -0.0332  0.2882 -0.0999
 4824TIP3    H135887   5.814   2.706  14.669  0.6684 -0.0895 -0.9346
 4824TIP3    H235888   5.697   2.800  14.649  1.0221  0.6907  0.6084
 4825TIP3   OH235889   2.607   0.756  11.763  0.0095  0.5764 -0.2175
 4825TIP3    H135890   2.700   0.764  11.782 -0.0290 -1.1370  0.7684
 4825TIP3    H235891   2.603   0.738  11.669  0.7757 -0.9089  0.0155
 4826TIP3   OH235892   4.006   1.540   4.392  0.0737  0.4461 -0.4102
 4826TIP3    H135893   4.096   1.549   4.424 -0.3938  0.7378  0.8599
 4826TIP3    H235894   3.966   1.625   4.407 -0.5976  0.1333 -0.3939
 4827TIP3   OH235895   5.478   4.627   1.315 -0.0822  0.0777 -0.0398
 4827TIP3    H135896   5.412   4.581   1.264 -0.4699  0.2197  0.3319
 4827TIP3    H235897   5.562   4.596   1.280 -0.3415  0.7551 -1.2934
 4828TIP3   OH235898   6.344   1.324   1.811 -0.4118  0.2923 -0.5224
 4828TIP3    H135899   6.393   1.241   1.812  0.6124  0.8856 -0.7295
 4828TIP3    H235900   6.297   1.324   1.728  1.1131  0.7882 -1.4050
 4829TIP3   OH235901   2.979   1.691  16.587  0.0986  0.0613 -0.7662
 4829TIP3    H135902   2.923   1.754  16.633 -1.7811 -1.0498 -1.4428
 4829TIP3    H235903   3.022   1.641  16.657  0.8730  1.4520 -0.2348
 4830TIP3   OH235904   4.195   2.493   1.195  0.1938  0.4709 -0.0566
 4830TIP3    H135905   4.262   2.511   1.129  0.0156  0.8104 -0.1424
 4830TIP3    H235906   4.195   2.570   1.252  1.2457 -0.3661  1.0970
 4831TIP3   OH235907   5.800   2.224   3.497 -0.4695  0.1006  0.0257
 4831TIP3    H135908   5.894   2.213   3.491 -0.3989  0.6080  0.1890
 4831TIP3    H235909   5.768   2.140   3.530 -0.2061 -0.5000 -1.2405
 4832TIP3   OH235910   0.995   1.226   0.804 -0.5569 -0.2425  0.4962
 4832TIP3    H135911   1.040   1.311   0.809 -0.1294 -0.4749  0.6680
 4832TIP3    H235912   0.975   1.204   0.895 -0.2293 -0.5535  0.4960
 4833TIP3   OH235913   5.816   2.556   6.536  0.2128  0.6162  0.2952
 4833TIP3    H135914   5.721   2.557   6.528  0.2372  0.4904 -0.0211
 4833TIP3    H235915   5.843   2.474   6.496  0.5241  1.1008 -0.5257
 4834TIP3   OH235916   4.059   5.198   0.670 -0.0032 -0.2778 -0.0336
 4834TIP3    H135917   3.988   5.215   0.609  0.3249  0.5977 -0.1814
 4834TIP3    H235918   4.022   5.216   0.756 -0.5113 -1.6641  0.0441
 4835TIP3   OH235919   2.764   4.312   2.499 -0.2155  0.4429  0.1910
 4835TIP3    H135920   2.780   4.379   2.565  1.9188  1.9296 -1.7795
 4835TIP3    H235921   2.841   4.256   2.503 -0.9021 -0.5173  0.1736
 4836TIP3   OH235922   5.719   6.756   3.874  0.4046 -0.4823  0.5341
 4836TIP3    H135923   5.733   6.778   3.782  0.2294  1.8803  1.0461
 4836TIP3    H235924   5.626   6.734   3.880 -0.0949  1.5368  0.5388
 4837TIP3   OH235925   4.685   2.330   4.994 -0.0639  0.3029  0.9482
 4837TIP3    H135926   4.618   2.296   5.053 -0.6745 -0.3017 -0.0879
 4837TIP3    H235927   4.767   2.317   5.041 -0.5606  0.0034  1.7407
 4838TIP3   OH235928   0.303   2.230  16.381  0.6440  0.7638 -0.0200
 4838TIP3    H135929   0.344   2.307  16.420  2.5541  0.2183 -0.8763
 4838TIP3    H235930   0.377   2.173  16.357 -0.4317  1.0162 -4.3599
 4839TIP3   OH235931   6.000   3.829  10.745  0.0424  0.0960  0.2646
 4839TIP3    H135932   6.064   3.896  10.723 -0.2333  0.3578  0.2542
 4839TIP3    H235933   5.916   3.875  10.744 -0.1223 -0.1985  0.4795
 4840TIP3   OH235934   5.666   5.111  13.364 -0.3915  0.5581  0.7110
 4840TIP3    H135935   5.573   5.133  13.368 -0.5540 -0.2168  1.5506
 4840TIP3    H235936   5.708   5.174  13.423 -0.1879  1.8304 -0.7760
 4841TIP3   OH235937   1.176   3.013   0.347 -0.5514 -0.3437  0.5188
 4841TIP3    H135938   1.147   2.984   0.434  1.3284 -1.8370  0.6806
 4841TIP3    H235939   1.187   3.108   0.356 -0.9372 -0.4021  1.7450
 4842TIP3   OH235940   1.912   6.722   2.249 -0.3307  0.1110 -0.5399
 4842TIP3    H135941   1.857   6.791   2.287  0.0329 -0.7184  1.6159
 4842TIP3    H235942   1.975   6.702   2.318  1.1870 -0.6096 -2.1018
 4843TIP3   OH235943   4.510   0.582  11.648 -0.7465  0.2616  0.1573
 4843TIP3    H135944   4.454   0.659  11.650  0.7409  1.3547  0.7103
 4843TIP3    H235945   4.475   0.528  11.577 -0.2876  2.6214 -1.9325
 4844TIP3   OH235946   4.628   1.746   2.785  0.9162 -0.6264  0.1895
 4844TIP3    H135947   4.705   1.707   2.744  0.1665 -2.3186  0.3504
 4844TIP3    H235948   4.568   1.673   2.798 -0.5213  0.5886  0.5243
 4845TIP3   OH235949   6.750   3.718   0.887  0.1832  0.7818 -0.1411
 4845TIP3    H135950   6.832   3.767   0.893  0.9088 -0.3792 -0.4467
 4845TIP3    H235951   6.709   3.749   0.806 -1.1081  3.4855  1.4668
 4846TIP3   OH235952   0.831   1.890   5.001  0.4475  0.2833  0.2285
 4846TIP3    H135953   0.848   1.985   5.006 -0.0883  0.2879  2.3123
 4846TIP3    H235954   0.747   1.879   5.044  0.5511 -1.1744  0.0606
 4847TIP3   OH235955   0.729   3.889   3.696  0.2455  1.0498 -0.4669
 4847TIP3    H135956   0.709   3.973   3.738  0.9973 -0.1403  2.3994
 4847TIP3    H235957   0.824   3.879   3.708 -0.1457 -1.1297  1.0133
 4848TIP3   OH235958   6.318   6.316  11.231 -0.1017 -0.0394 -0.0407
 4848TIP3    H135959   6.298   6.409  11.245  1.4136  0.3550 -0.3649
 4848TIP3    H235960   6.292   6.299  11.141 -1.7906 -0.3463  0.4735
 4849TIP3   OH235961   1.400   1.193  12.830  0.3645 -0.3564 -0.0233
 4849TIP3    H135962   1.474   1.169  12.886  2.3150 -0.0493 -2.3737
 4849TIP3    H235963   1.427   1.274  12.788 -1.0478 -0.5610 -1.3865
 4850TIP3   OH235964   2.370   4.214   2.147  0.0548  0.3406 -0.2513
 4850TIP3    H135965   2.436   4.237   2.213  0.2415  1.0545 -0.6799
 4850TIP3    H235966   2.293   4.266   2.172 -1.1730 -2.2664  1.6543
 4851TIP3   OH235967   3.355   1.876  12.278 -0.0213  0.0420 -0.7991
 4851TIP3    H135968   3.428   1.828  12.240  0.2786  0.4482 -0.7443
 4851TIP3    H235969   3.328   1.825  12.354  2.3168  1.5452  1.1040
 4852TIP3   OH235970   0.880   5.896   1.006 -0.8912 -0.9038 -0.4655
 4852TIP3    H135971   0.903   5.916   1.096 -0.5127  0.2050 -0.7960
 4852TIP3    H235972   0.964   5.900   0.958 -1.2556 -0.2973 -1.0653
 4853TIP3   OH235973   4.689   6.256   0.890 -0.5621  0.0898  0.9331
 4853TIP3    H135974   4.780   6.264   0.915 -0.7452  1.3772  1.2024
 4853TIP3    H235975   4.667   6.339   0.848 -0.7967 -1.2908 -1.8129
 4854TIP3   OH235976   3.890   6.038   4.948  0.2411  0.5011 -0.0640
 4854TIP3    H135977   3.839   6.099   4.894  0.4610  2.2618  1.6550
 4854TIP3    H235978   3.886   6.075   5.036  0.6834 -1.8140  0.9628
 4855TIP3   OH235979   6.119   1.475   6.065 -0.1429 -0.2109 -0.4358
 4855TIP3    H135980   6.030   1.442   6.063  0.7000 -2.5198 -1.4254
 4855TIP3    H235981   6.120   1.539   6.136 -1.7972 -2.4596  1.6532
 4856TIP3   OH235982   4.322   5.374   5.158 -0.5060 -0.4807  0.2193
 4856TIP3    H135983   4.338   5.310   5.089 -1.3572 -1.0416  0.5317
 4856TIP3    H235984   4.229   5.362   5.181 -0.3265 -0.0479  1.1994
 4857TIP3   OH235985   4.099   2.598   4.704  0.2839 -0.5322  0.1603
 4857TIP3    H135986   4.033   2.566   4.767  0.0530 -0.0100  0.1913
 4857TIP3    H235987   4.047   2.630   4.630  0.4905  0.0669  0.2708
 4858TIP3   OH235988   3.447   6.775  10.829  0.4817 -0.3205  0.1089
 4858TIP3    H135989   3.369   6.787  10.775  0.3530  0.3231  0.4340
 4858TIP3    H235990   3.519   6.803  10.773  0.3666  0.1785  0.2117
 4859TIP3   OH235991   6.084   4.397  13.378  0.6997 -0.2880  0.0849
 4859TIP3    H135992   6.062   4.306  13.360 -0.8404  0.4503 -2.0001
 4859TIP3    H235993   6.005   4.432  13.420  0.3783  0.6398 -1.2386
 4860TIP3   OH235994   0.006   6.677   4.799  0.4684 -0.2872 -0.1168
 4860TIP3    H135995  -0.050   6.697   4.875  0.0253  0.8559 -0.7348
 4860TIP3    H235996   0.089   6.649   4.838  0.9723  2.3488  0.8353
 4861TIP3   OH235997   1.454   3.042  15.863 -0.0723  0.6807  0.1284
 4861TIP3    H135998   1.365   3.018  15.888  0.1249  1.3583  1.5363
 4861TIP3    H235999   1.501   2.959  15.858 -0.8893  0.2822 -1.0804
 4862TIP3   OH236000   4.853   4.038  13.516 -0.2923 -0.2632 -0.0637
 4862TIP3    H136001   4.842   4.039  13.421  1.4060 -0.9949 -0.2885
 4862TIP3    H236002   4.913   4.111  13.534 -1.4847  0.5701  0.5717
 4863TIP3   OH236003   5.313   2.690   3.507 -0.5817 -0.0939 -0.1653
 4863TIP3    H136004   5.358   2.662   3.428 -1.0637 -0.2758 -0.3817
 4863TIP3    H236005   5.290   2.608   3.552 -1.9726 -0.0589 -0.7864
 4864TIP3   OH236006   0.678   4.465   4.678 -0.1832 -0.1974  0.3950
 4864TIP3    H136007   0.768   4.475   4.648 -0.3137  1.7720  0.6240
 4864TIP3    H236008   0.685   4.404   4.752  1.1521  0.9837  1.2742
 4865TIP3   OH236009   1.231   1.408   0.917 -0.1441 -0.0438  0.2305
 4865TIP3    H136010   1.250   1.321   0.882  1.3914  0.2456  0.2965
 4865TIP3    H236011   1.300   1.464   0.880 -0.7297  1.0102  0.7067
 4866TIP3   OH236012   0.103   2.191  15.240 -0.5839  0.6350  0.2139
 4866TIP3    H136013   0.122   2.186  15.146 -0.5508 -0.3803  0.2717
 4866TIP3    H236014   0.027   2.134  15.252 -1.4176  1.7992  0.5931
 4867TIP3   OH236015   0.343   1.556   2.865  0.3251  0.0061 -0.2863
 4867TIP3    H136016   0.314   1.521   2.949  1.5225 -0.1353  0.0710
 4867TIP3    H236017   0.282   1.519   2.802 -0.3678 -0.1697  0.4766
 4868TIP3   OH236018   6.659   5.148  12.403  0.4577 -0.0645 -0.2698
 4868TIP3    H136019   6.743   5.109  12.380 -0.3000 -0.3029 -2.7374
 4868TIP3    H236020   6.648   5.220  12.341 -1.2647 -0.1887 -0.1276
 4869TIP3   OH236021   5.761   0.282  12.799  0.3082  0.2648 -0.2366
 4869TIP3    H136022   5.738   0.231  12.721  1.7254  0.5539 -0.8626
 4869TIP3    H236023   5.825   0.228  12.844  1.6747  1.3978 -0.8019
 4870TIP3   OH236024   3.035   2.526  11.830 -0.2501 -0.2869 -0.5282
 4870TIP3    H136025   3.001   2.517  11.919 -0.9138  2.2853 -0.4866
 4870TIP3    H236026   2.957   2.534  11.775  0.2094  1.5464 -0.9255
 4871TIP3   OH236027   5.798   3.052   1.836  0.9491  0.2123 -0.0030
 4871TIP3    H136028   5.857   3.110   1.788  1.0898  1.5360  1.7394
 4871TIP3    H236029   5.849   3.022   1.911  0.1287 -0.3940  0.3235
 4872TIP3   OH236030   1.073   6.078   6.545 -0.3078 -0.5916 -0.2867
 4872TIP3    H136031   1.144   6.126   6.589 -0.4060 -0.6978 -0.0121
 4872TIP3    H236032   1.088   5.987   6.569 -1.7125 -0.3887  1.4218
 4873TIP3   OH236033   6.713   4.759  14.753 -0.2791  0.0019 -0.2554
 4873TIP3    H136034   6.794   4.742  14.704  0.8851 -0.3608  1.7399
 4873TIP3    H236035   6.737   4.828  14.815 -1.4828 -0.1592  0.3966
 4874TIP3   OH236036   0.421   2.628  14.336  0.6947  0.2845  0.0386
 4874TIP3    H136037   0.333   2.597  14.317 -1.1726  3.3835  3.1946
 4874TIP3    H236038   0.475   2.548  14.334 -2.3965 -1.8798 -0.3649
 4875TIP3   OH236039   6.196   0.708  12.082 -0.1901  0.2851  0.3117
 4875TIP3    H136040   6.110   0.712  12.124 -0.1381 -3.4868  0.9623
 4875TIP3    H236041   6.177   0.713  11.988 -0.9846  0.7206  0.4885
 4876TIP3   OH236042   1.786   2.560  15.579  0.1104 -0.1146 -0.2013
 4876TIP3    H136043   1.767   2.620  15.507 -0.0123 -0.4037 -0.4112
 4876TIP3    H236044   1.782   2.473  15.539 -0.0581 -0.2796  0.1752
 4877TIP3   OH236045   4.809   2.753   3.566  0.1618 -0.4330  0.0268
 4877TIP3    H136046   4.784   2.741   3.657 -0.6497 -2.8146 -0.4742
 4877TIP3    H236047   4.779   2.841   3.544  1.8709  0.8167  2.5121
 4878TIP3   OH236048   2.534   3.896   4.541 -0.0907  0.3662  0.1974
 4878TIP3    H136049   2.625   3.913   4.519  0.4806  0.8810  2.7558
 4878TIP3    H236050   2.505   3.829   4.479  1.9155  0.4338 -0.8288
 4879TIP3   OH236051   0.522   3.765   1.950  0.1872 -0.1235 -0.2435
 4879TIP3    H136052   0.486   3.759   1.862 -0.2754 -1.4505  0.0227
 4879TIP3    H236053   0.600   3.710   1.948  1.2023  1.2933 -0.3147
 4880TIP3   OH236054   0.184   3.724  14.235 -0.6731  0.2537 -0.2692
 4880TIP3    H136055   0.247   3.703  14.167 -0.3110 -0.5331  0.2978
 4880TIP3    H236056   0.179   3.644  14.288 -0.1164  1.2100  1.2677
 4881TIP3   OH236057   1.382   6.249  15.097 -0.0751 -0.0150 -0.0936
 4881TIP3    H136058   1.466   6.202  15.099  0.5801  1.0305 -1.6530
 4881TIP3    H236059   1.366   6.265  15.004 -1.0237  1.5193  0.3194
 4882TIP3   OH236060   1.994   6.089   3.740 -0.0240 -0.3119  0.2447
 4882TIP3    H136061   2.013   6.164   3.685  0.5734  0.0765  0.9732
 4882TIP3    H236062   2.079   6.056   3.767 -0.3197  0.9014  2.7899
 4883TIP3   OH236063   2.902   1.828   6.245 -0.1913  0.4518  0.1295
 4883TIP3    H136064   2.833   1.829   6.178  1.1025 -0.1867 -1.2477
 4883TIP3    H236065   2.865   1.777   6.317 -0.7509 -0.8370 -1.0449
 4884TIP3   OH236066   5.206   1.854  14.538 -0.6533  0.7475 -0.6449
 4884TIP3    H136067   5.273   1.786  14.547  0.1096  1.8780  2.9922
 4884TIP3    H236068   5.210   1.880  14.446 -0.2119 -3.3060 -1.8727
 4885TIP3   OH236069   5.134   3.361   2.678 -0.4864 -0.1624 -0.0685
 4885TIP3    H136070   5.076   3.363   2.754 -2.0105  0.5682 -1.2105
 4885TIP3    H236071   5.141   3.453   2.651  1.0513 -0.2663 -0.0754
 4886TIP3   OH236072   0.932   0.653   3.866  0.1407 -0.8101 -0.1343
 4886TIP3    H136073   0.958   0.719   3.802  0.3573  0.0432  0.8070
 4886TIP3    H236074   0.917   0.573   3.815  3.6398 -1.0840 -0.8848
 4887TIP3   OH236075   2.857   3.001   3.984  0.2750 -0.3729  0.7200
 4887TIP3    H136076   2.824   2.960   4.064  1.2275 -1.1455  0.7422
 4887TIP3    H236077   2.948   3.024   4.005  0.3366 -0.0148  0.0722
 4888TIP3   OH236078   6.586   6.666   3.715 -0.4298 -0.5363 -0.1010
 4888TIP3    H136079   6.582   6.761   3.701 -0.5693 -0.5738 -0.3234
 4888TIP3    H236080   6.658   6.653   3.777 -0.8649 -0.2261  0.4674
 4889TIP3   OH236081   5.263   3.697  14.799 -0.5005  0.3860 -0.7603
 4889TIP3    H136082   5.259   3.625  14.736 -2.0695 -0.5952  0.3998
 4889TIP3    H236083   5.171   3.722  14.812 -0.0186  2.1258 -0.6050
 4890TIP3   OH236084   4.791   0.262  12.148 -0.1829 -0.5535 -0.2646
 4890TIP3    H136085   4.838   0.275  12.066  0.6286 -3.6050 -0.3751
 4890TIP3    H236086   4.854   0.285  12.216 -0.1799  0.0349 -0.4651
 4891TIP3   OH236087   0.999   2.570  14.895  0.0159  0.0151  0.0627
 4891TIP3    H136088   1.064   2.628  14.854  1.4366 -0.7720  1.1778
 4891TIP3    H236089   1.012   2.582  14.989  0.1745 -1.9645  0.3038
 4892TIP3   OH236090   5.484   1.780  16.533  0.2609  0.0844 -0.2327
 4892TIP3    H136091   5.401   1.802  16.574  0.8462  0.1104  0.9519
 4892TIP3    H236092   5.494   1.843  16.462 -1.6922 -1.1960 -1.6940
 4893TIP3   OH236093   0.751   3.122  13.758 -0.1520 -0.2190  0.1838
 4893TIP3    H136094   0.662   3.153  13.773  0.7348  1.1121  3.2899
 4893TIP3    H236095   0.753   3.035  13.797 -0.7977 -1.4006 -2.3580
 4894TIP3   OH236096   5.268   5.909  10.811 -0.1280  0.2409  0.4824
 4894TIP3    H136097   5.309   5.995  10.823  0.1016  0.0078  1.4244
 4894TIP3    H236098   5.341   5.848  10.805 -0.3071 -0.1068  1.6118
 4895TIP3   OH236099   5.760   5.491   4.603 -0.0014 -0.0973 -0.3816
 4895TIP3    H136100   5.772   5.410   4.554  0.1620  0.0568 -0.5926
 4895TIP3    H236101   5.778   5.466   4.694 -0.6270 -0.4540 -0.3559
 4896TIP3   OH236102   1.267   1.344  15.288 -0.5808  0.1994 -0.1858
 4896TIP3    H136103   1.272   1.282  15.216 -0.9213 -0.3507  0.2626
 4896TIP3    H236104   1.181   1.330  15.327 -0.6312  0.8959 -0.0355
 4897TIP3   OH236105   4.172   2.373  13.827  0.1573 -0.8145  0.0900
 4897TIP3    H136106   4.159   2.287  13.867 -0.4822 -0.3841  0.8253
 4897TIP3    H236107   4.093   2.422  13.851  0.9301  0.2666  0.4337
 4898TIP3   OH236108   4.851   6.733   1.156 -0.2504 -0.5919  0.0138
 4898TIP3    H136109   4.822   6.644   1.136  2.1261 -1.1726 -1.0240
 4898TIP3    H236110   4.944   6.733   1.134 -0.0365  1.9219  0.8055
 4899TIP3   OH236111   2.942   5.733  12.776 -0.4570 -0.1100  0.3704
 4899TIP3    H136112   2.912   5.643  12.784  0.1018 -0.2213  1.3708
 4899TIP3    H236113   2.940   5.767  12.866 -0.9682  0.9699 -0.0386
 4900TIP3   OH236114   6.045   3.734   1.509 -0.4207  0.1536 -0.0113
 4900TIP3    H136115   5.973   3.672   1.498 -1.3255  0.9109  1.4940
 4900TIP3    H236116   6.085   3.740   1.422 -0.9551 -1.7493 -0.4133
 4901TIP3   OH236117   6.246   1.423   5.806  0.0567 -0.2848 -0.2487
 4901TIP3    H136118   6.249   1.423   5.710 -0.6995 -0.0371 -0.2800
 4901TIP3    H236119   6.185   1.494   5.827  0.6617  0.0402  0.4319
 4902TIP3   OH236120   5.667   6.756  11.216  0.1574  0.1132  0.0134
 4902TIP3    H136121   5.682   6.848  11.194  0.1448  0.1094 -0.0123
 4902TIP3    H236122   5.646   6.757  11.309 -3.4951  0.5858 -0.7155
 4903TIP3   OH236123   5.883   2.925   2.088 -0.1039 -0.1091 -0.2964
 4903TIP3    H136124   5.839   2.972   2.160 -1.1791 -1.9776  0.2990
 4903TIP3    H236125   5.866   2.833   2.106  1.5090 -0.7167 -1.7612
 4904TIP3   OH236126   6.277   2.624   4.131 -0.0233  0.1089 -0.5953
 4904TIP3    H136127   6.313   2.574   4.058  0.1693 -0.2620 -0.2495
 4904TIP3    H236128   6.190   2.586   4.146 -0.4359  0.8051 -1.2357
 4905TIP3   OH236129   0.459   1.157  16.350 -0.5809  0.3999 -0.0403
 4905TIP3    H136130   0.416   1.073  16.368  0.1651 -0.1625 -0.8726
 4905TIP3    H236131   0.454   1.204  16.433 -0.2076 -0.8178  0.6826
 4906TIP3   OH236132   6.778   1.254  14.115  0.5956  0.2556 -0.1986
 4906TIP3    H136133   6.811   1.164  14.113 -2.7526 -1.0243 -1.3171
 4906TIP3    H236134   6.849   1.305  14.154  4.4850 -2.0111 -3.9144
 4907TIP3   OH236135   5.145   1.071   5.554 -0.1604 -0.1047  0.2308
 4907TIP3    H136136   5.216   1.032   5.605  0.7271 -2.5395 -2.7074
 4907TIP3    H236137   5.073   1.009   5.564 -0.5054  0.2353 -0.1730
 4908TIP3   OH236138   5.025   2.797   4.312  0.6045  0.0778  0.1519
 4908TIP3    H136139   5.051   2.746   4.389 -0.3175 -1.4223 -0.5086
 4908TIP3    H236140   5.101   2.793   4.253  0.5333 -0.5281  0.1033
 4909TIP3   OH236141   0.355   4.665  14.393  0.2909  0.4462  1.1905
 4909TIP3    H136142   0.417   4.613  14.341 -1.8708 -0.3671 -0.6860
 4909TIP3    H236143   0.354   4.751  14.350 -0.7550  0.0840  0.4752
 4910TIP3   OH236144   5.394   4.006  13.521  0.0364  0.1581 -0.6978
 4910TIP3    H136145   5.385   4.035  13.430 -0.4779  1.0830 -0.3586
 4910TIP3    H236146   5.330   3.935  13.530 -0.9894  1.0714 -0.6475
 4911TIP3   OH236147   4.741   1.174   4.359  0.1911  0.1453 -0.1983
 4911TIP3    H136148   4.826   1.140   4.387  1.1073  2.0311 -0.5724
 4911TIP3    H236149   4.756   1.203   4.269 -0.9306  0.2309 -0.3606
 4912TIP3   OH236150   2.951   3.937  14.062  0.2026 -0.2952  0.2501
 4912TIP3    H136151   2.977   3.965  13.974 -0.0868 -0.4043  0.1298
 4912TIP3    H236152   2.887   4.002  14.089 -0.2891 -0.7009  0.0680
 4913TIP3   OH236153   4.013   3.451   3.329 -0.1320 -0.6067  0.0626
 4913TIP3    H136154   4.036   3.359   3.322 -0.6963 -0.9035  1.9989
 4913TIP3    H236155   4.097   3.497   3.338  0.0512 -1.1072  0.9390
 4914TIP3   OH236156   1.219   3.638   1.033 -0.1336  0.6422 -0.0137
 4914TIP3    H136157   1.136   3.685   1.037 -0.5142  0.0517 -0.8938
 4914TIP3    H236158   1.232   3.619   0.940  0.5503 -0.0387  0.2140
 4915TIP3   OH236159   6.243   1.026  11.246 -0.3136  0.1505  0.8041
 4915TIP3    H136160   6.209   0.937  11.258  2.0667 -1.1465 -1.4922
 4915TIP3    H236161   6.211   1.052  11.160 -0.2051  1.1667  1.0676
 4916TIP3   OH236162   6.119   3.235  12.308  0.2355 -0.4722 -0.2213
 4916TIP3    H136163   6.164   3.175  12.248  1.1113  0.2552 -0.3060
 4916TIP3    H236164   6.040   3.188  12.335 -0.3208 -0.6946 -2.1788
 4917TIP3   OH236165   3.319   2.861   0.732  0.4560 -0.8017 -0.1152
 4917TIP3    H136166   3.357   2.926   0.673  1.2953  0.3982  1.6825
 4917TIP3    H236167   3.233   2.842   0.695  1.1494 -0.4434 -1.9689
 4918TIP3   OH236168   4.013   5.054  13.246  0.9009 -0.5243 -0.2209
 4918TIP3    H136169   4.028   5.145  13.220 -2.9469  0.2373 -0.0162
 4918TIP3    H236170   3.982   5.060  13.337 -1.0570 -1.8736 -0.7844
 4919TIP3   OH236171   0.297   4.310  15.823  0.1536  0.1299  0.1434
 4919TIP3    H136172   0.300   4.401  15.792 -0.5495 -0.4590 -1.7240
 4919TIP3    H236173   0.366   4.266  15.773 -0.7446 -0.7623 -0.3098
 4920TIP3   OH236174   1.006   5.403   5.659 -0.0004 -0.0443  0.1913
 4920TIP3    H136175   0.997   5.357   5.575  4.2257  0.6648 -0.7506
 4920TIP3    H236176   0.991   5.334   5.725  0.1795 -1.4317 -1.1781
 4921TIP3   OH236177   1.210   3.118  13.005  0.1160 -0.2741 -0.1530
 4921TIP3    H136178   1.163   3.196  12.974  1.7159 -0.3112 -2.7929
 4921TIP3    H236179   1.220   3.132  13.099 -0.3984  2.2823 -0.4430
 4922TIP3   OH236180   3.716   4.843  16.716 -0.4561 -0.5970 -0.2814
 4922TIP3    H136181   3.710   4.939  16.709 -1.9496 -0.7075 -0.5805
 4922TIP3    H236182   3.809   4.827  16.732  0.1284  0.7738 -2.1265
 4923TIP3   OH236183   0.593   0.828   2.745 -0.4752  0.3178  0.6309
 4923TIP3    H136184   0.618   0.894   2.680  1.0222 -0.5061  0.3584
 4923TIP3    H236185   0.666   0.825   2.806 -0.8069 -0.6476  0.9845
 4924TIP3   OH236186   3.367   2.099   2.764  0.4247 -1.0010 -0.4768
 4924TIP3    H136187   3.334   2.104   2.675 -0.1451  2.1900 -0.1417
 4924TIP3    H236188   3.462   2.105   2.754  0.4569 -2.1809 -0.9464
 4925TIP3   OH236189   5.721   4.680  13.034 -0.0205 -0.2930  0.2961
 4925TIP3    H136190   5.701   4.689  12.941 -0.5202  1.5280  0.5727
 4925TIP3    H236191   5.816   4.691  13.039 -0.1857  1.1947  0.1876
 4926TIP3   OH236192   2.998   6.701  13.192  0.0097  0.3930 -0.4307
 4926TIP3    H136193   3.017   6.786  13.231  0.5872  0.2605 -0.4139
 4926TIP3    H236194   3.000   6.639  13.265  2.5445 -0.0757 -0.8554
 4927TIP3   OH236195   2.416   6.059  16.853  0.0462 -0.2803  0.0747
 4927TIP3    H136196   2.359   6.008  16.796 -0.7719  0.0517  0.5858
 4927TIP3    H236197   2.358   6.122  16.895  0.9923  0.8971 -0.3434
 4928TIP3   OH236198   2.616   2.099   0.292  0.0239 -0.0922  0.0981
 4928TIP3    H136199   2.637   2.157   0.366 -0.7269  1.4207 -0.8495
 4928TIP3    H236200   2.575   2.023   0.333  3.1612 -1.0883  1.5896
 4929TIP3   OH236201   0.544   5.441   4.377  0.2949  0.6862  0.0675
 4929TIP3    H136202   0.566   5.376   4.311 -0.1527 -0.6368  1.2004
 4929TIP3    H236203   0.452   5.424   4.398 -0.0833  2.2472 -0.2544
 4930TIP3   OH236204   1.619   3.640  12.809 -0.6983 -0.2071  0.1254
 4930TIP3    H136205   1.692   3.582  12.789  1.2146  1.6426  1.5002
 4930TIP3    H236206   1.579   3.603  12.888  0.8141  0.5688  1.2803
 4931TIP3   OH236207   1.951   1.039   0.651  0.2295  0.5688 -0.1141
 4931TIP3    H136208   1.941   1.125   0.691 -0.1711  0.2671  0.4401
 4931TIP3    H236209   1.950   0.978   0.725  1.7490  0.1804 -0.3913
 4932TIP3   OH236210   5.375   1.959   5.784 -0.3864  0.1735 -0.2728
 4932TIP3    H136211   5.436   1.898   5.741 -0.2041  0.2893 -0.1814
 4932TIP3    H236212   5.393   1.948   5.877  2.2670  3.0293 -0.3734
 4933TIP3   OH236213   5.307   5.020  13.097  0.0015 -0.9678 -0.8302
 4933TIP3    H136214   5.400   5.004  13.114 -0.0117 -0.3337 -0.1061
 4933TIP3    H236215   5.289   5.103  13.142 -0.0355  0.8431 -4.0625
 4934TIP3   OH236216   1.142   6.259  15.738  0.0060  0.2559  0.4376
 4934TIP3    H136217   1.095   6.304  15.808  0.9038  0.9201  0.6261
 4934TIP3    H236218   1.232   6.291  15.745  0.0309  0.6393 -1.2510
 4935TIP3   OH236219   5.863   3.679  15.414 -0.3104 -0.0022  0.3168
 4935TIP3    H136220   5.956   3.695  15.432  0.1778 -0.6164 -1.5708
 4935TIP3    H236221   5.820   3.761  15.439  0.7637  0.3560  1.0368
 4936TIP3   OH236222   2.655   6.311   0.659 -0.1203 -0.1471  0.4793
 4936TIP3    H136223   2.741   6.313   0.701 -0.3034  0.1874  0.8447
 4936TIP3    H236224   2.647   6.222   0.625  1.3037  0.4568 -1.5258
 4937TIP3   OH236225   5.950   3.149   4.927  0.3916  0.3149 -0.3051
 4937TIP3    H136226   5.871   3.188   4.965  0.2933  0.5577 -0.7603
 4937TIP3    H236227   5.953   3.182   4.837  1.5646  1.1627  0.0158
 4938TIP3   OH236228   1.737   6.661   3.059 -0.2428 -0.2077  0.3533
 4938TIP3    H136229   1.758   6.753   3.077  1.8117 -0.6861  0.5637
 4938TIP3    H236230   1.736   6.655   2.964 -3.8546  0.7514  0.2694
 4939TIP3   OH236231   5.369   4.107  12.719  0.3748 -0.4217  0.6460
 4939TIP3    H136232   5.323   4.076  12.797  0.6142  0.1317  1.0147
 4939TIP3    H236233   5.390   4.028  12.670 -4.1710 -0.5263 -1.3614
 4940TIP3   OH236234   3.282   5.486   1.941 -0.3595 -0.3934  0.3712
 4940TIP3    H136235   3.236   5.403   1.956 -1.3460  0.2181  0.7080
 4940TIP3    H236236   3.229   5.552   1.985  1.5272  0.1506  1.8806
 4941TIP3   OH236237   0.154   5.932   2.232  0.2086  0.0369  0.1407
 4941TIP3    H136238   0.120   5.870   2.297 -1.1683  0.4280 -0.1995
 4941TIP3    H236239   0.243   5.951   2.261  0.2517 -1.2290  0.8785
 4942TIP3   OH236240   0.507   0.892   4.921  0.1906 -0.5298 -1.0091
 4942TIP3    H136241   0.436   0.915   4.981 -0.2308  0.0485 -1.7145
 4942TIP3    H236242   0.487   0.940   4.841  0.9112 -1.0527 -1.5125
 4943TIP3   OH236243   4.971   2.989   3.375  0.2869 -0.1783 -0.0838
 4943TIP3    H136244   5.012   2.934   3.442  1.6365  0.1559 -0.6162
 4943TIP3    H236245   4.902   3.036   3.422 -0.7802 -2.1877  0.4095
 4944TIP3   OH236246   4.813   6.423   2.452  0.1903  0.3343  0.0371
 4944TIP3    H136247   4.811   6.519   2.452  3.6166  0.5104  2.6962
 4944TIP3    H236248   4.740   6.397   2.508 -1.1534  1.3272 -1.2150
 4945TIP3   OH236249   2.064   2.562  13.925 -0.1601  0.0983 -0.7307
 4945TIP3    H136250   2.010   2.535  13.999  0.1454  1.3574 -0.0341
 4945TIP3    H236251   2.004   2.610  13.868 -0.1036  0.2160 -0.6894
 4946TIP3   OH236252   4.927   5.203   0.369 -0.6820  0.2660 -0.2874
 4946TIP3    H136253   4.869   5.172   0.439  1.0920  1.3220  1.7377
 4946TIP3    H236254   4.923   5.298   0.374 -0.4177  0.3524 -1.5313
 4947TIP3   OH236255   2.972   0.193  17.085 -0.0375  0.0784  0.1313
 4947TIP3    H136256   2.878   0.199  17.065  0.0086  0.1458 -0.0628
 4947TIP3    H236257   2.984   0.104  17.118 -0.3075  0.3117  0.8626
 4948TIP3   OH236258   6.734   4.394   2.544  0.1342 -0.0609 -0.0020
 4948TIP3    H136259   6.649   4.426   2.574  1.0307  0.5055  1.9900
 4948TIP3    H236260   6.751   4.444   2.464 -0.4520  1.3656  0.7460
 4949TIP3   OH236261   6.348   1.742  16.516  0.1011 -0.1769  0.5914
 4949TIP3    H136262   6.302   1.770  16.437  0.1881 -1.5442  0.0541
 4949TIP3    H236263   6.377   1.824  16.557 -1.1130  0.5924 -0.0827
 4950TIP3   OH236264   2.508   2.509  11.548 -0.0702  0.1512 -0.0822
 4950TIP3    H136265   2.535   2.417  11.556  0.3562  0.4994  3.0775
 4950TIP3    H236266   2.588   2.555  11.524  0.1939 -0.0288  0.4431
 4951TIP3   OH236267   6.041   4.273  11.788  0.5839 -0.4265 -0.7867
 4951TIP3    H136268   5.971   4.332  11.761  1.2663  0.3503 -0.8600
 4951TIP3    H236269   6.005   4.185  11.774 -0.9084 -0.0504  0.5504
 4952TIP3   OH236270   1.334   6.755  14.930  0.2998  0.3661  0.1457
 4952TIP3    H136271   1.318   6.681  14.989  1.9426 -0.4734 -0.4554
 4952TIP3    H236272   1.247   6.776  14.894 -0.3965 -0.3673  1.3647
 4953TIP3   OH236273   3.436   1.065   3.556 -0.4794 -0.1671  0.5034
 4953TIP3    H136274   3.500   1.023   3.498  1.2862  0.8462  1.6750
 4953TIP3    H236275   3.436   1.011   3.635 -1.0280 -0.1100  0.5465
 4954TIP3   OH236276   5.150   2.510   1.879  0.3010 -0.9423 -0.1904
 4954TIP3    H136277   5.159   2.587   1.935  0.4529 -0.9952 -0.1420
 4954TIP3    H236278   5.224   2.454   1.902  0.7863 -0.6354 -0.9545
 4955TIP3   OH236279   0.960   2.169  15.925 -0.5915  0.0720 -0.7323
 4955TIP3    H136280   1.006   2.241  15.969 -0.6868 -0.4475  0.2164
 4955TIP3    H236281   1.019   2.144  15.854  0.5155 -0.4498  0.3537
 4956TIP3   OH236282   2.113   0.141  13.694 -0.6627  0.7290 -0.2862
 4956TIP3    H136283   2.133   0.204  13.625 -0.1658  1.1023  0.1958
 4956TIP3    H236284   2.198   0.122  13.734 -0.8751  0.1047 -0.1239
 4957TIP3   OH236285   2.973   6.158  12.876 -0.2224 -0.2952  0.7575
 4957TIP3    H136286   2.886   6.117  12.878  0.2112 -1.2316  0.6248
 4957TIP3    H236287   2.961   6.238  12.824 -1.1620 -0.0406  1.3559
 4958TIP3   OH236288   4.278   1.528  10.890 -0.2187 -0.9179 -0.0187
 4958TIP3    H136289   4.265   1.607  10.943  1.6945  0.4750 -1.5033
 4958TIP3    H236290   4.190   1.495  10.873 -0.8963 -0.9234  3.2866
 4959TIP3   OH236291   5.793   2.048   2.278 -0.2685 -0.6718  0.5051
 4959TIP3    H136292   5.742   2.113   2.326 -0.9688  0.1635 -1.3498
 4959TIP3    H236293   5.884   2.077   2.289 -0.3004 -1.1773  2.3217
 4960TIP3   OH236294   0.848   0.464   3.709 -0.0224 -0.2132 -0.4288
 4960TIP3    H136295   0.774   0.498   3.658 -0.1581  0.5580  0.2700
 4960TIP3    H236296   0.846   0.370   3.694 -0.5414 -0.0866 -1.2132
 4961TIP3   OH236297   2.549   3.329   0.294  0.3689 -0.1962 -0.3134
 4961TIP3    H136298   2.547   3.391   0.221  0.2081  0.4503  0.2342
 4961TIP3    H236299   2.622   3.270   0.274  0.3814  0.0337 -0.9460
 4962TIP3   OH236300   5.602   5.285   4.831 -0.4306 -0.4352 -0.4418
 4962TIP3    H136301   5.517   5.259   4.797 -1.1916  1.1992  0.1812
 4962TIP3    H236302   5.605   5.248   4.920 -0.7733  0.0749 -0.2163
 4963TIP3   OH236303   0.580   0.299  16.173  0.0539  0.5013 -0.3448
 4963TIP3    H136304   0.667   0.297  16.134  0.1369 -2.2046 -0.1283
 4963TIP3    H236305   0.594   0.266  16.262 -1.3923 -1.3479 -0.7798
 4964TIP3   OH236306   2.897   6.210  10.099  0.8813 -0.2781 -0.2850
 4964TIP3    H136307   2.973   6.162  10.132  1.9248  0.9903 -0.7844
 4964TIP3    H236308   2.869   6.263  10.173  1.4690  0.4328 -0.5604
 4965TIP3   OH236309   1.902   6.171  12.453  0.3100  0.5260 -0.2198
 4965TIP3    H136310   1.961   6.101  12.481  0.0423 -0.4586 -2.0285
 4965TIP3    H236311   1.826   6.126  12.417  0.2996  1.7227 -1.7701
 4966TIP3   OH236312   3.299   2.190   0.088 -0.0546  0.2731 -0.0284
 4966TIP3    H136313   3.208   2.198   0.116  0.1218  0.7263  0.4312
 4966TIP3    H236314   3.308   2.253   0.017 -0.0104  0.4797  0.1594
 4967TIP3   OH236315   2.047   3.177   1.624 -0.1304 -0.1771  0.0745
 4967TIP3    H136316   1.984   3.197   1.693 -2.0319 -0.3392 -1.5981
 4967TIP3    H236317   2.035   3.084   1.608  0.8236 -0.2926  0.0051
 4968TIP3   OH236318   1.504   2.251   2.994 -0.1397 -0.6303  0.4087
 4968TIP3    H136319   1.587   2.208   3.016 -0.3014 -0.8969  0.4964
 4968TIP3    H236320   1.508   2.263   2.899 -0.0482 -0.7400  0.3980
 4969TIP3   OH236321   1.994   2.709  15.946  0.8860 -0.3590 -0.1997
 4969TIP3    H136322   2.018   2.691  16.037 -0.7460  0.4809  0.4123
 4969TIP3    H236323   2.078   2.727  15.902  1.4909  1.3468  1.6020
 4970TIP3   OH236324   0.491   1.725  15.607  0.8320 -0.0848  0.2190
 4970TIP3    H136325   0.518   1.811  15.640  0.5550  0.1515 -0.1749
 4970TIP3    H236326   0.396   1.730  15.598  0.9910  0.1659 -1.4928
 4971TIP3   OH236327   0.662   2.599   5.287  0.2213  0.2960  0.0511
 4971TIP3    H136328   0.712   2.638   5.359  1.6285  1.0588 -1.3218
 4971TIP3    H236329   0.581   2.650   5.285  0.7263  1.1315  0.2807
 4972TIP3   OH236330   0.228   0.841  15.890  0.1077 -0.0165 -0.0388
 4972TIP3    H136331   0.208   0.927  15.927 -0.9149 -0.5804  0.7408
 4972TIP3    H236332   0.143   0.806  15.864  0.5944 -0.5164 -0.9933
 4973TIP3   OH236333   3.084   6.707   1.750 -0.8792  0.4620 -0.8209
 4973TIP3    H136334   3.048   6.789   1.784  0.1166  0.7447 -0.4266
 4973TIP3    H236335   3.158   6.735   1.696  2.8117 -0.3901  3.4986
 4974TIP3   OH236336   4.597   4.478   2.156  0.1001  0.4819  0.5297
 4974TIP3    H136337   4.662   4.540   2.122  0.3407  0.4858  1.0069
 4974TIP3    H236338   4.514   4.509   2.119  0.2609  0.9174  0.5284
 4975TIP3   OH236339   6.628   5.277  11.542  0.8049 -0.9231  0.1852
 4975TIP3    H136340   6.704   5.219  11.552 -0.0682 -2.3185 -0.9960
 4975TIP3    H236341   6.650   5.355  11.593  1.6398 -2.6713  2.5845
 4976TIP3   OH236342   3.327   1.270  11.550 -0.1040 -0.3591  0.4891
 4976TIP3    H136343   3.351   1.269  11.457  0.3620 -1.1315  0.6136
 4976TIP3    H236344   3.360   1.354  11.582  0.8049 -0.6094  0.2285
 4977TIP3   OH236345   6.384   4.247  12.523  0.3980 -0.1712  0.1397
 4977TIP3    H136346   6.358   4.171  12.574 -0.7143  1.2434  1.7474
 4977TIP3    H236347   6.309   4.264  12.466  0.4714 -0.0469  0.0817
 4978TIP3   OH236348   1.546   2.137  15.850  0.3280 -0.4237  0.9451
 4978TIP3    H136349   1.561   2.056  15.802 -0.1819  0.2366 -0.3778
 4978TIP3    H236350   1.632   2.164  15.881  0.8232 -0.3895 -0.4198
 4979TIP3   OH236351   4.069   5.722   0.543  0.0268 -0.3106  0.1685
 4979TIP3    H136352   4.046   5.805   0.502 -0.6210 -0.3251  0.5039
 4979TIP3    H236353   4.009   5.714   0.617  0.2305 -0.9706  0.2634
 4980TIP3   OH236354   4.007   5.412   4.003 -0.1170  0.8176 -0.1687
 4980TIP3    H136355   4.001   5.341   4.066 -0.8974  0.1045 -1.0239
 4980TIP3    H236356   4.101   5.422   3.987 -0.0809 -1.4221 -1.5693
 4981TIP3   OH236357   1.670   1.062   5.587  0.4713 -0.2227 -0.2584
 4981TIP3    H136358   1.671   1.141   5.640 -1.7752 -2.0040  2.5886
 4981TIP3    H236359   1.577   1.037   5.584  1.1276 -2.6268 -1.2662
 4982TIP3   OH236360   0.163   0.072  11.492 -0.0795  0.3002 -0.4403
 4982TIP3    H136361   0.255   0.047  11.491  0.0133  0.5472  0.9746
 4982TIP3    H236362   0.164   0.167  11.481 -0.1773  0.3029 -0.4275
 4983TIP3   OH236363   6.408   5.500  11.995 -0.5170 -0.4140  0.2943
 4983TIP3    H136364   6.321   5.520  12.029 -0.3919  0.1762  0.2794
 4983TIP3    H236365   6.392   5.453  11.913 -0.8211 -0.5333  0.4213
 4984TIP3   OH236366   2.867   4.560   2.623 -0.1713 -0.1768 -0.2049
 4984TIP3    H136367   2.790   4.604   2.660  0.0295  0.6749 -0.7807
 4984TIP3    H236368   2.875   4.596   2.534  2.2173  1.4795  0.6115
 4985TIP3   OH236369   3.122   3.079   4.182  0.0795 -0.5036  0.0659
 4985TIP3    H136370   3.215   3.083   4.160  0.2481  3.7485  1.0050
 4985TIP3    H236371   3.113   3.000   4.235  3.7527  0.4937  2.3500
 4986TIP3   OH236372   4.237   6.634  16.675 -0.0063 -0.1017 -0.5058
 4986TIP3    H136373   4.331   6.642  16.691  0.1647  0.5698 -1.8155
 4986TIP3    H236374   4.199   6.620  16.762  1.1577  0.9497  0.1834
 4987TIP3   OH236375   5.634   2.643  12.856 -0.3849  0.6613  0.3198
 4987TIP3    H136376   5.682   2.670  12.778  0.1579 -0.2560  0.3291
 4987TIP3    H236377   5.546   2.679  12.843  0.6602  3.6210  0.9942
 4988TIP3   OH236378   5.687   4.612  14.788  0.1470  0.1826  0.1340
 4988TIP3    H136379   5.747   4.682  14.816 -0.6055  1.0366 -0.3534
 4988TIP3    H236380   5.603   4.656  14.777 -0.7645 -1.1618  1.5818
 4989TIP3   OH236381   0.950   5.450   0.729 -0.1690 -0.2483 -0.2847
 4989TIP3    H136382   0.921   5.359   0.720  1.2338 -0.8163  0.7417
 4989TIP3    H236383   0.904   5.497   0.659  0.7388 -2.1442 -2.1947
 4990TIP3   OH236384   4.544   0.257  11.163  0.6155 -0.0008 -0.5411
 4990TIP3    H136385   4.613   0.195  11.139 -1.7213 -1.9346 -2.5127
 4990TIP3    H236386   4.506   0.284  11.079 -2.3207 -0.5263  0.5666
 4991TIP3   OH236387   4.677   0.789  13.489 -0.6972 -0.4303  0.1036
 4991TIP3    H136388   4.705   0.717  13.546  3.2885  0.3239 -0.7700
 4991TIP3    H236389   4.694   0.868  13.541  1.2312  0.1736 -1.4097
 4992TIP3   OH236390   3.079   5.491  15.568 -0.0718 -0.1076  0.1102
 4992TIP3    H136391   3.136   5.453  15.501  0.1457  2.1199 -1.0211
 4992TIP3    H236392   3.139   5.539  15.626 -0.5563  0.3476  0.2367
 4993TIP3   OH236393   5.886   2.813   4.724 -0.0487  0.1617 -0.5995
 4993TIP3    H136394   5.901   2.844   4.635 -0.7553  1.8804 -0.1475
 4993TIP3    H236395   5.792   2.827   4.739  0.1786  0.4688  0.6216
 4994TIP3   OH236396   2.754   3.518   5.660  0.8264 -0.1650 -0.1824
 4994TIP3    H136397   2.757   3.570   5.580  0.5560  0.6519  0.3200
 4994TIP3    H236398   2.744   3.428   5.631 -0.6455  0.2645 -1.0408
 4995TIP3   OH236399   1.434   5.836  14.817  0.0318 -0.2520  0.0716
 4995TIP3    H136400   1.394   5.798  14.895 -1.2199 -0.1945 -0.5279
 4995TIP3    H236401   1.413   5.775  14.747  0.3809  0.1450 -0.3863
 4996TIP3   OH236402   2.983   3.739  16.303 -0.1100  0.5412  0.3284
 4996TIP3    H136403   3.032   3.734  16.220  0.6311  0.4144  0.7720
 4996TIP3    H236404   2.977   3.648  16.332 -0.3035  0.5942  0.4500
 4997TIP3   OH236405   3.945   4.716  11.337  0.1796  0.0394  0.1839
 4997TIP3    H136406   4.004   4.642  11.352  0.3534  0.3915  1.2761
 4997TIP3    H236407   3.952   4.733  11.243  2.9014  0.9669  0.5117
 4998TIP3   OH236408   0.939   3.604   5.671  0.3029  0.1224  0.1952
 4998TIP3    H136409   0.873   3.551   5.626  1.9094 -1.1569 -0.7000
 4998TIP3    H236410   0.976   3.545   5.737  0.1407  1.0342  1.1232
 4999TIP3   OH236411   6.355   2.142   4.052 -0.2040 -0.1848  0.1618
 4999TIP3    H136412   6.278   2.194   4.075 -1.1113 -0.6086 -1.8199
 4999TIP3    H236413   6.428   2.205   4.053 -1.1818  1.0102 -1.5624
 5000TIP3   OH236414   5.256   0.564  13.125 -0.1225  0.0046 -0.1765
 5000TIP3    H136415   5.235   0.477  13.090  1.9075 -0.0192 -1.4095
 5000TIP3    H236416   5.242   0.557  13.219 -1.8266 -1.0933 -0.4907
 5001TIP3   OH236417   2.625   6.346  13.741  0.2936 -0.3068  0.6120
 5001TIP3    H136418   2.662   6.336  13.653 -2.6077  0.0265 -0.7185
 5001TIP3    H236419   2.700   6.370  13.796  2.0328  0.3343 -1.9330
 5002TIP3   OH236420   0.862   4.103   3.463  0.0064  0.7460  0.0836
 5002TIP3    H136421   0.921   4.152   3.520  1.2329  1.9538 -2.1759
 5002TIP3    H236422   0.915   4.080   3.387 -1.5871 -0.8877 -0.5700
 5003TIP3   OH236423   5.734   5.386  12.210 -0.5584  0.4924 -0.3750
 5003TIP3    H136424   5.693   5.299  12.202 -0.9291  0.7051 -0.7615
 5003TIP3    H236425   5.826   5.367  12.230 -0.5504  0.0114 -0.8658
 5004TIP3   OH236426   0.490   2.174  11.486  0.5382 -0.6197  0.3298
 5004TIP3    H136427   0.396   2.185  11.471  0.7793  0.7004 -0.2182
 5004TIP3    H236428   0.532   2.231  11.422  1.6733  1.3349  2.7011
 5005TIP3   OH236429   3.237   4.443  13.991  0.3268 -0.0972 -0.8728
 5005TIP3    H136430   3.171   4.511  13.978 -0.3792 -0.8607 -1.2792
 5005TIP3    H236431   3.200   4.385  14.057  1.5762  0.7384  0.6016
 5006TIP3   OH236432   3.842   0.488   5.345  0.4054 -0.0207  0.3165
 5006TIP3    H136433   3.773   0.421   5.346  1.7708 -1.4247  1.0311
 5006TIP3    H236434   3.919   0.444   5.379  2.0961  1.1066 -1.9644
 5007TIP3   OH236435   4.058   2.699  16.840  0.4231 -0.3363 -0.1619
 5007TIP3    H136436   4.080   2.735  16.754  1.1170  0.1631  0.2124
 5007TIP3    H236437   4.065   2.605  16.829  3.4130 -0.1831  0.0931
 5008TIP3   OH236438   5.066   1.175   1.661  0.3591 -0.2702 -0.1440
 5008TIP3    H136439   5.138   1.143   1.606  0.8351 -0.1217  0.3906
 5008TIP3    H236440   5.051   1.264   1.631 -0.9331 -0.9387 -1.6002
 5009TIP3   OH236441   1.676   2.605   5.539 -0.1947  0.5784  0.6147
 5009TIP3    H136442   1.741   2.615   5.608  0.1068  1.4311  0.2155
 5009TIP3    H236443   1.610   2.546   5.576  0.8282 -0.3274  0.9951
 5010TIP3   OH236444   3.450   4.449  12.198  0.1599  0.1797  0.3634
 5010TIP3    H136445   3.526   4.401  12.231 -0.5303 -0.2795  1.3233
 5010TIP3    H236446   3.456   4.440  12.103  0.0818 -1.7809  0.5122
 5011TIP3   OH236447   6.501   5.089   2.906  0.1355  0.2711  0.3403
 5011TIP3    H136448   6.408   5.071   2.893  0.4013  0.1624 -1.6119
 5011TIP3    H236449   6.511   5.099   3.000 -1.9726  0.9236  0.5188
 5012TIP3   OH236450   0.415   1.359  16.573  0.2406 -0.0201  0.3152
 5012TIP3    H136451   0.350   1.317  16.630 -1.0992  1.1253 -0.3491
 5012TIP3    H236452   0.479   1.396  16.633 -1.5499  1.8054  1.1412
 5013TIP3   OH236453   2.251   5.743   0.583 -0.1352 -0.0340 -0.0793
 5013TIP3    H136454   2.327   5.693   0.612 -0.1520  0.3919  0.7020
 5013TIP3    H236455   2.186   5.732   0.652 -1.3601 -1.6476 -1.4508
 5014TIP3   OH236456   5.275   5.539   5.443  0.1625  0.2088  0.1269
 5014TIP3    H136457   5.278   5.445   5.428 -0.0489  0.4708 -1.6744
 5014TIP3    H236458   5.187   5.565   5.417  0.7552  1.1419 -1.0057
 5015TIP3   OH236459   3.409   2.140   3.111 -0.1105 -0.3086 -0.2938
 5015TIP3    H136460   3.416   2.122   3.205  1.2998  0.7278 -0.1983
 5015TIP3    H236461   3.361   2.223   3.106 -1.0527 -0.8618 -0.5305
 5016TIP3   OH236462   3.587   1.984  16.585  0.4413  0.1139  0.2569
 5016TIP3    H136463   3.556   2.066  16.624  1.8410  0.1198  1.4072
 5016TIP3    H236464   3.655   2.012  16.524  2.4838 -0.3264  2.2800
 5017TIP3   OH236465   4.504   0.546  12.855  0.0395 -0.3554 -0.8887
 5017TIP3    H136466   4.460   0.480  12.908  0.2135 -1.2733 -1.8602
 5017TIP3    H236467   4.436   0.582  12.799 -0.1459  0.6151 -0.0560
 5018TIP3   OH236468   3.216   4.170  12.865 -0.0064 -0.1394 -0.0679
 5018TIP3    H136469   3.288   4.107  12.860 -1.1927 -1.8193  2.4229
 5018TIP3    H236470   3.231   4.216  12.948 -1.4853 -0.1728  0.2409
 5019TIP3   OH236471   2.418   3.477  16.554  0.1512  0.1275  0.6410
 5019TIP3    H136472   2.324   3.494  16.542 -0.4220 -1.7025  2.2825
 5019TIP3    H236473   2.456   3.562  16.575 -1.2436  0.7615  0.6551
 5020TIP3   OH236474   2.737   5.249  14.155  0.1844  0.5928  0.5229
 5020TIP3    H136475   2.718   5.320  14.094 -1.0334  0.8744  1.2143
 5020TIP3    H236476   2.651   5.216  14.181  0.7144 -0.2466  1.2392
 5021TIP3   OH236477   1.633   2.723  11.481 -0.5760  0.3795 -0.1345
 5021TIP3    H136478   1.645   2.682  11.567  0.3613 -1.4138 -1.1010
 5021TIP3    H236479   1.722   2.744  11.452 -0.9986  2.4660  0.0207
 5022TIP3   OH236480   1.145   5.374  13.368 -0.9091 -0.1184 -0.3217
 5022TIP3    H136481   1.140   5.346  13.277 -0.4526  2.6463 -1.2504
 5022TIP3    H236482   1.056   5.401  13.391 -0.8383  0.0641 -0.2558
 5023TIP3   OH236483   3.611   4.803   0.928 -0.2209 -0.1528  0.2149
 5023TIP3    H136484   3.595   4.721   0.881 -0.1901  0.2280 -0.4613
 5023TIP3    H236485   3.684   4.783   0.988  0.5592 -0.2953 -0.7756
 5024TIP3   OH236486   1.770   2.435   0.028 -0.1131 -0.0343 -0.9851
 5024TIP3    H136487   1.786   2.364   0.092  0.9698  0.5308 -0.6105
 5024TIP3    H236488   1.764   2.390  -0.056  0.3410 -0.6092 -0.7185
 5025TIP3   OH236489   3.119   0.339  12.462 -0.0310  0.4572  0.5706
 5025TIP3    H136490   3.027   0.329  12.488 -0.0947 -2.5169 -0.5515
 5025TIP3    H236491   3.159   0.388  12.534 -1.8450 -0.9208  2.6079
 5026TIP3   OH236492   1.304   2.319   3.422  0.2832  0.3328  0.0502
 5026TIP3    H136493   1.273   2.231   3.442  0.0697  0.2629 -0.5821
 5026TIP3    H236494   1.226   2.374   3.429  0.1983  0.3026 -0.6077
 5027TIP3   OH236495   4.860   1.481  16.471 -0.1485 -0.2336 -0.7455
 5027TIP3    H136496   4.839   1.417  16.540  1.2924  0.9703  0.8550
 5027TIP3    H236497   4.779   1.489  16.420 -1.7750  0.0226  1.7735
 5028TIP3   OH236498   6.225   4.432  11.643 -0.4132  0.2165 -0.0102
 5028TIP3    H136499   6.319   4.412  11.642 -0.1545  1.2289  1.8614
 5028TIP3    H236500   6.189   4.371  11.708 -0.8494  0.6496  0.1528
 5029TIP3   OH236501   6.475   0.130   0.719  0.2658 -0.2446 -0.1647
 5029TIP3    H136502   6.524   0.212   0.729  0.2497 -0.2919  0.3013
 5029TIP3    H236503   6.417   0.145   0.645 -0.1071  0.3446  0.2446
 5030TIP3   OH236504   5.398   0.779  14.557  0.2156 -0.2392  0.0598
 5030TIP3    H136505   5.319   0.747  14.513  0.5233  2.1388 -2.3610
 5030TIP3    H236506   5.458   0.802  14.486  1.5204  1.8305  1.7605
 5031TIP3   OH236507   5.225   4.396  13.669  0.7138  0.1632  0.0445
 5031TIP3    H136508   5.182   4.379  13.585 -0.7158 -0.7249  0.9172
 5031TIP3    H236509   5.219   4.491  13.681 -1.2470  0.0520  0.2274
 5032TIP3   OH236510   5.757   4.704   5.405 -0.1410 -0.1136  0.4135
 5032TIP3    H136511   5.793   4.777   5.354  1.1659 -0.0963  1.3453
 5032TIP3    H236512   5.677   4.739   5.443 -0.7132  0.1225 -0.9732
 5033TIP3   OH236513   0.873   1.531   2.752 -0.1241  0.0532 -0.1737
 5033TIP3    H136514   0.877   1.620   2.786 -0.5520 -0.1198  0.3413
 5033TIP3    H236515   0.859   1.476   2.829 -0.4374 -0.4034 -0.5470
 5034TIP3   OH236516   4.795   3.689  11.501  0.1460  0.0464 -0.5652
 5034TIP3    H136517   4.735   3.632  11.550 -0.3491 -0.0640 -1.2810
 5034TIP3    H236518   4.846   3.734  11.568  0.6377 -1.3476  0.0077
 5035TIP3   OH236519   6.106   3.362  13.071 -0.0980 -0.1567 -0.5936
 5035TIP3    H136520   6.022   3.324  13.044 -0.3672 -0.6456  0.9059
 5035TIP3    H236521   6.082   3.429  13.135  0.5518  0.8238 -1.3778
 5036TIP3   OH236522   2.615   3.804  13.443  0.5815 -0.1862 -0.1044
 5036TIP3    H136523   2.596   3.809  13.537 -0.9175 -2.0228 -0.2736
 5036TIP3    H236524   2.557   3.870  13.404  1.3978  0.7639  0.2829
 5037TIP3   OH236525   2.673   1.009  13.654  0.5557  0.3507 -1.0319
 5037TIP3    H136526   2.684   1.072  13.726 -0.3008  1.6573 -2.0244
 5037TIP3    H236527   2.608   1.050  13.597  1.1947 -0.7069 -2.5279
 5038TIP3   OH236528   5.953   2.389  16.118 -0.2733 -0.2460 -0.5391
 5038TIP3    H136529   6.021   2.423  16.177  0.6303 -1.5827 -0.7995
 5038TIP3    H236530   5.967   2.436  16.036  0.3775 -0.5475 -0.6073
 5039TIP3   OH236531   0.261   3.454  13.150 -0.4280  0.3039  0.7185
 5039TIP3    H136532   0.231   3.374  13.194 -2.3083  0.5279 -0.1405
 5039TIP3    H236533   0.283   3.425  13.062 -1.4381  0.7871  0.3017
 5040TIP3   OH236534   4.044   4.907  16.293  0.5221 -0.4106  0.4895
 5040TIP3    H136535   4.095   4.826  16.291 -2.1400 -2.1641  0.2586
 5040TIP3    H236536   4.022   4.923  16.201  1.2824  0.7786  0.4982
 5041TIP3   OH236537   2.165   3.437  12.886  0.2984 -0.0158  0.8043
 5041TIP3    H136538   2.167   3.367  12.820  0.6979  0.4218  0.3467
 5041TIP3    H236539   2.196   3.395  12.966  0.2264 -0.4454  0.6089
 5042TIP3   OH236540   4.525   2.657   3.604 -0.1250  0.1139  0.5459
 5042TIP3    H136541   4.521   2.731   3.666  0.7090  0.9215 -0.3520
 5042TIP3    H236542   4.567   2.587   3.654  0.3716  0.6960  0.9598
 5043TIP3   OH236543   4.383   1.630  16.534 -0.0454  0.0368  0.3577
 5043TIP3    H136544   4.327   1.580  16.593  0.0428 -1.6396 -0.9338
 5043TIP3    H236545   4.336   1.630  16.450  1.0625  0.1322 -0.2725
 5044TIP3   OH236546   3.035   6.739  11.316  0.0457 -0.5384 -0.1680
 5044TIP3    H136547   2.948   6.719  11.350 -0.6300  2.1571 -0.2207
 5044TIP3    H236548   3.093   6.676  11.358 -1.4616 -0.2933  2.3434
 5045TIP3   OH236549   6.589   5.733  14.895 -0.3072 -0.2376  0.4606
 5045TIP3    H136550   6.676   5.742  14.855  0.2448 -0.4730  1.5868
 5045TIP3    H236551   6.549   5.819  14.886 -0.7359 -0.6237 -1.8059
 5046TIP3   OH236552   2.875   4.822  13.979  0.2983 -0.2306 -0.1925
 5046TIP3    H136553   2.945   4.812  13.915  0.1471  0.7748 -0.5203
 5046TIP3    H236554   2.908   4.886  14.042  0.3291 -0.9935  0.5769
 5047TIP3   OH236555   4.751   1.144   0.878  0.1274  1.0945  0.0654
 5047TIP3    H136556   4.837   1.116   0.848 -0.5769  0.9318 -1.8526
 5047TIP3    H236557   4.696   1.066   0.869 -0.2432  1.2036  1.2681
 5048TIP3   OH236558   6.572   5.768  11.748  0.5105  0.1146  0.1263
 5048TIP3    H136559   6.551   5.697  11.687  1.3369  0.1606 -0.2216
 5048TIP3    H236560   6.581   5.725  11.833 -2.0457  0.2456  0.4985
 5049TIP3   OH236561   1.493   4.944  15.641 -0.4333  0.4278  0.2424
 5049TIP3    H136562   1.515   5.029  15.679 -0.8558  1.3759 -1.5974
 5049TIP3    H236563   1.529   4.947  15.553 -0.1646 -1.4427  0.2778
 5050TIP3   OH236564   4.240   6.304  16.885  0.3220 -0.0755  0.5476
 5050TIP3    H136565   4.177   6.302  16.813 -0.0615 -0.7423  0.8964
 5050TIP3    H236566   4.323   6.277  16.846  0.4207  0.9319  0.0522
 5051TIP3   OH236567   5.359   5.501   3.197 -0.8093 -0.2596  0.1118
 5051TIP3    H136568   5.428   5.528   3.257  0.4786 -0.7493 -1.1196
 5051TIP3    H236569   5.334   5.581   3.150 -0.4745 -0.2554 -0.0567
 5052TIP3   OH236570   6.237   5.680   4.884  0.9490 -0.2259 -0.0126
 5052TIP3    H136571   6.308   5.624   4.854  0.2447 -0.6850 -0.8717
 5052TIP3    H236572   6.185   5.697   4.805  0.3561  0.4680  0.5102
 5053TIP3   OH236573   6.565   6.444   6.115 -0.1441 -0.3652 -0.0965
 5053TIP3    H136574   6.552   6.349   6.111  1.0577 -0.7713  3.7212
 5053TIP3    H236575   6.660   6.456   6.109 -0.2503  0.5642 -0.0196
 5054TIP3   OH236576   2.035   5.764   4.770 -0.3027  0.1394  0.3881
 5054TIP3    H136577   2.019   5.700   4.700  1.3103  0.1528 -0.0113
 5054TIP3    H236578   2.056   5.711   4.846  2.9075  0.1662 -0.4067
 5055TIP3   OH236579   6.255   4.960   2.868  0.0690 -0.2013 -0.3821
 5055TIP3    H136580   6.261   4.871   2.902 -1.8154 -0.1508  0.1108
 5055TIP3    H236581   6.200   4.952   2.790  0.1383  0.4975 -0.5038
 5056TIP3   OH236582   1.147   2.072   3.993  0.3492  0.2475 -0.1751
 5056TIP3    H136583   1.055   2.085   4.018  0.3744 -0.4695  0.3168
 5056TIP3    H236584   1.142   2.034   3.905  0.1504 -0.3891  0.1074
 5057TIP3   OH236585   4.218   0.159  13.310 -0.2996  0.2456 -1.1194
 5057TIP3    H136586   4.142   0.104  13.331 -0.9065  0.2895 -3.1569
 5057TIP3    H236587   4.290   0.119  13.358 -1.0579 -1.4366 -1.3601
 5058TIP3   OH236588   5.098   1.922  15.688  0.0729  0.4511  0.5005
 5058TIP3    H136589   5.189   1.892  15.689  0.4670  1.5042 -2.1040
 5058TIP3    H236590   5.050   1.854  15.736  1.9248 -1.0699  0.2364
 5059TIP3   OH236591   0.045   5.933   3.812 -0.3207  0.3483 -0.4364
 5059TIP3    H136592  -0.007   5.958   3.888 -0.4676  0.6011 -0.6192
 5059TIP3    H236593   0.013   5.989   3.741  1.1952  1.5153 -0.2185
 5060TIP3   OH236594   0.357   1.659   6.424  0.3815  0.1808  0.4130
 5060TIP3    H136595   0.404   1.702   6.495  0.2209  1.3211 -0.1530
 5060TIP3    H236596   0.282   1.617   6.467  1.3007 -0.7005  1.1608
 5061TIP3   OH236597   3.705   1.110  12.465 -0.7516  0.2408 -0.1999
 5061TIP3    H136598   3.776   1.068  12.513  0.1085  0.9305 -0.8536
 5061TIP3    H236599   3.631   1.050  12.474 -0.2906 -0.1598  1.0492
 5062TIP3   OH236600   4.816   0.453   3.212 -0.5418  0.1461  0.4137
 5062TIP3    H136601   4.884   0.404   3.258  0.0279  0.4060 -0.1390
 5062TIP3    H236602   4.788   0.395   3.141 -1.2782 -0.1751  0.9610
 5063TIP3   OH236603   3.105   6.475   1.892  0.2223 -0.8055  0.0692
 5063TIP3    H136604   3.105   6.524   1.975  0.8276 -1.5256  0.5013
 5063TIP3    H236605   3.094   6.542   1.825  1.8291  0.0251  0.6053
 5064TIP3   OH236606   1.670   2.402   0.738 -0.7080  0.1177  0.4806
 5064TIP3    H136607   1.684   2.490   0.772  2.6413  0.1678 -0.7706
 5064TIP3    H236608   1.668   2.346   0.816 -0.0713  1.0063  1.1474
 5065TIP3   OH236609   6.021   1.861  13.142 -0.6655  0.3956  0.6665
 5065TIP3    H136610   6.100   1.807  13.143 -0.9346 -0.0005  1.6150
 5065TIP3    H236611   5.977   1.840  13.225 -0.5187  2.4681  1.2981
 5066TIP3   OH236612   1.217   6.695   3.390  0.8362  0.2724 -0.0470
 5066TIP3    H136613   1.185   6.770   3.339 -1.0341 -0.6693 -0.3054
 5066TIP3    H236614   1.191   6.714   3.480  0.3727 -0.0473 -0.1106
 5067TIP3   OH236615   6.706   1.419  12.293  0.6893  0.2785  0.0398
 5067TIP3    H136616   6.622   1.412  12.337  0.0233 -0.9457 -1.3733
 5067TIP3    H236617   6.702   1.503  12.248  0.8689  0.9489  1.2595
 5068TIP3   OH236618   3.258   6.048   2.264  0.3812  0.4094 -0.4706
 5068TIP3    H136619   3.257   6.089   2.178 -1.9022 -3.1812 -2.2648
 5068TIP3    H236620   3.166   6.037   2.286  0.9591  0.0429  1.8588
 5069TIP3   OH236621   2.344   4.603   2.242 -0.0681  0.0508  0.2802
 5069TIP3    H136622   2.387   4.635   2.162 -0.0617 -0.2670  0.1549
 5069TIP3    H236623   2.410   4.614   2.310 -0.5294  1.5565  0.5029
 5070TIP3   OH236624   5.411   4.329   3.881 -0.3490  0.0839 -0.5082
 5070TIP3    H136625   5.482   4.362   3.935  0.3086  1.2641 -2.0634
 5070TIP3    H236626   5.436   4.239   3.861 -0.5742 -0.3454  1.0751
 5071TIP3   OH236627   4.297   3.839  15.811 -0.0121 -0.5709  0.5052
 5071TIP3    H136628   4.279   3.816  15.720 -0.0801 -0.3309  0.4571
 5071TIP3    H236629   4.231   3.905  15.833 -0.8095 -1.5629  1.1301
 5072TIP3   OH236630   2.605   2.239   2.653  0.2040  0.2422  0.0962
 5072TIP3    H136631   2.659   2.204   2.723  1.5889 -1.4711 -1.7621
 5072TIP3    H236632   2.665   2.294   2.602 -0.3332  0.0370 -0.7657
 5073TIP3   OH236633   6.074   1.127  15.220  0.0868 -0.1102  0.2885
 5073TIP3    H136634   6.168   1.125  15.205 -0.2443  1.1421 -2.0698
 5073TIP3    H236635   6.035   1.125  15.133 -2.0604  0.5570  1.1984
 5074TIP3   OH236636   3.914   4.904   1.804  0.0024  0.3929  0.8641
 5074TIP3    H136637   3.868   4.913   1.888  1.0856  0.0614  1.5037
 5074TIP3    H236638   3.965   4.984   1.796 -0.4238  0.6100  0.3164
 5075TIP3   OH236639   0.246   1.928   1.977  0.5264 -0.7271  0.5269
 5075TIP3    H136640   0.191   2.005   1.961  0.7268 -0.6509  0.2062
 5075TIP3    H236641   0.254   1.925   2.073  1.9053  0.6451  0.4852
 5076TIP3   OH236642   0.279   2.100  10.492  0.2079  0.0704 -0.0986
 5076TIP3    H136643   0.339   2.173  10.481 -0.5633  0.3371 -3.0708
 5076TIP3    H236644   0.318   2.029  10.441 -0.1211 -0.9353  1.0295
 5077TIP3   OH236645   4.377   1.255   3.447 -0.4626  0.2142 -0.6169
 5077TIP3    H136646   4.467   1.257   3.481 -0.1219 -0.6731 -1.4486
 5077TIP3    H236647   4.360   1.162   3.430 -1.9301  0.2455  0.5537
 5078TIP3   OH236648   0.857   5.885  11.537  0.5549  0.7074 -0.1772
 5078TIP3    H136649   0.840   5.905  11.628 -1.4231 -0.6836 -0.2306
 5078TIP3    H236650   0.953   5.888  11.530  0.7631  0.2089  2.0664
 5079TIP3   OH236651   6.193   3.946  12.086  0.3111  0.4634  0.3738
 5079TIP3    H136652   6.134   3.894  12.031  2.6410 -1.2352 -0.5682
 5079TIP3    H236653   6.210   4.025  12.034  0.1682  0.2184 -0.0540
 5080TIP3   OH236654   5.805   0.261  13.578  0.1754 -0.6115  0.3598
 5080TIP3    H136655   5.897   0.248  13.555  0.1939 -0.9288  0.6103
 5080TIP3    H236656   5.769   0.313  13.506  1.1936  1.7735  1.5387
 5081TIP3   OH236657   2.695   1.927   5.750 -0.1849 -0.4174 -0.5914
 5081TIP3    H136658   2.647   1.969   5.678 -2.7437 -4.4060 -1.3977
 5081TIP3    H236659   2.660   1.969   5.829 -1.1843  0.3999 -1.4456
 5082TIP3   OH236660   6.003   3.379  15.081 -0.0665  0.1834  0.3217
 5082TIP3    H136661   5.963   3.408  15.162 -1.8063 -1.1577 -0.0128
 5082TIP3    H236662   6.095   3.368  15.102 -0.4901 -0.1192  2.1199
 5083TIP3   OH236663   1.836   3.779  13.834 -0.5216 -0.1938 -0.2433
 5083TIP3    H136664   1.791   3.695  13.830  1.5922 -1.5094  1.8370
 5083TIP3    H236665   1.864   3.796  13.744  0.1034 -2.3519 -0.4877
 5084TIP3   OH236666   0.610   1.483   1.282 -0.2978  0.1744 -0.4447
 5084TIP3    H136667   0.588   1.513   1.194  0.5338  1.3048 -0.2735
 5084TIP3    H236668   0.664   1.552   1.319  0.5734 -0.9478  0.4377
 5085TIP3   OH236669   5.203   5.767  14.327  0.1352 -0.3007 -0.4940
 5085TIP3    H136670   5.217   5.821  14.405 -0.6954 -2.3000  1.0835
 5085TIP3    H236671   5.290   5.730  14.308  0.2229 -0.2609 -0.1724
 5086TIP3   OH236672   4.486   6.466   4.047 -0.3747 -0.9050 -0.1168
 5086TIP3    H136673   4.498   6.414   4.126 -4.8082 -3.8312 -1.1512
 5086TIP3    H236674   4.532   6.417   3.978 -1.7122 -1.7028 -0.4595
 5087TIP3   OH236675   2.555   0.659  16.292 -0.8504  0.2978 -0.1956
 5087TIP3    H136676   2.614   0.678  16.365  0.9311  0.2496 -1.6036
 5087TIP3    H236677   2.515   0.574  16.314 -1.0168  0.7147  1.1333
 5088TIP3   OH236678   4.315   4.811  14.932 -0.0809 -0.5040 -0.4290
 5088TIP3    H136679   4.263   4.778  14.859  0.1116  0.7833 -1.1524
 5088TIP3    H236680   4.257   4.872  14.977  0.3638 -0.0318 -0.4903
 5089TIP3   OH236681   2.636   3.226   0.992 -0.1677 -0.4063  0.7067
 5089TIP3    H136682   2.600   3.199   0.908  0.9386 -2.2401  0.7667
 5089TIP3    H236683   2.721   3.180   0.997 -0.0474 -0.0237  2.6317
 5090TIP3   OH236684   2.844   5.895  14.749 -0.5685  0.2337  0.3905
 5090TIP3    H136685   2.934   5.878  14.778 -0.6827  0.5243  0.9211
 5090TIP3    H236686   2.853   5.967  14.686 -0.2982 -0.5391 -0.4753
 5091TIP3   OH236687   3.930   1.381   3.409 -0.0814  0.1339  0.3311
 5091TIP3    H136688   3.963   1.460   3.365  0.7199 -1.1779 -1.4736
 5091TIP3    H236689   3.935   1.313   3.342 -0.1169 -1.6147  2.0884
 5092TIP3   OH236690   6.518   1.933  16.737 -0.8375 -0.6223  0.2458
 5092TIP3    H136691   6.572   2.012  16.732 -1.3993 -0.3077 -1.2293
 5092TIP3    H236692   6.574   1.869  16.781  0.0040  0.2973  0.5400
 5093TIP3   OH236693   2.642   5.005   1.236  0.9102 -0.0649 -0.1403
 5093TIP3    H136694   2.720   5.015   1.291  1.8164 -0.5234 -1.3042
 5093TIP3    H236695   2.605   5.093   1.228  0.9989  0.0628  0.8711
 5094TIP3   OH236696   4.167   3.872   6.006 -0.5756 -0.2961 -0.6981
 5094TIP3    H136697   4.141   3.893   6.095 -0.2516 -0.0079 -0.6724
 5094TIP3    H236698   4.151   3.952   5.956 -2.5661 -1.0152 -1.3003
 5095TIP3   OH236699   4.668   3.607  16.285  0.4248  0.2754  0.5438
 5095TIP3    H136700   4.750   3.656  16.294  0.5889  0.1032  0.0076
 5095TIP3    H236701   4.644   3.583  16.374  0.9330  0.3705  0.7054
 5096TIP3   OH236702   0.731   1.324  12.048 -0.1087 -0.4123 -0.2678
 5096TIP3    H136703   0.694   1.235  12.053  0.0179 -0.5008 -0.9313
 5096TIP3    H236704   0.682   1.367  11.979  1.1556 -0.5911 -1.2877
 5097TIP3   OH236705   6.105   6.124  15.583  0.3179 -0.2593 -0.4549
 5097TIP3    H136706   6.124   6.190  15.650 -0.4656  2.4359 -2.7957
 5097TIP3    H236707   6.010   6.115  15.584  0.2002  0.6155 -1.9015
 5098TIP3   OH236708   2.468   5.491   2.224  0.4688  0.3755 -0.5802
 5098TIP3    H136709   2.554   5.508   2.185  0.1655  0.8053 -1.0671
 5098TIP3    H236710   2.407   5.541   2.170  0.1999  2.0899  1.2762
 5099TIP3   OH236711   4.412   1.328   1.019 -0.1935 -0.0960 -0.6005
 5099TIP3    H136712   4.373   1.412   1.043 -0.4930 -0.0762 -1.1473
 5099TIP3    H236713   4.417   1.280   1.102  0.8493  0.8101 -0.1291
 5100TIP3   OH236714   3.726   6.174   0.369  0.0692  0.2373  0.2969
 5100TIP3    H136715   3.649   6.179   0.312  0.1521 -1.8698 -0.0186
 5100TIP3    H236716   3.801   6.173   0.308  0.2245 -0.4779  0.5011
 5101TIP3   OH236717   4.094   5.634   5.620  0.4618 -0.3475 -0.4113
 5101TIP3    H136718   4.093   5.726   5.648 -1.6369 -0.2089 -0.8127
 5101TIP3    H236719   4.070   5.585   5.699  2.1149 -0.6148 -0.0592
 5102TIP3   OH236720   2.284   5.453   3.729 -0.4247  0.2186 -0.2113
 5102TIP3    H136721   2.279   5.549   3.730  0.2868  0.2767  2.0274
 5102TIP3    H236722   2.314   5.430   3.817  0.3823 -2.0203 -1.0297
 5103TIP3   OH236723   4.742   6.015  12.566 -0.1665 -0.0404 -0.3446
 5103TIP3    H136724   4.719   5.942  12.624  1.5701  0.3207  0.8251
 5103TIP3    H236725   4.658   6.045  12.532 -0.9847 -2.0285 -0.1755
 5104TIP3   OH236726   3.196   0.550   1.452 -0.8621  0.5792  0.2983
 5104TIP3    H136727   3.187   0.619   1.386 -0.6902  0.5979  0.2932
 5104TIP3    H236728   3.290   0.542   1.466 -0.8601  0.1162  0.0558
 5105TIP3   OH236729   1.018   2.073  14.951 -0.0226  0.1007 -0.7285
 5105TIP3    H136730   1.039   2.081  15.044  0.0930  1.0510 -0.8344
 5105TIP3    H236731   0.929   2.108  14.944 -0.2291 -0.4472 -0.8978
 5106TIP3   OH236732   4.382   2.598   0.432  0.1929  0.0643  0.2565
 5106TIP3    H136733   4.385   2.509   0.397 -0.0385  0.4310 -0.7111
 5106TIP3    H236734   4.306   2.638   0.389 -0.8467  0.1302  2.1325
 5107TIP3   OH236735   0.209   5.747   3.234 -0.1121 -0.3111 -0.1376
 5107TIP3    H136736   0.145   5.677   3.222  0.3484 -1.0538  1.4783
 5107TIP3    H236737   0.273   5.734   3.164  0.0194 -1.5732  0.2117
 5108TIP3   OH236738   0.694   2.491  11.599  0.8113  0.0610  0.4807
 5108TIP3    H136739   0.776   2.537  11.579 -0.3968  1.2292 -1.9933
 5108TIP3    H236740   0.722   2.410  11.642  3.2458  0.5687 -0.0585
 5109TIP3   OH236741   2.732   6.043  12.848  0.0028 -0.4621 -0.0675
 5109TIP3    H136742   2.705   5.954  12.827 -0.8215 -0.3621  0.5485
 5109TIP3    H236743   2.652   6.087  12.876  0.4766  0.3591  0.0200
 5110TIP3   OH236744   1.206   1.751  16.118 -0.0832 -0.6603  0.0209
 5110TIP3    H136745   1.120   1.766  16.079  0.0664 -1.0717 -0.4730
 5110TIP3    H236746   1.266   1.798  16.059 -0.0746  0.5093  0.9426
 5111TIP3   OH236747   4.321   0.021   0.348  0.5817 -0.3820  0.0579
 5111TIP3    H136748   4.307   0.031   0.254 -0.0529 -0.2327  0.1687
 5111TIP3    H236749   4.330  -0.074   0.360  0.6400 -0.4037 -0.1488
 5112TIP3   OH236750   4.311   1.394  15.932  0.1147 -0.1114  0.0946
 5112TIP3    H136751   4.280   1.343  15.857  0.9145 -0.9027  0.2936
 5112TIP3    H236752   4.284   1.343  16.009  0.5019  0.0010  0.3065
 5113TIP3   OH236753   5.265   1.744  15.032 -0.1567  0.0226 -0.4069
 5113TIP3    H136754   5.288   1.744  14.939 -0.1745  0.6454 -0.4142
 5113TIP3    H236755   5.336   1.792  15.074  0.7105 -1.6985  0.1229
 5114TIP3   OH236756   2.817   0.713   4.167  0.1599  0.3755 -0.0447
 5114TIP3    H136757   2.782   0.800   4.151  0.5325  0.6359  0.5550
 5114TIP3    H236758   2.903   0.713   4.124  0.2683  0.3833  0.1744
 5115TIP3   OH236759   2.384   2.707   0.857  0.9699 -0.5298 -0.0439
 5115TIP3    H136760   2.347   2.791   0.885 -0.8050 -1.1507 -0.4328
 5115TIP3    H236761   2.323   2.641   0.891  1.9779 -1.6302 -0.3127
 5116TIP3   OH236762   2.732   1.127  10.771  0.3327  0.0556  0.0852
 5116TIP3    H136763   2.744   1.172  10.688  2.1340 -0.6570 -0.0471
 5116TIP3    H236764   2.644   1.089  10.765  1.1462 -1.5189 -2.2166
 5117TIP3   OH236765   2.879   5.784  15.099 -0.4775 -0.4391  0.0522
 5117TIP3    H136766   2.912   5.809  15.186 -1.1520  0.1695  0.1394
 5117TIP3    H236767   2.888   5.688  15.097  1.1581 -0.2892  0.1180
 5118TIP3   OH236768   1.355   2.146  12.480  0.0299  0.3498  0.0692
 5118TIP3    H136769   1.418   2.132  12.409  0.7738  1.1277  0.5576
 5118TIP3    H236770   1.392   2.219  12.530 -0.8430  0.2641  0.8515
 5119TIP3   OH236771   0.011   2.823   0.084  0.1645 -0.6086  0.3248
 5119TIP3    H136772   0.094   2.826   0.037  0.0753 -0.0581  0.2089
 5119TIP3    H236773  -0.055   2.849   0.020  0.0282  0.0402  0.7188
 5120TIP3   OH236774   1.812   6.665  17.141  0.0686 -0.6912 -0.2928
 5120TIP3    H136775   1.752   6.694  17.210 -1.7036  0.7467 -2.3582
 5120TIP3    H236776   1.892   6.641  17.187 -1.5992 -1.2759  2.4092
 5121TIP3   OH236777   1.765   1.650  14.467  0.1245 -0.6968  0.7343
 5121TIP3    H136778   1.819   1.630  14.543 -0.0307 -0.2225  0.9742
 5121TIP3    H236779   1.768   1.571  14.413  1.0020 -0.6920  0.7768
 5122TIP3   OH236780   2.751   2.349   1.969  0.3891 -0.0850 -0.2447
 5122TIP3    H136781   2.709   2.422   2.014  0.6885  0.3667 -0.6879
 5122TIP3    H236782   2.785   2.387   1.888  0.1163 -0.8223 -0.7129
 5123TIP3   OH236783   4.238   5.800  16.880  0.0885  0.6534  0.6789
 5123TIP3    H136784   4.240   5.705  16.872 -1.6322  0.6157  0.4936
 5123TIP3    H236785   4.306   5.831  16.820 -0.9367 -0.3724 -1.0722
 5124TIP3   OH236786   3.491   2.312   5.209 -0.4671  0.1634  0.3801
 5124TIP3    H136787   3.504   2.377   5.279 -1.5675  0.8865 -0.0719
 5124TIP3    H236788   3.462   2.233   5.254 -1.7633  0.8092  0.6960
 5125TIP3   OH236789   5.794   5.637   1.234 -0.4747  0.1487 -0.2557
 5125TIP3    H136790   5.740   5.561   1.217  0.7723 -0.5527 -1.1495
 5125TIP3    H236791   5.749   5.710   1.191 -1.3453 -0.1944  0.0764
 5126TIP3   OH236792   5.874   4.782  14.894  0.2749  0.3189 -0.7967
 5126TIP3    H136793   5.837   4.742  14.972  0.4384 -0.1481 -0.9564
 5126TIP3    H236794   5.843   4.873  14.897 -0.9686 -0.0799 -0.9736
 5127TIP3   OH236795   6.120   0.629  12.665 -0.2933  0.3529  0.0342
 5127TIP3    H136796   6.072   0.547  12.662 -0.7465  0.6595 -1.2558
 5127TIP3    H236797   6.197   0.610  12.719 -0.6339 -0.7847  0.1210
 5128TIP3   OH236798   6.021   3.278  10.712  0.0986 -0.3489 -0.1956
 5128TIP3    H136799   6.107   3.236  10.713  1.2542  1.9177  0.9108
 5128TIP3    H236800   6.009   3.307  10.622  1.0427  0.3609 -0.1034
 5129TIP3   OH236801   3.929   3.302  16.473  0.3060  0.6554  0.5548
 5129TIP3    H136802   4.013   3.301  16.427  0.0279  1.1344  0.0396
 5129TIP3    H236803   3.952   3.287  16.565  0.9415  0.6454  0.3976
 5130TIP3   OH236804   4.396   4.474  15.854 -0.0154  1.0526 -0.1804
 5130TIP3    H136805   4.399   4.468  15.759  1.9495  3.2313 -0.3097
 5130TIP3    H236806   4.472   4.423  15.883 -0.3232  0.8111  0.2053
 5131TIP3   OH236807   2.533   1.797  15.601  0.1622  0.7566 -0.6325
 5131TIP3    H136808   2.619   1.766  15.627 -0.0773  0.9289  0.3745
 5131TIP3    H236809   2.541   1.813  15.507  0.5023 -1.6148 -1.0179
 5132TIP3   OH236810   1.250   0.252   4.675  0.2296  0.2290 -0.3364
 5132TIP3    H136811   1.311   0.317   4.712  0.9598  0.7378 -2.3926
 5132TIP3    H236812   1.179   0.305   4.638 -0.4716 -0.2741  0.2871
 5133TIP3   OH236813   3.402   2.336  11.436 -0.6882 -0.2802  0.0214
 5133TIP3    H136814   3.330   2.305  11.491 -0.8178 -1.0676 -0.5729
 5133TIP3    H236815   3.376   2.311  11.347  0.8506 -1.6611 -0.0675
 5134TIP3   OH236816   3.566   4.860   3.775  0.0078  0.1408  0.2081
 5134TIP3    H136817   3.635   4.796   3.794  0.3722  0.4517 -0.0601
 5134TIP3    H236818   3.592   4.898   3.691 -1.1091 -0.5904 -0.4921
 5135TIP3   OH236819   3.305   0.537   0.793  0.7838  0.3212 -0.4541
 5135TIP3    H136820   3.338   0.612   0.844 -2.6888  0.3105  1.9727
 5135TIP3    H236821   3.316   0.462   0.852 -2.2550  0.1196 -0.0741
 5136TIP3   OH236822   5.136   0.999  12.738 -0.5864 -0.8930  0.4786
 5136TIP3    H136823   5.135   0.954  12.822 -1.0971 -1.6777  0.0657
 5136TIP3    H236824   5.050   0.980  12.700 -1.4696  1.8853  1.0418
 5137TIP3   OH236825   2.767   6.691   0.125 -0.1323 -0.5683  0.0862
 5137TIP3    H136826   2.844   6.659   0.079 -1.1144 -2.4313 -0.3104
 5137TIP3    H236827   2.719   6.743   0.060 -0.8031 -2.0270 -0.6033
 5138TIP3   OH236828   2.936   1.845   0.447  0.0888 -0.9353  0.1143
 5138TIP3    H136829   2.879   1.770   0.433  0.8478 -1.8386  1.6719
 5138TIP3    H236830   2.921   1.870   0.538  1.8828 -0.9659  0.4398
 5139TIP3   OH236831   4.236   4.955  12.671  0.1763 -0.5187  0.3167
 5139TIP3    H136832   4.317   4.935  12.719  0.3008 -2.6811 -0.7407
 5139TIP3    H236833   4.180   4.878  12.686 -0.8117 -0.0255 -0.8063
 5140TIP3   OH236834   6.761   5.373  13.624  0.6700  0.6804  0.1035
 5140TIP3    H136835   6.810   5.441  13.670  2.2117 -1.5569  1.8309
 5140TIP3    H236836   6.733   5.415  13.542  1.6023  3.3619  1.1185
 5141TIP3   OH236837   0.369   1.924   6.322  0.6726  0.4585  0.1703
 5141TIP3    H136838   0.303   1.987   6.350  2.1803  1.8407  0.6955
 5141TIP3    H236839   0.337   1.839   6.354 -1.0024  1.0401  0.0947
 5142TIP3   OH236840   0.473   3.024  11.865 -0.4692  0.2777  0.0470
 5142TIP3    H136841   0.535   3.046  11.934 -2.3540  2.3016  1.1890
 5142TIP3    H236842   0.489   3.090  11.797 -1.2979  0.7648  0.3177
 5143TIP3   OH236843   3.695   2.935  12.914  0.2624 -0.1200 -0.1112
 5143TIP3    H136844   3.726   2.986  12.989 -0.1741  0.4520 -0.3101
 5143TIP3    H236845   3.631   2.992  12.871  0.8516 -0.2620 -1.1910
 5144TIP3   OH236846   3.969   3.669   5.857 -0.2112 -0.2288 -0.2086
 5144TIP3    H136847   4.023   3.744   5.834 -0.1210 -0.6590 -1.4950
 5144TIP3    H236848   3.889   3.707   5.892 -0.1946  0.4826 -0.9145
 5145TIP3   OH236849   4.810   5.038  12.560 -0.3468 -0.5564  0.1063
 5145TIP3    H136850   4.852   5.047  12.645 -0.8445 -1.7208  0.4826
 5145TIP3    H236851   4.758   4.958  12.567 -0.4492 -0.6285 -1.2615
 5146TIP3   OH236852   4.495   6.594   1.188  0.0948 -0.4362  0.0195
 5146TIP3    H136853   4.425   6.611   1.251  1.4000  0.9065  1.1606
 5146TIP3    H236854   4.559   6.542   1.237  1.9411  2.1009  0.3684
 5147TIP3   OH236855   0.023   3.902  13.815 -0.7672 -0.3635 -0.0991
 5147TIP3    H136856   0.079   3.832  13.781  0.4505 -0.2214  1.5477
 5147TIP3    H236857   0.022   3.968  13.745 -0.1176 -1.0460 -0.7561
 5148TIP3   OH236858   4.881   2.408  15.116 -0.3119 -0.3492  0.3315
 5148TIP3    H136859   4.938   2.481  15.089 -1.9005  0.8455  0.1585
 5148TIP3    H236860   4.938   2.353  15.169  0.5636  1.7682  1.6672
 5149TIP3   OH236861   4.449   4.118   2.093 -0.6307  0.6767  0.3369
 5149TIP3    H136862   4.371   4.171   2.080 -0.5707  0.1915 -2.3359
 5149TIP3    H236863   4.450   4.058   2.018  1.7510  0.0063  0.8543
 5150TIP3   OH236864   1.455   1.666   4.379 -0.1906  0.0948  0.0384
 5150TIP3    H136865   1.480   1.649   4.289 -0.1866 -2.5357  0.4931
 5150TIP3    H236866   1.525   1.627   4.432 -1.2363 -0.2474  1.1994
 5151TIP3   OH236867   1.432   5.896  10.844 -0.3856  0.1768  0.1875
 5151TIP3    H136868   1.513   5.851  10.867 -0.3486 -0.9360 -2.0100
 5151TIP3    H236869   1.363   5.837  10.875 -0.3486 -0.1612 -0.3745
 5152TIP3   OH236870   1.668   4.743  16.271 -0.7649  0.4608 -0.2231
 5152TIP3    H136871   1.665   4.835  16.247 -0.7173  0.0828 -1.7568
 5152TIP3    H236872   1.591   4.729  16.327 -0.3253  1.5915  0.6845
 5153TIP3   OH236873   4.663   4.816  16.460 -0.5640 -0.2988 -0.5172
 5153TIP3    H136874   4.702   4.764  16.530 -0.6181  0.1432 -0.1559
 5153TIP3    H236875   4.652   4.754  16.388 -0.5362 -0.7642 -0.1269
 5154TIP3   OH236876   5.039   3.978   2.215 -0.0033  0.3168  0.1878
 5154TIP3    H136877   5.108   4.030   2.255  0.8960  0.2939 -1.3065
 5154TIP3    H236878   4.989   4.040   2.162 -0.7126  0.2014  0.7134
 5155TIP3   OH236879   2.493   1.807   2.529 -0.2571 -0.2354  0.5378
 5155TIP3    H136880   2.575   1.758   2.523  0.2775  0.8951 -1.9306
 5155TIP3    H236881   2.516   1.886   2.577 -0.0015 -0.1029  0.1951
 5156TIP3   OH236882   4.099   5.570   3.478 -0.0729  0.1934  0.8559
 5156TIP3    H136883   4.175   5.511   3.477 -0.1123  0.1310 -0.8357
 5156TIP3    H236884   4.025   5.513   3.456 -0.3909  0.5266  1.0665
 5157TIP3   OH236885   1.589   6.776   0.036 -0.2497 -1.0898  0.1270
 5157TIP3    H136886   1.573   6.871   0.032  0.1590 -0.9639  1.4154
 5157TIP3    H236887   1.591   6.756   0.129  0.4248 -2.2399 -0.1317
 5158TIP3   OH236888   1.705   4.278   3.469  0.4698 -0.2819  0.0713
 5158TIP3    H136889   1.768   4.226   3.420  0.7197 -0.5565  0.6828
 5158TIP3    H236890   1.695   4.232   3.552  0.2346  0.3176  0.3780
 5159TIP3   OH236891   4.663   5.983  16.287 -0.1455 -0.2350 -0.0009
 5159TIP3    H136892   4.716   5.974  16.209  1.1155 -1.4698  0.9743
 5159TIP3    H236893   4.676   6.074  16.315 -0.8609  0.3100 -1.3698
 5160TIP3   OH236894   1.446   3.891   0.420 -0.1528 -0.5807  0.4029
 5160TIP3    H136895   1.432   3.985   0.408 -0.2342 -0.5808  0.4982
 5160TIP3    H236896   1.462   3.857   0.332 -0.2357 -0.4957  0.3562
 5161TIP3   OH236897   2.074   4.647  15.127 -0.0726  0.6662  0.4061
 5161TIP3    H136898   2.003   4.710  15.109 -1.0019 -0.1881  1.0262
 5161TIP3    H236899   2.030   4.574  15.171  0.9354 -0.5782 -0.6142
 5162TIP3   OH236900   0.042   5.700   0.205 -0.1109  0.5553  0.1071
 5162TIP3    H136901   0.037   5.660   0.118  0.5735  0.7022  0.0034
 5162TIP3    H236902   0.116   5.760   0.200  0.7431 -0.3883  1.1746
 5163TIP3   OH236903   0.403   6.155   0.963  0.2401  0.3435 -0.2176
 5163TIP3    H136904   0.357   6.071   0.966 -0.4367  0.7633  1.8139
 5163TIP3    H236905   0.495   6.131   0.974  0.2760 -0.2752 -1.6761
 5164TIP3   OH236906   4.886   3.764   2.140  0.2625 -0.0557  0.2327
 5164TIP3    H136907   4.939   3.834   2.179 -1.0584  0.4334  1.1592
 5164TIP3    H236908   4.951   3.700   2.111  1.3524  0.0674  2.2410
 5165TIP3   OH236909   6.667   2.249   0.571 -0.8740 -0.0401 -0.0982
 5165TIP3    H136910   6.638   2.340   0.559 -1.7429 -0.5319 -1.8386
 5165TIP3    H236911   6.632   2.224   0.656  0.6740  1.7458  1.1039
 5166TIP3   OH236912   2.623   3.796   3.369 -0.1258 -0.7345 -0.0434
 5166TIP3    H136913   2.637   3.830   3.457 -0.3763 -0.5361 -0.0793
 5166TIP3    H236914   2.528   3.795   3.358 -0.1103 -1.1428 -0.1601
 5167TIP3   OH236915   5.371   1.446  16.110 -0.3256 -0.4584  0.6838
 5167TIP3    H136916   5.405   1.518  16.164  0.7193 -0.4261 -0.0170
 5167TIP3    H236917   5.444   1.385  16.102 -0.3637 -0.3190 -0.9385
 5168TIP3   OH236918   1.759   0.892  11.772 -0.0451 -0.3708 -0.1089
 5168TIP3    H136919   1.666   0.911  11.781 -0.0300  1.2495 -2.6336
 5168TIP3    H236920   1.766   0.797  11.783 -1.6380 -0.2416  2.3930
 5169TIP3   OH236921   4.762   4.372  16.657  0.2263 -0.7574  0.4556
 5169TIP3    H136922   4.831   4.435  16.637 -0.8824  0.2889 -0.1756
 5169TIP3    H236923   4.692   4.425  16.695 -1.5067 -1.3150 -1.8922
 5170TIP3   OH236924   6.168   0.726  14.435 -0.5995  0.2995  0.3525
 5170TIP3    H136925   6.200   0.643  14.398 -2.4934 -0.9553  1.4308
 5170TIP3    H236926   6.073   0.716  14.437 -0.6795  1.2144  3.4690
 5171TIP3   OH236927   1.727   5.178   5.359  0.3608  0.3533 -0.0994
 5171TIP3    H136928   1.701   5.126   5.283 -0.2455  0.5868 -0.0570
 5171TIP3    H236929   1.720   5.269   5.329  1.5099  0.4037 -0.2032
 5172TIP3   OH236930   2.623   6.122  16.304  0.0243 -0.0210 -0.0667
 5172TIP3    H136931   2.548   6.107  16.363 -0.0109  1.8682  0.3935
 5172TIP3    H236932   2.598   6.078  16.223  0.3279 -3.2201  1.4648
 5173TIP3   OH236933   0.328   4.374   0.961 -0.3462 -0.2728 -0.8775
 5173TIP3    H136934   0.377   4.453   0.938 -1.2739 -0.1472 -2.5679
 5173TIP3    H236935   0.364   4.346   1.045  2.4513 -0.0668 -1.9605
 5174TIP3   OH236936   0.187   1.500   2.648 -0.0289 -0.1904  0.3210
 5174TIP3    H136937   0.258   1.524   2.589 -0.5425  0.0083 -0.2162
 5174TIP3    H236938   0.111   1.487   2.591 -1.1910  2.5758  1.1494
 5175TIP3   OH236939   6.513   4.431  13.682 -0.1778  0.2849  0.0516
 5175TIP3    H136940   6.439   4.382  13.644  0.3543 -2.4235  2.3738
 5175TIP3    H236941   6.588   4.407  13.628 -0.2412 -0.1351  0.1493
 5176TIP3   OH236942   5.841   5.109  12.091  0.4246  0.1582  0.1339
 5176TIP3    H136943   5.874   5.164  12.021 -0.4173  1.1503  0.4952
 5176TIP3    H236944   5.915   5.098  12.151  0.4433  1.3630  0.3346
 5177TIP3   OH236945   0.636   5.236   2.613 -0.3102  0.5936 -0.1082
 5177TIP3    H136946   0.627   5.175   2.540  0.1559  0.3715  0.0150
 5177TIP3    H236947   0.725   5.272   2.604 -1.2412  2.7077 -1.2923
 5178TIP3   OH236948   0.957   2.338  14.712  0.3029 -0.5098 -0.3038
 5178TIP3    H136949   1.042   2.293  14.719  0.2757 -0.4818  0.2083
 5178TIP3    H236950   0.964   2.412  14.771  0.4479  0.3338 -1.3704
 5179TIP3   OH236951   3.838   6.046   2.656  0.3297  0.0469  0.6561
 5179TIP3    H136952   3.842   6.119   2.718 -0.3265  0.0563  0.6949
 5179TIP3    H236953   3.744   6.032   2.642  0.4749  0.2138 -0.5294
 5180TIP3   OH236954   0.362   4.564  13.021  0.4781 -0.2373  0.6939
 5180TIP3    H136955   0.439   4.508  13.034  0.7122 -0.2450 -0.5831
 5180TIP3    H236956   0.398   4.652  13.011  0.3393 -0.2528  0.0158
 5181TIP3   OH236957   4.813   3.518  16.801  0.2372 -0.3420  0.5646
 5181TIP3    H136958   4.839   3.595  16.850  1.6088 -1.4123  1.5488
 5181TIP3    H236959   4.747   3.475  16.857  1.2140 -1.1330  1.1278
 5182TIP3   OH236960   6.051   3.664  10.507 -0.5114  0.5027 -0.2589
 5182TIP3    H136961   6.140   3.627  10.508 -0.3780  0.8066  2.1542
 5182TIP3    H236962   6.022   3.657  10.598 -1.9612  2.8432 -0.5252
 5183TIP3   OH236963   0.716   0.914  13.230  0.1995 -0.1154 -0.2618
 5183TIP3    H136964   0.647   0.867  13.183  1.1328 -1.6649 -0.1067
 5183TIP3    H236965   0.761   0.846  13.280  0.3732  1.2472  1.4643
 5184TIP3   OH236966   5.271   6.563  13.260 -0.1880  0.5382  0.3165
 5184TIP3    H136967   5.186   6.538  13.225  0.2531  0.2409 -0.5555
 5184TIP3    H236968   5.333   6.544  13.190  0.4739  1.7399  0.5484
 5185TIP3   OH236969   1.686   4.122   0.239 -0.3567 -0.3413  0.3433
 5185TIP3    H136970   1.734   4.198   0.206  2.0543 -1.5262  0.9912
 5185TIP3    H236971   1.700   4.123   0.333 -3.1893  0.2983  0.8024
 5186TIP3   OH236972   1.482   0.294   1.024  0.5349 -0.0959  0.0700
 5186TIP3    H136973   1.576   0.312   1.018  0.2050  2.0977  0.7450
 5186TIP3    H236974   1.443   0.354   0.960 -0.4352 -0.5576  0.2283
 5187TIP3   OH236975   3.509   6.706   2.754 -0.1231  0.1884 -0.2248
 5187TIP3    H136976   3.570   6.740   2.688  0.2866 -0.2268 -0.0653
 5187TIP3    H236977   3.541   6.744   2.837 -0.3776  0.3657 -0.2085
 5188TIP3   OH236978   5.453   1.436   5.603 -0.3800 -0.4293  0.1274
 5188TIP3    H136979   5.423   1.355   5.562  0.3148 -1.1589  1.0308
 5188TIP3    H236980   5.527   1.464   5.550 -0.4715 -0.5144 -0.0440
 5189TIP3   OH236981   0.971   1.969  16.899 -0.3698  0.6549 -0.2707
 5189TIP3    H136982   0.884   1.988  16.935 -1.0598  0.6320 -1.8587
 5189TIP3    H236983   1.020   2.050  16.911 -1.3980  1.4963 -1.5545
 5190TIP3   OH236984   2.990   2.488   5.282 -0.1159  0.0695 -0.0760
 5190TIP3    H136985   2.934   2.443   5.345  0.2094  1.0157  0.8989
 5190TIP3    H236986   2.933   2.503   5.207  0.0893 -2.9895 -0.9128
 5191TIP3   OH236987   6.247   4.968   4.444  0.1966 -0.0566  0.1111
 5191TIP3    H136988   6.243   4.937   4.353 -1.2398 -1.6027  0.6665
 5191TIP3    H236989   6.159   5.001   4.462 -0.2706 -2.0664  1.7027
 5192TIP3   OH236990   0.335   0.472   6.584  0.3350 -0.5780 -0.1599
 5192TIP3    H136991   0.322   0.516   6.668  1.4599 -0.2495 -0.1428
 5192TIP3    H236992   0.424   0.496   6.558 -0.2470 -0.1069 -1.7928
 5193TIP3   OH236993   3.930   5.928   4.483  0.0801 -0.5305 -0.1136
 5193TIP3    H136994   3.949   5.835   4.472 -0.3330 -0.8556  1.6854
 5193TIP3    H236995   3.942   5.944   4.577 -0.7583  1.0120 -0.2454
 5194TIP3   OH236996   1.611   6.307  15.385  0.4857 -0.2358 -0.8921
 5194TIP3    H136997   1.521   6.282  15.407  0.5056  0.5984  0.1920
 5194TIP3    H236998   1.601   6.381  15.325  0.4581 -0.5698 -1.3082
 5195TIP3   OH236999   0.534   0.559  11.551 -0.1881  0.2809  0.2943
 5195TIP3    H137000   0.619   0.547  11.593 -1.3829 -1.1042  2.4280
 5195TIP3    H237001   0.486   0.618  11.610 -1.2168 -0.1018 -0.1475
 5196TIP3   OH237002   3.840   2.464  13.544  0.1161  0.1443  0.6720
 5196TIP3    H137003   3.872   2.418  13.622 -0.6013  1.7056  1.9396
 5196TIP3    H237004   3.762   2.416  13.517 -0.3387  0.2992  1.6797
 5197TIP3   OH237005   3.554   0.235  15.428 -0.2246 -0.1839 -0.0114
 5197TIP3    H137006   3.646   0.218  15.408 -0.1771  0.1135 -0.0611
 5197TIP3    H237007   3.510   0.153  15.411  0.0608 -0.3794  0.1864
 5198TIP3   OH237008   5.499   4.402  16.960  0.6481 -0.3478  0.1349
 5198TIP3    H137009   5.568   4.385  16.895 -0.7208  1.1191 -1.7391
 5198TIP3    H237010   5.491   4.497  16.962 -1.7808 -0.5237 -0.1790
 5199TIP3   OH237011   5.601   3.075  12.608  0.0715  0.1711 -0.2610
 5199TIP3    H137012   5.667   3.024  12.562 -0.4752 -0.7804 -0.0205
 5199TIP3    H237013   5.564   3.014  12.672  0.9719  1.5253  1.6107
 5200TIP3   OH237014   3.408   0.237  13.842  0.8246  0.0682 -0.0096
 5200TIP3    H137015   3.420   0.246  13.747 -1.4693  0.8049 -0.2527
 5200TIP3    H237016   3.378   0.323  13.871 -3.3183 -1.4400  0.5541
 5201TIP3   OH237017   1.505   1.815   4.990 -0.7250 -0.0046  0.3394
 5201TIP3    H137018   1.477   1.754   4.922  0.8251  0.0144 -0.3490
 5201TIP3    H237019   1.582   1.859   4.952 -0.3752  0.6425  1.7569
 5202TIP3   OH237020   0.242   5.073   0.079 -0.1148 -0.4124 -0.2202
 5202TIP3    H137021   0.311   5.101   0.019  0.0407 -1.5543 -0.5931
 5202TIP3    H237022   0.199   5.154   0.106  0.1166  0.1569 -1.5116
 5203TIP3   OH237023   4.534   5.155  14.226  0.1740  0.1873  0.5130
 5203TIP3    H137024   4.515   5.224  14.290  1.0132 -0.9236  1.9776
 5203TIP3    H237025   4.492   5.077  14.261  0.1257 -0.2970 -0.6148
 5204TIP3   OH237026   2.290   0.905  16.735 -0.0732 -0.4361  0.0209
 5204TIP3    H137027   2.364   0.964  16.725  0.2972 -0.9420 -0.2437
 5204TIP3    H237028   2.320   0.839  16.797 -0.7051  0.0095  0.8018
 5205TIP3   OH237029   1.610   3.785  12.491 -0.3451  0.1518  0.7069
 5205TIP3    H137030   1.582   3.724  12.559 -0.5820  2.0486  2.3460
 5205TIP3    H237031   1.531   3.803  12.440 -0.1820 -1.2193 -0.0518
 5206TIP3   OH237032   0.260   5.103  15.408 -0.3867  0.3371  0.1714
 5206TIP3    H137033   0.299   5.078  15.325 -0.1858  0.9068  0.0926
 5206TIP3    H237034   0.225   5.191  15.393  0.8446  0.9983  1.0691
 5207TIP3   OH237035   0.505   4.948  13.183 -0.1645 -0.1804 -0.0466
 5207TIP3    H137036   0.550   4.953  13.267  1.3474  0.6608 -0.8908
 5207TIP3    H237037   0.412   4.953  13.206  0.2374  0.4543  1.5433
 5208TIP3   OH237038   6.678   5.261  14.073  0.1988  0.7812 -0.4086
 5208TIP3    H137039   6.615   5.331  14.058  1.0306  1.8093  0.7693
 5208TIP3    H237040   6.679   5.211  13.991 -0.9155  1.7203 -1.0051
 5209TIP3   OH237041   2.420   3.765  16.257 -0.7281 -0.1046 -0.2901
 5209TIP3    H137042   2.488   3.832  16.247 -1.3418  0.6306  0.3670
 5209TIP3    H237043   2.374   3.789  16.337  0.0871 -2.2708  0.8600
 5210TIP3   OH237044   6.261   6.370   2.757 -0.0766 -0.5962  0.3934
 5210TIP3    H137045   6.217   6.362   2.842  0.2363  1.1057  0.7416
 5210TIP3    H237046   6.205   6.322   2.696 -1.3048 -0.2318  1.2217
 5211TIP3   OH237047   3.908   0.016  12.058 -0.1626 -0.3436  0.4954
 5211TIP3    H137048   3.824   0.059  12.037  0.0564  0.1969  0.7037
 5211TIP3    H237049   3.894  -0.076  12.037 -0.6024 -0.1460 -0.0876
 5212TIP3   OH237050   3.405   1.714   5.280  0.5257 -0.0139  0.0307
 5212TIP3    H137051   3.418   1.749   5.368 -1.8199  0.4898  0.2049
 5212TIP3    H237052   3.406   1.791   5.223  0.2084 -0.1514 -0.1632
 5213TIP3   OH237053   4.645   4.684  17.239  0.4558  0.0605 -0.4073
 5213TIP3    H137054   4.608   4.686  17.151  0.0653  1.9011 -0.2207
 5213TIP3    H237055   4.735   4.652  17.227  0.2977 -0.0230 -1.4166
 5214TIP3   OH237056   1.162   5.357   0.558 -0.2924 -0.0409 -0.1800
 5214TIP3    H137057   1.079   5.403   0.540 -0.5159 -0.6441 -0.6917
 5214TIP3    H237058   1.197   5.401   0.636 -2.4016 -1.5164  1.6459
 5215TIP3   OH237059   1.176   2.969  15.155 -0.6776 -0.0234  0.2533
 5215TIP3    H137060   1.082   2.953  15.153 -0.2952 -2.5352  0.4595
 5215TIP3    H237061   1.214   2.892  15.113  1.4060 -0.0910  2.2100
 5216TIP3   OH237062   0.222   4.246  14.780  0.6869 -0.1704 -0.1356
 5216TIP3    H137063   0.266   4.283  14.703 -2.6784  3.1083 -0.6679
 5216TIP3    H237064   0.164   4.179  14.745  0.3954  0.1626 -0.3057
 5217TIP3   OH237065   2.616   4.716   0.387  0.0927  0.2054  0.3347
 5217TIP3    H137066   2.541   4.763   0.348 -0.9273 -0.8715  0.9643
 5217TIP3    H237067   2.580   4.677   0.467  1.1421 -0.9715  0.2370
 5218TIP3   OH237068   5.537   5.443   1.838  0.4111 -0.0917 -0.3433
 5218TIP3    H137069   5.586   5.484   1.910 -0.7894  0.6459  0.0707
 5218TIP3    H237070   5.467   5.395   1.882 -0.9929  1.2548 -1.0614
 5219TIP3   OH237071   2.072   6.136   3.053 -0.1785 -0.0999 -1.0140
 5219TIP3    H137072   2.093   6.127   3.146 -0.6118  1.2821 -0.7681
 5219TIP3    H237073   2.136   6.199   3.020 -0.4301 -0.0967 -1.4983
 5220TIP3   OH237074   4.510   3.989   2.683 -0.0706  0.2231 -0.6460
 5220TIP3    H137075   4.455   3.974   2.606 -2.3824 -0.6329  1.0904
 5220TIP3    H237076   4.598   3.963   2.656 -0.8117  0.1099 -3.0288
 5221TIP3   OH237077   4.875   4.299  11.799 -0.2284  0.0608 -0.0023
 5221TIP3    H137078   4.894   4.214  11.759 -2.6648 -0.8384  0.6850
 5221TIP3    H237079   4.918   4.295  11.884 -1.1909 -0.8861  0.4477
 5222TIP3   OH237080   0.089   0.160   3.037 -0.0858  0.2454  0.5205
 5222TIP3    H137081   0.067   0.168   2.945  0.0614 -1.2843  0.3314
 5222TIP3    H237082   0.082   0.066   3.055  0.3795  0.4654  1.9330
 5223TIP3   OH237083   6.158   3.539   1.282  0.4969 -0.3050  0.6562
 5223TIP3    H137084   6.241   3.571   1.318  1.5318 -0.6159 -1.3745
 5223TIP3    H237085   6.179   3.516   1.191 -2.0995  0.6666 -0.2057
 5224TIP3   OH237086   6.035   1.935  13.725 -0.2092 -0.3904 -0.1659
 5224TIP3    H137087   6.106   1.952  13.662  0.3273  0.8482  0.7485
 5224TIP3    H237088   6.077   1.889  13.797 -0.1901  0.8255  0.6301
 5225TIP3   OH237089   0.519   1.464  16.349 -0.1719 -0.9159 -0.2420
 5225TIP3    H137090   0.491   1.412  16.424 -0.2944 -0.5423 -0.0291
 5225TIP3    H237091   0.540   1.400  16.281  0.4920 -1.2765  0.3003
 5226TIP3   OH237092   5.195   3.566  13.959  0.2896  0.1948  0.2165
 5226TIP3    H137093   5.243   3.640  13.997  1.5168 -0.2669 -0.4117
 5226TIP3    H237094   5.164   3.516  14.034  0.2835  0.8231  0.6374
 5227TIP3   OH237095   0.128   1.398  12.500 -0.2973 -0.0750 -0.7381
 5227TIP3    H137096   0.133   1.304  12.516 -1.0977 -0.1805 -1.0789
 5227TIP3    H237097   0.057   1.408  12.436 -0.7734  0.8270 -0.0829
 5228TIP3   OH237098   5.589   1.206   1.159 -0.0730  0.5231 -0.0752
 5228TIP3    H137099   5.593   1.144   1.232  1.1441  1.6410  0.8305
 5228TIP3    H237100   5.500   1.240   1.161 -1.7392 -3.2573 -2.3702
 5229TIP3   OH237101   3.460   6.518  10.629 -0.6683  0.3327 -0.5223
 5229TIP3    H137102   3.450   6.452  10.561 -0.9246  0.7730 -0.9208
 5229TIP3    H237103   3.370   6.546  10.648 -0.6426 -0.1784  0.3908
 5230TIP3   OH237104   6.638   3.423   4.587 -0.7159  0.4903  0.3380
 5230TIP3    H137105   6.654   3.505   4.632 -0.2765  0.3396  0.4591
 5230TIP3    H237106   6.665   3.355   4.649 -2.9856  0.1795  1.0332
 5231TIP3   OH237107   1.429   0.533   1.595 -0.3688  0.1035 -0.2427
 5231TIP3    H137108   1.368   0.518   1.668 -0.4948  0.7570 -0.2115
 5231TIP3    H237109   1.441   0.447   1.556 -2.2810  0.1412 -0.9988
 5232TIP3   OH237110   5.513   5.068  15.061  0.4021 -0.2199 -0.1277
 5232TIP3    H137111   5.539   5.154  15.026  0.4292  0.7066  2.0807
 5232TIP3    H237112   5.419   5.076  15.075  0.3307 -0.7075 -0.3476
 5233TIP3   OH237113   0.206   4.123   2.916 -0.1838 -0.4301 -0.5490
 5233TIP3    H137114   0.278   4.087   2.865 -0.1499  0.1738 -0.9360
 5233TIP3    H237115   0.147   4.161   2.851  1.3806  3.1309  0.0048
 5234TIP3   OH237116   5.784   5.547   3.445 -0.1459  0.1276 -0.2439
 5234TIP3    H137117   5.833   5.569   3.524  1.7377  0.4883 -1.4952
 5234TIP3    H237118   5.810   5.457   3.424 -1.0378 -0.1536 -0.1705
 5235TIP3   OH237119   3.695   1.632   0.694  0.2370  0.0331 -0.3465
 5235TIP3    H137120   3.626   1.693   0.722 -0.5493 -0.8436 -0.3370
 5235TIP3    H237121   3.765   1.688   0.662 -0.5374  0.9436 -0.4740
 5236TIP3   OH237122   5.766   3.491   6.294 -0.3769  0.3329  0.8414
 5236TIP3    H137123   5.765   3.582   6.266  0.8605 -0.0715 -0.5768
 5236TIP3    H237124   5.676   3.461   6.281 -0.4268  0.9014 -0.1961
 5237TIP3   OH237125   2.202   6.156   4.592  0.0415 -0.0079 -0.0650
 5237TIP3    H137126   2.230   6.067   4.610 -2.4534 -0.8822 -0.4436
 5237TIP3    H237127   2.180   6.192   4.678  2.2442  0.6978  0.2404
 5238TIP3   OH237128   4.720   6.318  10.257  0.2337  0.8415  0.2537
 5238TIP3    H137129   4.669   6.256  10.309 -1.0723 -0.1444 -2.1249
 5238TIP3    H237130   4.809   6.283  10.257 -0.5091 -1.0914 -1.1165
 5239TIP3   OH237131   6.568   3.608   2.592 -0.7996 -0.2799 -0.3084
 5239TIP3    H137132   6.518   3.590   2.672 -1.2946  0.1852 -0.5068
 5239TIP3    H237133   6.504   3.598   2.521 -0.4134 -0.4896 -0.6270
 5240TIP3   OH237134   2.654   3.810   5.675 -0.3884 -0.2385 -0.2885
 5240TIP3    H137135   2.739   3.814   5.720  0.1791 -3.7973 -0.9208
 5240TIP3    H237136   2.669   3.856   5.592 -0.0648  2.0888  1.0312
 5241TIP3   OH237137   1.857   2.218   1.798  0.7332  0.4569  0.8572
 5241TIP3    H137138   1.886   2.131   1.825 -1.5534 -0.3179  0.8938
 5241TIP3    H237139   1.825   2.259   1.878  1.4063  1.1936  0.7596
 5242TIP3   OH237140   3.477   4.081  12.863 -0.5228 -0.0446  0.0359
 5242TIP3    H137141   3.552   4.117  12.816 -0.5662  1.3630  0.9804
 5242TIP3    H237142   3.507   3.998  12.898  0.1499 -0.1416 -0.7712
 5243TIP3   OH237143   2.520   4.808  12.213  0.6503 -0.4661 -0.6915
 5243TIP3    H137144   2.458   4.741  12.185  0.4273 -1.2960  1.7035
 5243TIP3    H237145   2.495   4.828  12.303  1.2019  2.2944 -1.0986
 5244TIP3   OH237146   1.524   2.311   1.548  0.0472 -0.4486  0.1749
 5244TIP3    H137147   1.502   2.233   1.496 -2.2552 -0.2118  0.7596
 5244TIP3    H237148   1.484   2.295   1.633 -1.1463  1.7246  0.0587
 5245TIP3   OH237149   4.772   0.469   5.722  0.0267  0.3068 -0.3356
 5245TIP3    H137150   4.777   0.559   5.752  2.1152 -0.0545  0.4767
 5245TIP3    H237151   4.797   0.473   5.629  1.2820  0.4315 -0.0046
 5246TIP3   OH237152   1.314   0.701  16.813 -0.3109 -0.2008 -0.1412
 5246TIP3    H137153   1.346   0.694  16.723 -0.4126  0.9160 -0.2667
 5246TIP3    H237154   1.344   0.787  16.843  0.7534 -1.0410  1.2999
 5247TIP3   OH237155   6.146   6.543   1.569  0.7523 -0.0046 -0.0598
 5247TIP3    H137156   6.135   6.484   1.494  1.3742 -1.2591  0.8285
 5247TIP3    H237157   6.188   6.621   1.532  0.3502 -0.2975 -1.1567
 5248TIP3   OH237158   1.957   1.940  10.737  0.5445  0.3704  1.3313
 5248TIP3    H137159   2.037   1.943  10.788  0.3186  0.4657  1.6837
 5248TIP3    H237160   1.980   1.892  10.658  0.3243 -1.7538  2.5387
 5249TIP3   OH237161   1.655   4.265  12.837 -0.3706 -0.1386 -0.1871
 5249TIP3    H137162   1.711   4.304  12.770 -0.1335  0.6404  0.4438
 5249TIP3    H237163   1.686   4.176  12.847  0.5679  0.1987 -0.0631
 5250TIP3   OH237164   4.787   1.063  15.891  0.5221  0.1736  0.7842
 5250TIP3    H137165   4.701   1.086  15.856 -0.0963  0.2789  2.3484
 5250TIP3    H237166   4.841   1.049  15.813 -1.0460 -0.4667 -0.2242
 5251TIP3   OH237167   4.900   0.593  11.486  0.2268 -0.3805  0.2938
 5251TIP3    H137168   4.921   0.533  11.414 -1.0239 -1.2713  0.6627
 5251TIP3    H237169   4.985   0.619  11.521  0.9020  0.7488 -2.0519
 5252TIP3   OH237170   4.695   5.424   3.791 -0.3040 -0.0548 -0.5386
 5252TIP3    H137171   4.780   5.381   3.795 -0.3279 -0.0628 -0.1592
 5252TIP3    H237172   4.715   5.512   3.759 -0.2560 -0.3401 -1.3157
 5253TIP3   OH237173   3.226   1.983   1.557 -0.6236 -0.1063 -0.1185
 5253TIP3    H137174   3.153   1.936   1.597  0.1828 -2.6836 -1.6011
 5253TIP3    H237175   3.205   1.986   1.464  0.7719 -0.1066 -0.4397
 5254TIP3   OH237176   0.915   1.833   1.321 -0.4968 -0.4051  0.1279
 5254TIP3    H137177   0.960   1.881   1.252  0.5448 -0.2721  0.8838
 5254TIP3    H237178   0.874   1.901   1.375 -0.3353 -0.4388  0.2964
 5255TIP3   OH237179   2.238   0.819  13.928  0.6064 -0.1005  0.5313
 5255TIP3    H137180   2.317   0.806  13.876  1.0801  0.5760  1.0700
 5255TIP3    H237181   2.167   0.826  13.863  0.8379 -1.6706  0.0872
 5256TIP3   OH237182   5.189   2.351   1.184 -0.3102  0.5454  0.3420
 5256TIP3    H137183   5.244   2.392   1.251 -1.5143  1.5733  0.6928
 5256TIP3    H237184   5.163   2.422   1.126  0.3768 -0.2681 -1.0020
 5257TIP3   OH237185   2.584   0.109   1.155  0.2885 -0.8001  0.2430
 5257TIP3    H137186   2.583   0.018   1.186 -0.7520 -1.2544 -1.1302
 5257TIP3    H237187   2.587   0.103   1.060 -0.1853  0.6119  0.1204
 5258TIP3   OH237188   4.545   0.928  11.432 -0.0148  0.4647 -0.5688
 5258TIP3    H137189   4.493   0.848  11.443  0.1107  0.3256 -0.9783
 5258TIP3    H237190   4.630   0.897  11.399  1.2529  0.4276  2.5724
 5259TIP3   OH237191   6.089   0.884   5.619  0.0943  0.2286 -0.2011
 5259TIP3    H137192   6.055   0.860   5.705  2.6461 -1.2142  0.4514
 5259TIP3    H237193   6.020   0.857   5.558 -0.5143 -1.4235  1.1618
 5260TIP3   OH237194   4.006   0.865  14.675  0.2381 -0.2049  0.1244
 5260TIP3    H137195   3.958   0.831  14.751 -1.6551  1.2915 -0.3662
 5260TIP3    H237196   4.016   0.790  14.617  0.0477 -0.9331  1.0204
 5261TIP3   OH237197   4.266   2.848   2.991  0.2368 -0.1614  0.1948
 5261TIP3    H137198   4.262   2.821   2.899  3.2247  2.6753 -0.8503
 5261TIP3    H237199   4.174   2.848   3.019 -0.6346 -2.2979 -2.3654
 5262TIP3   OH237200   3.691   2.383  17.132  0.1643 -0.0034 -0.0448
 5262TIP3    H137201   3.714   2.379  17.040  1.3586 -1.5903  0.3176
 5262TIP3    H237202   3.595   2.379  17.133  0.1985 -1.1868 -1.1554
 5263TIP3   OH237203   4.220   4.667  12.621 -0.3970  0.4792 -0.1123
 5263TIP3    H137204   4.287   4.661  12.553 -1.5896  0.2385 -1.2820
 5263TIP3    H237205   4.267   4.649  12.703  0.7832 -0.5874 -1.0038
 5264TIP3   OH237206   0.821   0.922  10.697  0.6935  0.3238  0.2578
 5264TIP3    H137207   0.877   0.992  10.662  0.1507 -0.0027 -1.2898
 5264TIP3    H237208   0.766   0.966  10.761  0.4077  1.3148 -0.6492
 5265TIP3   OH237209   1.932   5.942  16.860 -0.9298 -0.3936  0.2327
 5265TIP3    H137210   1.934   5.886  16.783 -0.8610 -0.9770  0.6571
 5265TIP3    H237211   1.880   6.018  16.833 -2.7598 -1.6048  0.2879
 5266TIP3   OH237212   2.576   0.721   5.400 -0.5708 -0.1093  0.3167
 5266TIP3    H137213   2.609   0.678   5.320  0.3768  0.4122  0.4116
 5266TIP3    H237214   2.620   0.675   5.471  0.3942  0.9481  0.4211
 5267TIP3   OH237215   3.536   4.706  13.647 -0.4083 -0.6376  0.0800
 5267TIP3    H137216   3.452   4.664  13.666  0.0181 -1.1284  0.9019
 5267TIP3    H237217   3.513   4.783  13.594 -1.5068  0.1559  1.6845
 5268TIP3   OH237218   4.447   6.724  14.099  0.3020  0.8265 -0.8994
 5268TIP3    H137219   4.474   6.768  14.018  3.5923  0.9405  0.2120
 5268TIP3    H237220   4.507   6.650  14.108 -0.2513  0.6116  1.2866
 5269TIP3   OH237221   3.367   2.768   4.996  0.1229 -0.3132 -0.1603
 5269TIP3    H137222   3.281   2.761   5.036  0.6545 -3.1008  0.6431
 5269TIP3    H237223   3.417   2.826   5.054 -0.9024  0.5131 -0.0972
 5270TIP3   OH237224   1.555   3.240  16.807 -0.3924 -0.1263 -0.1777
 5270TIP3    H137225   1.499   3.303  16.762 -1.1258  0.5336  1.6231
 5270TIP3    H237226   1.495   3.172  16.839  0.3038 -1.3779 -1.4781
 5271TIP3   OH237227   0.808   3.498  15.483  0.0673 -0.0092  0.1252
 5271TIP3    H137228   0.753   3.525  15.557 -0.0107  0.0560  0.0449
 5271TIP3    H237229   0.784   3.407  15.468  1.5762 -0.6560  1.4927
 5272TIP3   OH237230   2.073   6.329  13.742  0.4343  0.0014 -0.3222
 5272TIP3    H137231   2.080   6.420  13.770  0.5570  0.5408 -2.0061
 5272TIP3    H237232   2.160   6.308  13.707  0.3884 -0.7342 -0.0063
 5273TIP3   OH237233   5.290   5.705   5.668 -0.0028 -0.0415 -0.1518
 5273TIP3    H137234   5.267   5.633   5.609 -0.4657 -0.5666  0.6561
 5273TIP3    H237235   5.346   5.665   5.734  2.8739  1.1202 -1.7954
 5274TIP3   OH237236   3.468   4.128  16.417  0.1676  0.3027 -0.3193
 5274TIP3    H137237   3.442   4.218  16.438 -0.6429 -0.1303  0.5612
 5274TIP3    H237238   3.385   4.080  16.410  0.6536 -0.8698  1.5426
 5275TIP3   OH237239   3.107   2.979   3.538  0.7718  0.2302  0.3455
 5275TIP3    H137240   3.152   3.054   3.499  2.2230  0.3736  2.2085
 5275TIP3    H237241   3.022   2.977   3.496  1.2680  2.0415 -0.7885
 5276TIP3   OH237242   5.700   4.686  12.041 -0.0263  0.2215 -0.7820
 5276TIP3    H137243   5.737   4.746  11.975 -0.2917 -0.4193 -1.5129
 5276TIP3    H237244   5.696   4.739  12.121  1.2622  0.6953 -1.0147
 5277TIP3   OH237245   0.172   0.439   5.356 -0.5386 -0.7922  0.0455
 5277TIP3    H137246   0.152   0.489   5.435 -1.7651 -0.7812 -0.2565
 5277TIP3    H237247   0.094   0.385   5.342 -0.4679 -0.5597 -1.3230
 5278TIP3   OH237248   5.233   0.822  13.747 -1.0846 -0.1763  0.3141
 5278TIP3    H137249   5.197   0.859  13.828 -1.2836  0.4718 -0.0677
 5278TIP3    H237250   5.156   0.803  13.693 -0.9211 -0.0025  0.0159
 5279TIP3   OH237251   5.092   0.223  14.143  0.1322 -0.0274 -0.5363
 5279TIP3    H137252   5.023   0.284  14.169  0.4765  0.2776 -0.3271
 5279TIP3    H237253   5.146   0.273  14.082  0.1824 -0.2541 -0.6768
 5280TIP3   OH237254   2.810   2.788  13.147  0.2063  0.2716 -0.9601
 5280TIP3    H137255   2.768   2.703  13.133 -0.8731  0.7231 -0.5637
 5280TIP3    H237256   2.749   2.836  13.203  1.3166  0.9116 -0.2689
 5281TIP3   OH237257   2.948   4.981   0.216 -0.3219 -0.4042  0.4436
 5281TIP3    H137258   2.895   4.933   0.280 -0.8530 -1.3075 -0.6651
 5281TIP3    H237259   2.892   4.990   0.139  0.6990 -0.2782 -0.2973
 5282TIP3   OH237260   3.659   0.889   2.257  0.1098  0.4035  0.1355
 5282TIP3    H137261   3.654   0.930   2.170  0.4565 -1.5179 -0.8376
 5282TIP3    H237262   3.679   0.797   2.238  1.9183  0.3008  2.3357
 5283TIP3   OH237263   5.600   2.789  12.376  0.0119  0.3512  0.0677
 5283TIP3    H137264   5.635   2.754  12.458 -0.3526 -0.1382  0.0195
 5283TIP3    H237265   5.505   2.788  12.388 -0.1209 -1.2015 -0.9457
 5284TIP3   OH237266   0.641   1.944  15.624  0.4857  0.4318 -0.1098
 5284TIP3    H137267   0.587   2.018  15.599  1.1703  0.8383 -0.4139
 5284TIP3    H237268   0.686   1.918  15.543  1.1649  0.4578  0.2482
 5285TIP3   OH237269   2.816   5.540   4.988  0.2652 -0.1309 -0.1808
 5285TIP3    H137270   2.731   5.513   5.023  0.6428 -2.5669 -1.0523
 5285TIP3    H237271   2.880   5.488   5.037  1.1326  0.1631 -0.9826
 5286TIP3   OH237272   6.737   2.859   2.457  0.0634  0.0269 -0.5401
 5286TIP3    H137273   6.814   2.802   2.459 -0.5697 -0.7942  1.0243
 5286TIP3    H237274   6.701   2.848   2.369 -0.5039 -2.6110 -0.0269
 5287TIP3   OH237275   0.085   0.986   2.455  0.2663 -0.7872 -0.0812
 5287TIP3    H137276   0.047   1.009   2.370  0.9209  0.9263  0.0695
 5287TIP3    H237277   0.167   0.942   2.433  1.1082  0.8545 -0.3629
 5288TIP3   OH237278   2.529   0.317  15.849  0.1143 -0.2322  0.5544
 5288TIP3    H137279   2.537   0.289  15.940 -0.6873 -0.8788  0.4331
 5288TIP3    H237280   2.511   0.411  15.854 -1.5296 -0.5736  1.1228
 5289TIP3   OH237281   1.602   5.595  11.205 -0.5332  0.5950 -0.1163
 5289TIP3    H137282   1.666   5.529  11.230  1.2706  2.3618  0.0470
 5289TIP3    H237283   1.587   5.581  11.112  0.5554  0.5487 -0.2853
 5290TIP3   OH237284   5.985   2.526  16.665 -0.0086  0.3843  0.4495
 5290TIP3    H137285   5.993   2.439  16.626 -0.4992  0.8194 -0.6172
 5290TIP3    H237286   6.070   2.567  16.649  0.9943 -0.6527  2.8366
 5291TIP3   OH237287   2.840   0.101   1.924 -0.3523 -0.2149 -0.1271
 5291TIP3    H137288   2.752   0.108   1.962 -0.3563 -1.0621  0.0388
 5291TIP3    H237289   2.892   0.058   1.992  0.4388  1.1608  0.1488
 5292TIP3   OH237290   1.703   1.019  15.127  0.6917 -0.0317 -0.6974
 5292TIP3    H137291   1.617   0.986  15.153  0.9123  0.5549  0.8344
 5292TIP3    H237292   1.686   1.071  15.048 -0.6445  1.5410  0.6037
 5293TIP3   OH237293   5.267   4.569   3.640  0.0830 -0.3248 -0.1475
 5293TIP3    H137294   5.260   4.599   3.549  0.5797 -0.6182 -0.2852
 5293TIP3    H237295   5.211   4.491   3.643 -2.9438  1.7714  0.7533
 5294TIP3   OH237296   0.551   5.699  14.817  0.6411  0.6163 -0.0457
 5294TIP3    H137297   0.580   5.776  14.767  0.4633  0.3686 -0.5364
 5294TIP3    H237298   0.567   5.625  14.758  1.9645  0.1431  0.8863
 5295TIP3   OH237299   6.623   3.471   3.309 -0.4784  0.0091 -0.5279
 5295TIP3    H137300   6.572   3.459   3.389 -0.3582 -0.2026 -0.4823
 5295TIP3    H237301   6.709   3.434   3.329  0.2486  1.9140 -0.0447
 5296TIP3   OH237302   1.765   5.297  16.354 -0.3402  1.4054 -0.5089
 5296TIP3    H137303   1.796   5.336  16.273  1.1359 -0.7156 -0.9941
 5296TIP3    H237304   1.673   5.277  16.337  0.3178 -0.3381 -2.1957
 5297TIP3   OH237305   6.407   1.614   0.940  0.2459  0.6905 -0.1927
 5297TIP3    H137306   6.434   1.589   1.028  1.0311 -0.7300 -0.8257
 5297TIP3    H237307   6.487   1.651   0.900 -0.3662  2.3042  0.0231
 5298TIP3   OH237308   2.054   2.216   3.203 -0.1431  0.2983  0.2274
 5298TIP3    H137309   2.081   2.143   3.146 -0.0118 -0.3531  1.1183
 5298TIP3    H237310   2.136   2.249   3.240 -0.3354 -0.1362  1.0614
 5299TIP3   OH237311   3.285   2.839  14.292 -0.4553 -0.2170  0.0851
 5299TIP3    H137312   3.265   2.920  14.338  0.9700  0.5435 -0.6068
 5299TIP3    H237313   3.295   2.864  14.201 -0.4334 -1.2390 -0.2032
 5300TIP3   OH237314   4.279   5.541  16.726 -0.3892  0.5499  0.3757
 5300TIP3    H137315   4.365   5.577  16.704  0.2787 -1.1575  0.1796
 5300TIP3    H237316   4.238   5.523  16.642 -1.0735  1.6296  0.4656
 5301TIP3   OH237317   1.384   5.233  14.452  0.2889  0.5121 -0.1133
 5301TIP3    H137318   1.454   5.282  14.408  1.3802 -2.2504 -1.5810
 5301TIP3    H237319   1.428   5.156  14.488 -1.7045 -0.3914  0.4535
 5302TIP3   OH237320   3.779   4.439  16.419 -0.2674  0.5305 -0.8051
 5302TIP3    H137321   3.701   4.393  16.387  0.6116 -1.7366  0.2351
 5302TIP3    H237322   3.784   4.518  16.365 -0.4145 -1.8104 -4.4246
 5303TIP3   OH237323   4.724   3.031   3.537 -0.1016  0.4858  0.3690
 5303TIP3    H137324   4.681   3.078   3.608  0.1177  0.4518  0.5228
 5303TIP3    H237325   4.683   3.065   3.457  0.7049  1.6085  0.4244
 5304TIP3   OH237326   0.954   3.523  12.706 -0.4486  0.6763 -0.3312
 5304TIP3    H137327   0.916   3.608  12.683  1.6915  1.7730  0.0719
 5304TIP3    H237328   1.007   3.499  12.631  0.0144  0.3336  0.1024
 5305TIP3   OH237329   6.023   0.818   1.777  0.6960  0.3725 -0.0016
 5305TIP3    H137330   5.950   0.874   1.802 -0.8942 -0.8359 -1.7297
 5305TIP3    H237331   6.080   0.875   1.725  1.0939  1.3621  1.4840
 5306TIP3   OH237332   4.209   0.195  16.619 -0.1981 -0.2914 -0.0403
 5306TIP3    H137333   4.269   0.190  16.545 -0.5479  1.1868 -0.4440
 5306TIP3    H237334   4.176   0.285  16.617  0.1797 -0.0747  2.2138
 5307TIP3   OH237335   4.642   4.921   5.061  0.1924  0.7193 -0.3890
 5307TIP3    H137336   4.592   4.907   4.981 -1.7258 -0.4701  0.9565
 5307TIP3    H237337   4.605   5.001   5.098  0.1924  0.5696 -0.0618
 5308TIP3   OH237338   5.776   0.643   3.644 -0.2148  0.1358  1.2984
 5308TIP3    H137339   5.835   0.710   3.610 -0.0731 -0.9690 -0.7187
 5308TIP3    H237340   5.804   0.631   3.735  2.9485 -0.6251  0.3104
 5309TIP3   OH237341   3.555   5.069   4.960 -0.3119 -0.2585  0.5043
 5309TIP3    H137342   3.533   5.162   4.971 -0.2437 -0.1770  0.0036
 5309TIP3    H237343   3.596   5.044   5.042  2.2222  0.9046 -0.3495
 5310TIP3   OH237344   2.127   1.600  11.497  0.3214 -0.2047 -0.4288
 5310TIP3    H137345   2.207   1.567  11.537  0.8668  0.0501 -1.2990
 5310TIP3    H237346   2.059   1.584  11.562  0.7480 -2.1353 -0.4259
 5311TIP3   OH237347   4.421   3.407   3.851  0.3211 -0.7408  0.7007
 5311TIP3    H137348   4.506   3.442   3.877  0.8526 -1.0636 -0.5829
 5311TIP3    H237349   4.365   3.484   3.844  0.9862 -0.3362 -0.2324
 5312TIP3   OH237350   2.068   1.164   5.577  0.1933 -0.9141 -0.0226
 5312TIP3    H137351   2.022   1.143   5.658 -0.7426 -1.1399 -0.6053
 5312TIP3    H237352   2.002   1.205   5.522  1.1344  0.3916 -0.2122
 5313TIP3   OH237353   3.540   3.205   1.134 -0.0023 -0.3318  0.0275
 5313TIP3    H137354   3.493   3.272   1.184  0.1960 -0.5728  0.5420
 5313TIP3    H237355   3.625   3.245   1.114  0.7217 -0.9997  1.6911
 5314TIP3   OH237356   5.676   3.189  14.135 -0.2778  0.0118  0.2981
 5314TIP3    H137357   5.695   3.095  14.137  1.3922  0.3244  0.0248
 5314TIP3    H237358   5.701   3.220  14.222 -0.2939  0.2844  0.2066
 5315TIP3   OH237359   0.623   4.404   2.390 -0.3118  0.0383 -0.0141
 5315TIP3    H137360   0.592   4.375   2.476 -2.2666 -0.0062 -0.7045
 5315TIP3    H237361   0.611   4.328   2.333 -0.0006  0.3868 -0.5470
 5316TIP3   OH237362   6.005   1.310  11.129  0.0561  0.5072  0.0387
 5316TIP3    H137363   5.927   1.257  11.112  0.7173 -0.2179 -0.8008
 5316TIP3    H237364   5.973   1.385  11.180 -0.9701 -0.4526  0.8455
 5317TIP3   OH237365   2.311   4.715   3.112 -0.1026 -0.7937 -0.5185
 5317TIP3    H137366   2.304   4.808   3.089  0.9812 -0.4417  0.5386
 5317TIP3    H237367   2.294   4.713   3.206  0.5685 -1.5718 -0.4114
 5318TIP3   OH237368   1.561   0.238  15.020  0.0168  0.3501  0.3247
 5318TIP3    H137369   1.471   0.254  15.050 -0.0318 -1.4286  1.1830
 5318TIP3    H237370   1.573   0.144  15.030  1.7665  0.4792 -0.4249
 5319TIP3   OH237371   4.828   3.890   1.432 -0.4425 -0.2781  0.2838
 5319TIP3    H137372   4.815   3.933   1.347  1.4194 -1.1068 -0.4570
 5319TIP3    H237373   4.846   3.963   1.492 -0.0221  0.1962 -0.4010
 5320TIP3   OH237374   6.187   6.159  11.835 -0.2251 -0.9048  0.5513
 5320TIP3    H137375   6.192   6.078  11.785  0.3167 -1.5705  1.6520
 5320TIP3    H237376   6.247   6.145  11.909 -0.2532  0.4335  0.8339
 5321TIP3   OH237377   5.957   4.809  16.016  0.1409 -0.5927  0.2502
 5321TIP3    H137378   5.993   4.893  15.987 -0.1150 -0.8582 -0.8399
 5321TIP3    H237379   5.909   4.831  16.097  1.9138 -0.0773  1.1814
 5322TIP3   OH237380   3.542   0.034  16.186  0.2766 -0.4800 -0.4475
 5322TIP3    H137381   3.502  -0.049  16.212  2.7101 -0.6308  3.1238
 5322TIP3    H237382   3.633   0.011  16.166  1.1639  1.4211  1.2998
 5323TIP3   OH237383   1.786   5.181   1.141 -0.2945 -0.2511  0.3456
 5323TIP3    H137384   1.848   5.116   1.107  0.3050  0.6189 -0.2472
 5323TIP3    H237385   1.701   5.150   1.111  0.1709  0.1764 -1.4647
 5324TIP3   OH237386   5.134   6.306   1.758 -0.4290 -0.8043  0.1551
 5324TIP3    H137387   5.199   6.254   1.711 -0.5349 -1.6585  0.9582
 5324TIP3    H237388   5.064   6.244   1.778 -1.0313 -0.1151  0.1883
 5325TIP3   OH237389   4.829   0.483   2.355  0.2133  0.8052  0.6040
 5325TIP3    H137390   4.793   0.570   2.375 -0.4621  0.7332 -0.2667
 5325TIP3    H237391   4.767   0.422   2.394  1.2107  0.7117  2.0832
 5326TIP3   OH237392   5.375   2.245   0.849  0.0111 -0.3131 -0.1039
 5326TIP3    H137393   5.395   2.297   0.771  1.6528 -1.0902 -0.2213
 5326TIP3    H237394   5.417   2.291   0.921 -0.8909  0.0124  0.2218
 5327TIP3   OH237395   2.621   6.267  13.338 -0.7046  0.2500  0.2186
 5327TIP3    H137396   2.646   6.179  13.311  0.1314  0.5028  0.1421
 5327TIP3    H237397   2.583   6.307  13.260 -2.5174 -0.5592  0.6670
 5328TIP3   OH237398   2.769   0.929   5.422  0.0410 -0.0603  0.2155
 5328TIP3    H137399   2.703   0.879   5.373  1.1340 -2.0891  0.7532
 5328TIP3    H237400   2.735   0.932   5.511  1.9216 -3.5585  1.1437
 5329TIP3   OH237401   0.307   5.054  10.900 -0.5422  0.1519  0.1745
 5329TIP3    H137402   0.376   4.987  10.903  0.8838  1.6444  1.6998
 5329TIP3    H237403   0.307   5.084  10.809 -0.8815 -1.5563 -0.4211
 5330TIP3   OH237404   2.181   6.511   3.964  0.3214  0.0654  0.3156
 5330TIP3    H137405   2.087   6.524   3.977  0.0042 -1.3682 -0.4400
 5330TIP3    H237406   2.213   6.597   3.936 -1.0348  0.1940 -0.9277
 5331TIP3   OH237407   2.142   1.403  12.082 -0.3741  0.5420  0.3781
 5331TIP3    H137408   2.117   1.493  12.103 -3.7284 -0.0534 -0.6931
 5331TIP3    H237409   2.128   1.355  12.164 -1.6518  0.4421  0.1125
 5332TIP3   OH237410   0.719   4.263   2.893  0.9949 -0.1762  0.5809
 5332TIP3    H137411   0.722   4.263   2.797 -1.9986  0.6078  0.4366
 5332TIP3    H237412   0.803   4.228   2.919  1.5268 -1.2561 -2.3602
 5333TIP3   OH237413   4.796   5.929   5.827  0.1993  0.5965  0.0346
 5333TIP3    H137414   4.833   6.016   5.812 -2.7310  1.8048 -0.5502
 5333TIP3    H237415   4.761   5.902   5.742 -0.4396 -0.4208  0.6030
 5334TIP3   OH237416   2.793   5.134  16.201  0.0420  0.0193  0.1683
 5334TIP3    H137417   2.851   5.189  16.148  0.2587  0.8155  1.1992
 5334TIP3    H237418   2.837   5.050  16.206  0.7934  0.4184  0.3731
 5335TIP3   OH237419   2.134   2.538   4.108 -0.6450  0.2926 -0.1230
 5335TIP3    H137420   2.055   2.497   4.071 -1.4779  0.2103  1.6853
 5335TIP3    H237421   2.100   2.612   4.160  0.7116  2.2024 -1.8752
 5336TIP3   OH237422   2.941   5.526  15.247  0.1992 -0.2263 -0.7869
 5336TIP3    H137423   2.998   5.482  15.310  0.3035  1.7470  0.5125
 5336TIP3    H237424   2.852   5.504  15.276  0.2498  0.4402 -0.1293
 5337TIP3   OH237425   3.789   0.634   0.227  0.0857 -0.2336  0.2311
 5337TIP3    H137426   3.714   0.681   0.263 -0.1947 -0.3797 -0.1641
 5337TIP3    H237427   3.764   0.542   0.227 -0.3405 -0.1420 -1.3144
 5338TIP3   OH237428   1.042   0.566   1.118 -0.0461 -0.6465 -0.1833
 5338TIP3    H137429   1.107   0.499   1.096 -0.3367 -0.6693 -0.9993
 5338TIP3    H237430   1.087   0.623   1.181  0.2652 -1.4931  0.3747
 5339TIP3   OH237431   4.875   3.834   0.111  0.0173  0.4422  0.2085
 5339TIP3    H137432   4.913   3.751   0.140 -0.9752  0.0949  0.5240
 5339TIP3    H237433   4.931   3.862   0.039  2.0424  0.9263  1.9300
 5340TIP3   OH237434   3.151   2.271   5.265  0.0547 -0.2510 -1.0595
 5340TIP3    H137435   3.130   2.244   5.354  3.5064 -3.0214 -0.9851
 5340TIP3    H237436   3.127   2.364   5.262 -0.6574 -0.2482  2.5408
 5341TIP3   OH237437   4.521   5.825  12.086  0.4383  0.3154  0.5705
 5341TIP3    H137438   4.499   5.759  12.020  0.3064  0.3898  0.5414
 5341TIP3    H237439   4.471   5.902  12.060  0.8816  0.5437  0.3906
 5342TIP3   OH237440   6.174   1.786  15.212 -0.5504  0.0962  0.1560
 5342TIP3    H137441   6.154   1.731  15.136  0.3511 -1.6123  1.1053
 5342TIP3    H237442   6.270   1.786  15.217 -0.6037 -0.2354  1.5588
 5343TIP3   OH237443   0.550   4.984   4.346 -0.1807 -0.3135  0.5814
 5343TIP3    H137444   0.590   4.930   4.414  1.1315 -1.3330 -0.9553
 5343TIP3    H237445   0.476   4.932   4.315  0.0217 -0.4529  0.3252
 5344TIP3   OH237446   3.048   2.809   4.246 -0.3521 -0.0087 -0.1108
 5344TIP3    H137447   3.047   2.762   4.163  1.4987 -0.6427  0.1939
 5344TIP3    H237448   3.064   2.742   4.312  2.9849  1.0608  0.2732
 5345TIP3   OH237449   3.882   5.886   0.364 -0.6137  0.2644  0.2842
 5345TIP3    H137450   3.828   5.807   0.361  0.7185 -0.6866  1.0171
 5345TIP3    H237451   3.850   5.940   0.292  0.5958 -2.3028 -2.2571
 5346TIP3   OH237452   5.257   5.286   5.312 -0.5306  0.5851 -0.0859
 5346TIP3    H137453   5.184   5.253   5.261 -1.6012  1.5123  0.8193
 5346TIP3    H237454   5.276   5.217   5.376 -0.1881  0.0742 -0.7369
 5347TIP3   OH237455   4.942   5.840  10.335  0.6002 -0.6492  0.0079
 5347TIP3    H137456   4.876   5.842  10.265  0.7675  1.2617 -0.1191
 5347TIP3    H237457   5.024   5.857  10.290  0.9841 -1.4620  0.3969
 5348TIP3   OH237458   2.604   1.355  11.986  0.2124  0.1596 -0.0901
 5348TIP3    H137459   2.620   1.262  11.971  2.7547  0.6139 -0.4157
 5348TIP3    H237460   2.679   1.399  11.946  0.4751  2.1779  2.4795
 5349TIP3   OH237461   2.004   5.582   5.480 -0.1024 -0.2061 -0.1371
 5349TIP3    H137462   2.083   5.625   5.446 -0.1872  0.1907  0.1625
 5349TIP3    H237463   2.004   5.496   5.438 -0.2529  0.3119 -1.2169
 5350TIP3   OH237464   0.987   0.481   0.356 -0.0335 -0.2249 -0.2234
 5350TIP3    H137465   0.913   0.422   0.337  0.8715 -1.2572 -0.6357
 5350TIP3    H237466   0.998   0.532   0.276  2.0593 -2.6916 -1.5860
 5351TIP3   OH237467   2.182   5.676   4.416 -0.0428  0.1176  0.1148
 5351TIP3    H137468   2.263   5.625   4.405 -0.2136 -0.0287 -0.4621
 5351TIP3    H237469   2.137   5.634   4.489 -0.4289 -0.8815 -0.6935
 5352TIP3   OH237470   2.946   5.515  13.460  0.2526 -0.0623  0.0483
 5352TIP3    H137471   2.886   5.585  13.483 -0.2971 -0.5960  0.2486
 5352TIP3    H237472   3.000   5.502  13.538 -2.2858 -2.5723  1.4815
 5353TIP3   OH237473   2.816   1.046  15.992 -0.4470  0.0742  0.3386
 5353TIP3    H137474   2.769   0.980  15.941  0.4002 -0.1393 -0.1854
 5353TIP3    H237475   2.896   1.063  15.941  0.2860  0.0472  1.4617
 5354TIP3   OH237476   3.748   4.420  13.901 -0.1006 -0.2325  0.3117
 5354TIP3    H137477   3.836   4.413  13.862  0.4457 -0.3595  1.5430
 5354TIP3    H237478   3.695   4.358  13.851  0.0705  1.1838 -1.6592
 5355TIP3   OH237479   3.960   0.503   3.812  0.6454  0.5463 -0.1579
 5355TIP3    H137480   3.882   0.448   3.818  1.1156  0.0049  1.1308
 5355TIP3    H237481   3.967   0.525   3.719 -0.6308  0.0114 -0.3893
 5356TIP3   OH237482   3.195   2.301  13.854  0.0754 -0.1408 -0.0145
 5356TIP3    H137483   3.196   2.330  13.763  1.6662 -0.0724  0.0092
 5356TIP3    H237484   3.252   2.363  13.900 -1.2560  0.2500  1.1740
 5357TIP3   OH237485   6.058   4.953   2.672 -0.3602  0.1380 -0.6663
 5357TIP3    H137486   6.045   5.047   2.678  1.2391  0.2814  1.3057
 5357TIP3    H237487   5.970   4.917   2.665 -1.0370  1.7208 -0.5157
 5358TIP3   OH237488   2.251   3.616   5.819 -0.1345 -0.4982 -0.6535
 5358TIP3    H137489   2.187   3.637   5.752  0.0066  0.5137 -0.4769
 5358TIP3    H237490   2.315   3.560   5.775 -0.7788 -0.9697 -0.9972
 5359TIP3   OH237491   0.353   5.371  12.579  0.1897 -0.2321  0.7143
 5359TIP3    H137492   0.263   5.371  12.547  0.2411 -0.9363  0.5735
 5359TIP3    H237493   0.347   5.342  12.670  0.3422 -0.9117  0.5098
 5360TIP3   OH237494   2.612   1.846  14.272  0.3145 -0.2164 -0.2491
 5360TIP3    H137495   2.567   1.888  14.346  0.5057  0.8506 -0.7287
 5360TIP3    H237496   2.572   1.886  14.195  0.9841 -0.4265 -0.7018
 5361TIP3   OH237497   1.142   1.957  13.762 -0.0209  0.2835  0.0904
 5361TIP3    H137498   1.126   2.032  13.704 -0.9449 -0.4150 -0.5588
 5361TIP3    H237499   1.160   1.884  13.703 -1.0032 -0.4465  0.6861
 5362TIP3   OH237500   3.473   6.203  11.284 -0.2215  0.1522 -0.1814
 5362TIP3    H137501   3.432   6.118  11.268 -0.9270  0.1450  1.5592
 5362TIP3    H237502   3.565   6.182  11.303 -0.7246 -0.4066  1.7953
 5363TIP3   OH237503   4.313   3.596   2.975 -0.6371 -0.3163 -0.1931
 5363TIP3    H137504   4.314   3.529   2.907 -1.9612 -0.7144  0.1622
 5363TIP3    H237505   4.305   3.679   2.927  0.6186 -0.4351 -0.6137
 5364TIP3   OH237506   6.005   0.677  12.918 -0.0481 -0.7272  0.3025
 5364TIP3    H137507   5.924   0.629  12.935 -0.7988  0.2590 -0.4277
 5364TIP3    H237508   6.044   0.634  12.842  0.3551 -1.4839  0.9260
 5365TIP3   OH237509   5.559   0.808   5.802 -0.2485  0.1825  0.4047
 5365TIP3    H137510   5.605   0.728   5.779 -1.4751 -0.9742  1.8220
 5365TIP3    H237511   5.545   0.801   5.897 -0.6293  1.9274  0.4971
 5366TIP3   OH237512   2.246   3.860  17.103  0.1681 -0.1707 -0.7950
 5366TIP3    H137513   2.248   3.949  17.067 -1.0165 -0.2673 -1.1383
 5366TIP3    H237514   2.219   3.873  17.194 -0.2249 -0.1978 -0.9074
 5367TIP3   OH237515   0.464   2.791   5.776 -0.4600 -0.2519  0.2705
 5367TIP3    H137516   0.527   2.782   5.848 -0.3389  2.3346  0.5276
 5367TIP3    H237517   0.487   2.874   5.734 -1.5255 -0.9789 -1.7930
 5368TIP3   OH237518   1.279   6.165   2.323  0.2217 -0.1916 -0.1353
 5368TIP3    H137519   1.351   6.219   2.292 -0.1207  0.4347  0.1626
 5368TIP3    H237520   1.206   6.188   2.266  0.4912 -1.4826 -1.0239
 5369TIP3   OH237521   4.766   4.151   1.636  0.8290 -0.0926  0.5781
 5369TIP3    H137522   4.692   4.096   1.610  0.8937 -1.1641  2.5237
 5369TIP3    H237523   4.817   4.096   1.696  3.2909  0.5724 -0.8166
 5370TIP3   OH237524   2.357   3.394   5.446  0.4877 -0.3692 -0.0437
 5370TIP3    H137525   2.345   3.460   5.514  0.0748 -0.4906 -0.0020
 5370TIP3    H237526   2.269   3.368   5.421  0.5773  0.7867 -1.7036
 5371TIP3   OH237527   4.214   0.927  16.457  0.3834 -0.3484 -0.1065
 5371TIP3    H137528   4.293   0.936  16.510  1.9596 -0.1339 -2.4409
 5371TIP3    H237529   4.177   1.016  16.453  2.0312  0.2845 -2.0007
 5372TIP3   OH237530   4.203   4.053   5.024  0.1379  0.2249 -0.2806
 5372TIP3    H137531   4.168   4.036   5.111  1.6560  0.4301  0.3867
 5372TIP3    H237532   4.127   4.081   4.972 -0.5806  1.1150  1.2408
 5373TIP3   OH237533   3.238   0.674  17.068 -0.6555 -0.4378 -0.4186
 5373TIP3    H137534   3.316   0.697  17.119 -0.9958 -3.3342  1.5327
 5373TIP3    H237535   3.173   0.741  17.091  0.5654  0.7421 -0.3832
 5374TIP3   OH237536   6.292   4.947   3.897  0.2842  0.4827 -0.2784
 5374TIP3    H137537   6.211   4.994   3.917 -0.4303 -1.2618  0.9524
 5374TIP3    H237538   6.292   4.940   3.801  0.2780  2.7434 -0.4726
 5375TIP3   OH237539   6.322   6.755   2.859  0.9807  0.1236 -0.2287
 5375TIP3    H137540   6.277   6.700   2.923 -1.3913  1.3388 -0.7998
 5375TIP3    H237541   6.396   6.793   2.907 -0.6755  0.9204  1.7383
 5376TIP3   OH237542   2.298   4.164  16.406 -0.5955  0.6498  0.0990
 5376TIP3    H137543   2.285   4.195  16.317 -2.9494  0.3000  0.2913
 5376TIP3    H237544   2.226   4.204  16.456 -1.2966 -1.8488  1.1590
 5377TIP3   OH237545   2.405   0.911   2.094  0.2875  0.1578 -0.0821
 5377TIP3    H137546   2.374   0.980   2.035  0.6130  0.9977  0.7062
 5377TIP3    H237547   2.335   0.846   2.094 -0.2210  0.6958 -0.5105
 5378TIP3   OH237548   1.353   4.237   1.583  0.0851 -0.1775  0.9457
 5378TIP3    H137549   1.283   4.173   1.593 -0.9462  0.9507  1.0854
 5378TIP3    H237550   1.315   4.319   1.615  0.8118  0.8666 -0.8087
 5379TIP3   OH237551   1.171   2.073   4.500 -0.3261 -0.3566 -0.0704
 5379TIP3    H137552   1.231   2.001   4.521  1.4137  1.3024  0.6873
 5379TIP3    H237553   1.220   2.129   4.441 -0.5972  1.7574  1.6627
 5380TIP3   OH237554   5.234   0.685   2.187 -0.1308 -0.0795  0.3180
 5380TIP3    H137555   5.279   0.769   2.174 -0.5236  0.4050  1.9870
 5380TIP3    H237556   5.144   0.709   2.209 -0.6912 -1.0013 -0.8974
 5381TIP3   OH237557   0.318   1.752  16.646  0.2702  0.3414  0.2439
 5381TIP3    H137558   0.300   1.671  16.599  1.2348  1.4619 -2.2062
 5381TIP3    H237559   0.297   1.821  16.583  2.6835  1.8949  1.0362
 5382TIP3   OH237560   2.876   6.549   5.636  0.0276  0.3449 -0.1248
 5382TIP3    H137561   2.878   6.468   5.686 -0.2031 -0.4958 -1.4485
 5382TIP3    H237562   2.952   6.544   5.578 -0.7563  0.4328 -1.1769
 5383TIP3   OH237563   3.298   3.975   3.374  0.4141  0.0603  0.2786
 5383TIP3    H137564   3.317   4.069   3.375  0.6214  0.0131  1.2263
 5383TIP3    H237565   3.203   3.970   3.372  0.4313  0.2931 -1.1067
 5384TIP3   OH237566   5.228   6.303  13.608 -0.3917  0.0677  0.1153
 5384TIP3    H137567   5.273   6.352  13.677  0.8043  1.1236 -1.4031
 5384TIP3    H237568   5.294   6.242  13.575 -0.4541  0.7138 -1.2237
 5385TIP3   OH237569   1.359   4.101  10.532  0.3372  0.0155 -0.4695
 5385TIP3    H137570   1.365   4.196  10.546 -1.0710 -0.1199  1.2622
 5385TIP3    H237571   1.267   4.086  10.513  0.6030 -0.9895 -0.9697
 5386TIP3   OH237572   3.142   2.079  13.719  0.3072 -0.0791  0.5171
 5386TIP3    H137573   3.053   2.043  13.720 -0.5597  1.9703 -0.4120
 5386TIP3    H237574   3.138   2.155  13.777  0.7766  1.5453 -1.5490
 5387TIP3   OH237575   0.493   2.113   4.593  0.2107  0.3799 -0.0643
 5387TIP3    H137576   0.527   2.181   4.536  1.7580  0.8630  1.3885
 5387TIP3    H237577   0.533   2.032   4.561 -0.8829  0.2664 -1.1928
 5388TIP3   OH237578   4.388   2.123  13.363 -0.5387 -0.1922 -0.2160
 5388TIP3    H137579   4.337   2.059  13.313  0.6927 -2.5636  1.5000
 5388TIP3    H237580   4.365   2.208  13.323 -2.2039 -1.6604 -2.5144
 5389TIP3   OH237581   1.367   1.792   3.683 -0.1434  0.0753  0.2713
 5389TIP3    H137582   1.413   1.848   3.745  1.7840  0.0151 -1.0831
 5389TIP3    H237583   1.353   1.846   3.606 -2.9978  0.3091  0.8821
 5390TIP3   OH237584   3.638   4.762   1.820 -0.0078 -0.8742 -0.6879
 5390TIP3    H137585   3.640   4.805   1.734  1.0697 -0.3722 -0.4133
 5390TIP3    H237586   3.603   4.829   1.879  1.6623 -0.3478 -0.2623
 5391TIP3   OH237587   1.971   6.240   0.690 -0.1012 -0.0954 -0.1919
 5391TIP3    H137588   1.906   6.186   0.646 -0.3513  0.0438  0.0079
 5391TIP3    H237589   2.013   6.291   0.621 -0.8835  0.5428 -0.1949
 5392TIP3   OH237590   5.112   6.684   0.499  0.2734 -0.1922  0.3357
 5392TIP3    H137591   5.054   6.756   0.526  1.2938  0.3953  0.9939
 5392TIP3    H237592   5.061   6.636   0.434 -0.7587  0.6182  0.5200
 5393TIP3   OH237593   0.515   2.215  13.342  0.1797  0.3132 -0.0688
 5393TIP3    H137594   0.430   2.180  13.316 -0.5874  1.0250  1.4158
 5393TIP3    H237595   0.548   2.154  13.407  1.3105 -0.5353 -1.4112
 5394TIP3   OH237596   4.091   1.429  12.952  0.4926 -0.0096 -0.1228
 5394TIP3    H137597   4.084   1.379  13.034 -1.1717  1.2755  0.5466
 5394TIP3    H237598   4.185   1.444  12.942  1.1256 -4.0774 -0.8615
 5395TIP3   OH237599   0.306   0.289   3.145  0.3469  0.0499 -0.0481
 5395TIP3    H137600   0.356   0.253   3.072  1.6103 -1.5705  1.5855
 5395TIP3    H237601   0.216   0.261   3.128  0.5076  0.2786 -1.3319
 5396TIP3   OH237602   5.881   0.908  15.734  0.4710  0.1105  0.3786
 5396TIP3    H137603   5.925   0.932  15.815 -0.1217  0.8884  0.4716
 5396TIP3    H237604   5.828   0.984  15.711  1.1482  0.1519 -1.0964
 5397TIP3   OH237605   3.614   0.512  17.159  0.3120  0.1417 -0.2029
 5397TIP3    H137606   3.567   0.521  17.241 -1.3973  1.4494 -1.2862
 5397TIP3    H237607   3.699   0.477  17.183 -1.0429 -1.8556  1.8618
 5398TIP3   OH237608   4.616   4.437  12.374  0.6339  0.7649  0.4695
 5398TIP3    H137609   4.666   4.360  12.348 -2.8214 -0.7426 -2.1522
 5398TIP3    H237610   4.652   4.508  12.321  0.8275 -0.0315 -0.4798
 5399TIP3   OH237611   1.724   5.330   4.669 -0.1235 -0.2640  0.3292
 5399TIP3    H137612   1.663   5.387   4.716 -2.6993 -1.0331 -1.8964
 5399TIP3    H237613   1.804   5.331   4.721 -1.5889  1.8762  2.6465
 5400TIP3   OH237614   1.812   0.508  16.617  0.6282  0.4696 -0.2958
 5400TIP3    H137615   1.906   0.498  16.635  0.8183  0.4575 -1.2292
 5400TIP3    H237616   1.809   0.563  16.538 -0.1129 -0.4511 -0.9219
 5401TIP3   OH237617   3.948   3.436  17.185  0.2861  0.0396 -0.6185
 5401TIP3    H137618   3.949   3.367  17.119 -0.1939  0.3768 -0.9775
 5401TIP3    H237619   3.872   3.417  17.239  1.0945 -0.6636  0.3055
 5402TIP3   OH237620   6.170   0.285   6.384  0.5901 -0.1409 -0.5032
 5402TIP3    H137621   6.183   0.293   6.290  1.4888 -2.4824 -0.6047
 5402TIP3    H237622   6.245   0.234   6.414  0.0321  0.1172  1.4101
 5403TIP3   OH237623   4.948   6.611  13.717  0.1389  0.0984  0.5726
 5403TIP3    H137624   5.033   6.654  13.718  0.7406 -1.0690 -0.1941
 5403TIP3    H237625   4.952   6.549  13.645 -0.6717 -1.3419  1.7268
 5404TIP3   OH237626   2.406   3.720  14.003  0.1554 -0.2662 -0.2347
 5404TIP3    H137627   2.471   3.757  13.944 -0.8362 -0.1632 -1.2703
 5404TIP3    H237628   2.331   3.778  13.996 -0.7421 -1.4565 -0.4771
 5405TIP3   OH237629   2.602   4.961   4.098  0.4773  0.3313  0.1889
 5405TIP3    H137630   2.663   4.989   4.165  1.2377  3.3848 -1.6782
 5405TIP3    H237631   2.517   4.961   4.141  1.2309  0.1844  1.6947
 5406TIP3   OH237632   2.226   2.247   4.179 -0.3275 -0.4444  0.3558
 5406TIP3    H137633   2.302   2.222   4.231 -0.4547  1.3004  1.3847
 5406TIP3    H237634   2.171   2.298   4.238 -1.6344 -0.4938 -0.7865
 5407TIP3   OH237635   4.480   0.914  15.810  0.1644  0.1052 -0.1026
 5407TIP3    H137636   4.479   0.824  15.778  0.5295  0.5229 -1.3546
 5407TIP3    H237637   4.532   0.912  15.890 -1.6581 -1.1688  1.0803
 5408TIP3   OH237638   1.101   4.766  12.546 -0.3549 -0.5547  0.6591
 5408TIP3    H137639   1.145   4.824  12.608 -1.2102  0.7065  0.0940
 5408TIP3    H237640   1.155   4.687  12.545  1.2093  0.4895  0.9253
 5409TIP3   OH237641   4.999   0.029  15.533 -0.0741 -0.8587  0.4979
 5409TIP3    H137642   5.076   0.057  15.484 -0.3714 -0.9586 -0.0275
 5409TIP3    H237643   5.027  -0.049  15.581 -0.2075 -1.6409 -0.6875
 5410TIP3   OH237644   4.153   3.768   6.499  0.0353 -0.2915  0.0633
 5410TIP3    H137645   4.197   3.696   6.455 -0.1650 -1.5929  1.9210
 5410TIP3    H237646   4.224   3.824   6.530  0.2558 -0.5052 -0.0562
 5411TIP3   OH237647   4.964   6.654  15.000  0.3861 -0.4198 -0.1469
 5411TIP3    H137648   4.931   6.586  14.941  0.3773 -1.2718  0.8293
 5411TIP3    H237649   5.056   6.631  15.013  0.7646  0.5888 -0.9650
 5412TIP3   OH237650   0.606   5.328  13.352  0.1478  0.5321 -0.3070
 5412TIP3    H137651   0.517   5.344  13.386 -0.2688 -0.7095 -0.8071
 5412TIP3    H237652   0.630   5.411  13.310 -0.3201  1.2595  0.8177
 5413TIP3   OH237653   5.491   4.897  15.679 -0.5331 -0.0847 -0.7895
 5413TIP3    H137654   5.537   4.814  15.680  0.8707  0.6704 -1.2762
 5413TIP3    H237655   5.427   4.889  15.608 -0.6629 -0.8787 -0.5840
 5414TIP3   OH237656   5.234   3.748   4.091  0.5507  0.3628 -0.3541
 5414TIP3    H137657   5.235   3.709   4.179 -1.2657 -1.1038 -0.9456
 5414TIP3    H237658   5.141   3.762   4.072  0.9127  0.4764 -2.1084
 5415TIP3   OH237659   5.316   4.038   3.436 -0.0130 -0.4366 -0.3579
 5415TIP3    H137660   5.352   3.958   3.474  1.7126  1.1094  1.3800
 5415TIP3    H237661   5.392   4.092   3.418 -1.2318  1.3884 -0.1766
 5416TIP3   OH237662   3.348   4.407   4.993 -0.6390 -0.0036 -0.3951
 5416TIP3    H137663   3.281   4.473   4.976 -1.6741 -1.4903 -2.1810
 5416TIP3    H237664   3.315   4.357   5.067  0.2942  1.6499  1.1691
 5417TIP3   OH237665   2.103   1.924   0.342  0.2798 -0.6780 -0.1452
 5417TIP3    H137666   2.060   1.957   0.262  1.6407  1.7668  0.0686
 5417TIP3    H237667   2.068   1.979   0.412  3.2652  0.9683  0.1089
 5418TIP3   OH237668   5.526   2.613   4.855  0.2262  0.2106  0.2936
 5418TIP3    H137669   5.621   2.618   4.866  0.2373  1.5129 -0.3441
 5418TIP3    H237670   5.493   2.698   4.884 -0.4000  1.0920 -2.8818
 5419TIP3   OH237671   4.028   5.003  15.160  0.5017 -0.3777  0.1553
 5419TIP3    H137672   4.046   5.080  15.105 -0.9248 -0.1338  0.0252
 5419TIP3    H237673   4.000   5.039  15.244  1.4300 -0.7564  0.6339
 5420TIP3   OH237674   0.178   5.568  12.738  0.4968 -0.2607  0.3655
 5420TIP3    H137675   0.228   5.614  12.671  0.3495 -0.2438  0.2661
 5420TIP3    H237676   0.235   5.497  12.767 -0.3054 -1.6866 -1.4131
 5421TIP3   OH237677   3.172   2.514  15.059  0.5983 -0.0863  0.1525
 5421TIP3    H137678   3.165   2.418  15.063  1.3960 -0.0746  2.6243
 5421TIP3    H237679   3.266   2.531  15.051  0.5257  0.5119  0.5697
 5422TIP3   OH237680   4.775   1.869   4.781  0.2376  0.5192 -0.0483
 5422TIP3    H137681   4.707   1.928   4.749 -0.6571 -0.7429 -0.5588
 5422TIP3    H237682   4.812   1.830   4.701  1.7473  1.3826  0.2114
 5423TIP3   OH237683   4.546   3.681   3.089 -0.6239  0.0343 -1.1406
 5423TIP3    H137684   4.488   3.757   3.096 -0.7684 -0.3184  2.6306
 5423TIP3    H237685   4.532   3.648   3.000 -4.7416  1.1398 -1.0350
 5424TIP3   OH237686   5.042   2.874  16.416  0.2158  0.0013 -0.0423
 5424TIP3    H137687   4.955   2.834  16.420  1.4067 -2.7104  0.0271
 5424TIP3    H237688   5.066   2.869  16.323  1.1430 -1.2412  0.2435
 5425TIP3   OH237689   2.963   2.735  14.491  0.3579 -0.0912 -0.0110
 5425TIP3    H137690   2.921   2.813  14.527 -0.4008  0.5084 -2.1476
 5425TIP3    H237691   3.017   2.701  14.563  0.6308  2.3448  0.9651
 5426TIP3   OH237692   3.701   1.549  13.024 -0.1755 -0.0678 -0.6906
 5426TIP3    H137693   3.610   1.518  13.028  0.7837 -2.8764  0.3617
 5426TIP3    H237694   3.720   1.553  12.930 -1.8190  2.0207 -0.9867
 5427TIP3   OH237695   1.757   5.083  16.782  0.2174  0.1734  0.3635
 5427TIP3    H137696   1.739   5.008  16.726 -0.7741  0.7291 -0.0800
 5427TIP3    H237697   1.852   5.093  16.780  0.5439 -2.3044  2.0546
 5428TIP3   OH237698   4.280   6.523  15.148  0.4481  0.1034 -0.4761
 5428TIP3    H137699   4.217   6.527  15.076  0.1364 -1.8128 -0.3479
 5428TIP3    H237700   4.358   6.568  15.115  0.0351 -0.1020 -1.7450
 5429TIP3   OH237701   6.045   4.696   2.261  0.0087 -0.6090  0.0244
 5429TIP3    H137702   6.038   4.646   2.180  0.1791 -0.1614 -0.2701
 5429TIP3    H237703   6.138   4.695   2.283  0.0644 -0.1434 -0.1674
 5430TIP3   OH237704   5.755   0.478   5.157 -0.2122 -0.3261 -0.3119
 5430TIP3    H137705   5.826   0.480   5.221 -1.0272  0.4809  0.5856
 5430TIP3    H237706   5.799   0.469   5.072  0.9642  0.2833  0.2233
 5431TIP3   OH237707   3.888   1.528   3.899  0.2990 -0.4214 -0.7355
 5431TIP3    H137708   3.882   1.434   3.914 -0.1725  0.0247  2.2448
 5431TIP3    H237709   3.976   1.552   3.930 -0.1610  0.3241  0.0475
 5432TIP3   OH237710   4.378   1.363  12.848  0.6310 -0.2303 -0.1873
 5432TIP3    H137711   4.406   1.309  12.921  0.0885 -0.3271 -0.0516
 5432TIP3    H237712   4.432   1.335  12.774 -0.1362 -1.4414 -0.2947
 5433TIP3   OH237713   5.672   5.011   5.369  0.2308 -1.0630 -0.3433
 5433TIP3    H137714   5.606   4.968   5.422  0.0133 -0.8164 -0.4089
 5433TIP3    H237715   5.635   5.012   5.280 -0.4374  0.5982 -0.0668
 5434TIP3   OH237716   6.227   2.559   3.512 -0.5757 -0.2404 -0.1298
 5434TIP3    H137717   6.229   2.642   3.559  1.4706 -0.2912 -0.0735
 5434TIP3    H237718   6.169   2.575   3.438  2.0505  2.1784 -1.7527
 5435TIP3   OH237719   2.303   4.307  15.906 -0.0113  0.8883 -0.3962
 5435TIP3    H137720   2.310   4.228  15.959 -1.4036  1.8904  1.3436
 5435TIP3    H237721   2.383   4.356  15.924  0.3435  0.3901 -0.6168
 5436TIP3   OH237722   3.480   2.522  15.984  0.4549 -0.0553 -0.5442
 5436TIP3    H137723   3.399   2.553  16.024 -0.0157  1.1667 -2.3450
 5436TIP3    H237724   3.541   2.596  15.994  0.7100 -0.2061 -0.9501
 5437TIP3   OH237725   1.407   2.404  13.479 -0.2932 -0.1842 -0.2228
 5437TIP3    H137726   1.436   2.428  13.567 -0.0370 -1.1401 -0.0468
 5437TIP3    H237727   1.488   2.394  13.429 -0.4489  0.7678 -0.6842
 5438TIP3   OH237728   5.613   0.787  16.862 -0.3056  0.9585 -0.2222
 5438TIP3    H137729   5.688   0.789  16.802 -0.2661 -1.7047 -0.2940
 5438TIP3    H237730   5.538   0.765  16.807 -0.3042 -1.3066  0.6087
 5439TIP3   OH237731   4.092   1.870  10.673  0.3366  0.5456  0.0839
 5439TIP3    H137732   4.065   1.927  10.745 -0.6807  1.7817 -1.2680
 5439TIP3    H237733   4.042   1.790  10.686 -3.4155  2.4681 -1.8855
 5440TIP3   OH237734   5.717   0.136  16.008  0.0645 -0.0019 -0.2654
 5440TIP3    H137735   5.641   0.132  16.066 -1.2067  0.5913 -1.8781
 5440TIP3    H237736   5.724   0.048  15.971 -0.9527  0.4312 -1.5131
 5441TIP3   OH237737   1.857   1.786   4.913  0.6644 -0.4298  0.1258
 5441TIP3    H137738   1.827   1.732   4.986 -0.0899 -1.2582 -0.7924
 5441TIP3    H237739   1.923   1.844   4.952  2.1395 -2.6032  0.9338
 5442TIP3   OH237740   0.802   6.730   5.626  0.1425  0.4311  0.6898
 5442TIP3    H137741   0.714   6.766   5.614 -0.1476 -1.2699 -2.8797
 5442TIP3    H237742   0.860   6.799   5.595 -0.0433  0.5486  0.6021
 5443TIP3   OH237743   1.748   0.858   0.243  0.0256 -0.5102 -0.4062
 5443TIP3    H137744   1.684   0.929   0.238 -0.1309 -0.4797  1.5577
 5443TIP3    H237745   1.814   0.881   0.178  0.0773  1.5468  0.3356
 5444TIP3   OH237746   3.228   2.216   0.366 -0.2138  0.0347 -0.4789
 5444TIP3    H137747   3.300   2.218   0.303 -1.8437  1.2772 -2.3401
 5444TIP3    H237748   3.245   2.290   0.425  0.0332  0.3134 -0.9028
 5445TIP3   OH237749   4.713   4.300   6.321 -0.0375 -0.5094 -0.3119
 5445TIP3    H137750   4.781   4.359   6.353 -0.6304 -0.0619  0.1353
 5445TIP3    H237751   4.733   4.216   6.364 -0.3548 -0.1216  0.6052
 5446TIP3   OH237752   4.685   3.140  12.408  0.4066  0.2904  0.1268
 5446TIP3    H137753   4.590   3.145  12.397  0.5181  0.3131 -0.8190
 5446TIP3    H237754   4.720   3.136  12.319  1.1712 -2.5428  0.5095
 5447TIP3   OH237755   1.493   4.782   4.176 -0.1245 -0.1889  0.0366
 5447TIP3    H137756   1.413   4.732   4.192  0.4096 -0.3847  2.3149
 5447TIP3    H237757   1.543   4.729   4.114 -0.0740 -1.9632  1.5504
 5448TIP3   OH237758   6.414   6.300   4.732  0.3396 -0.5451  0.0502
 5448TIP3    H137759   6.359   6.227   4.759  1.7210 -1.3643  0.7016
 5448TIP3    H237760   6.414   6.360   4.806  1.2786 -1.1175  0.5244
 5449TIP3   OH237761   3.557   1.739  11.546 -0.1565  0.1253  0.1418
 5449TIP3    H137762   3.503   1.764  11.621 -0.8516 -1.3324  0.1569
 5449TIP3    H237763   3.542   1.806  11.480 -1.6957 -0.0649  0.2967
 5450TIP3   OH237764   6.206   1.827   0.105 -0.1107  0.6235 -0.9244
 5450TIP3    H137765   6.142   1.877   0.156  0.3651  0.9586 -0.6500
 5450TIP3    H237766   6.270   1.892   0.078  0.4258  0.1820 -0.7052
 5451TIP3   OH237767   0.761   0.569   1.072  0.2577 -0.4753 -0.2311
 5451TIP3    H137768   0.853   0.597   1.078 -0.0971  0.6895 -0.0843
 5451TIP3    H237769   0.714   0.631   1.127 -1.0198  0.7852 -2.6631
 5452TIP3   OH237770   2.747   6.780   4.727  0.1707  0.0038 -0.2508
 5452TIP3    H137771   2.829   6.736   4.747 -0.6677 -0.5709  2.0801
 5452TIP3    H237772   2.707   6.796   4.812 -2.1570  0.2595 -1.3518
 5453TIP3   OH237773   3.323   5.447  15.748 -0.2143  0.5345 -0.1919
 5453TIP3    H137774   3.408   5.436  15.790 -1.0457 -0.8426  1.1857
 5453TIP3    H237775   3.341   5.434  15.655  1.1170  0.4120  0.0670
 5454TIP3   OH237776   3.844   4.226   1.679  0.1474  0.3658  0.4015
 5454TIP3    H137777   3.895   4.258   1.605  0.7608  1.1773  1.1677
 5454TIP3    H237778   3.828   4.303   1.733 -0.7176 -0.1284  0.8714
 5455TIP3   OH237779   0.608   3.952  15.773 -0.0876  0.0685 -0.5155
 5455TIP3    H137780   0.678   3.896  15.739  0.8125  1.0917 -0.3354
 5455TIP3    H237781   0.636   4.041  15.753 -1.4958  0.4703 -0.7423
 5456TIP3   OH237782   0.527   3.234  13.878  0.0314 -0.3842  0.0897
 5456TIP3    H137783   0.542   3.256  13.970 -0.3966  0.0566  0.0572
 5456TIP3    H237784   0.435   3.207  13.874 -0.0982  0.1022 -0.3012
 5457TIP3   OH237785   5.500   2.868  14.719 -0.2208  0.1310 -0.0884
 5457TIP3    H137786   5.419   2.904  14.683  1.0109  1.2668 -1.7822
 5457TIP3    H237787   5.499   2.895  14.811 -2.4306 -1.1039  0.3025
 5458TIP3   OH237788   3.456   5.003  11.728 -0.3370 -0.2787  0.0235
 5458TIP3    H137789   3.497   5.001  11.814  0.7005 -1.6394 -0.4835
 5458TIP3    H237790   3.362   4.990  11.745 -0.0924 -0.8451  0.9195
 5459TIP3   OH237791   0.213   0.302  11.863 -0.4129 -0.3268  0.0646
 5459TIP3    H137792   0.147   0.307  11.794 -0.2900 -0.6338 -0.0776
 5459TIP3    H237793   0.165   0.315  11.944 -0.3796  1.2803 -0.1537
 5460TIP3   OH237794   5.772   1.838  17.057  0.1102 -0.3681  0.5374
 5460TIP3    H137795   5.821   1.916  17.030 -0.1992 -0.3877 -0.0877
 5460TIP3    H237796   5.837   1.768  17.059  0.2031 -0.2942  0.1769
 5461TIP3   OH237797   0.361   1.475   4.942 -0.3717  0.4980  0.2706
 5461TIP3    H137798   0.330   1.520   4.863 -1.0833  1.7524  1.2512
 5461TIP3    H237799   0.443   1.517   4.964 -0.1313  0.0913  0.1620
 5462TIP3   OH237800   3.325   6.030   2.979 -0.1509  0.4187 -0.5710
 5462TIP3    H137801   3.344   6.124   2.970 -0.9234  0.7967  1.3918
 5462TIP3    H237802   3.358   6.008   3.066 -2.1420 -0.5739 -0.0468
 5463TIP3   OH237803   0.764   4.829  13.253 -0.5229 -0.1405 -0.0769
 5463TIP3    H137804   0.782   4.744  13.293  2.5451  0.8200  0.7518
 5463TIP3    H237805   0.734   4.884  13.326  0.9686  0.4314  0.1359
 5464TIP3   OH237806   1.939   4.726   0.979 -0.5530  0.5628  0.2653
 5464TIP3    H137807   1.961   4.751   0.890  0.7686 -0.3566  0.3116
 5464TIP3    H237808   1.866   4.665   0.969  1.0026 -1.2585 -0.3780
 5465TIP3   OH237809   3.742   1.825  13.394  0.0598  0.4019 -0.5528
 5465TIP3    H137810   3.747   1.798  13.485  1.0445  0.8178 -0.4836
 5465TIP3    H237811   3.822   1.875  13.379 -0.6498  1.3175 -1.3217
 5466TIP3   OH237812   0.849   0.021  15.193 -0.7892 -0.1840  0.1481
 5466TIP3    H137813   0.818   0.030  15.103 -1.4349 -2.0915  0.1559
 5466TIP3    H237814   0.790  -0.044  15.232 -1.9573  2.2865  2.6247
 5467TIP3   OH237815   6.103   3.534   4.034 -0.1993 -0.2282  0.3096
 5467TIP3    H137816   6.024   3.551   3.982 -0.3763 -3.3181 -0.5229
 5467TIP3    H237817   6.136   3.621   4.056 -2.0921  1.1430 -1.9994
 5468TIP3   OH237818   1.421   5.099   5.778  0.4621 -0.5508  0.3656
 5468TIP3    H137819   1.421   5.138   5.691  0.5612 -1.4768 -0.0616
 5468TIP3    H237820   1.329   5.086   5.799  0.3300  1.7519  1.3741
 5469TIP3   OH237821   4.833   4.714  13.964 -0.0410  0.0101 -0.1827
 5469TIP3    H137822   4.925   4.739  13.974  0.1684 -1.1905  0.9298
 5469TIP3    H237823   4.796   4.721  14.052 -0.5297 -1.4252 -0.2669
 5470TIP3   OH237824   5.536   5.643   0.318  0.0273 -0.2921 -0.5212
 5470TIP3    H137825   5.497   5.728   0.301  1.4342  0.1746 -1.4678
 5470TIP3    H237826   5.502   5.586   0.249 -0.7437 -0.4650 -0.0122
 5471TIP3   OH237827   2.900   0.409  15.207 -0.0178  0.0100 -0.4169
 5471TIP3    H137828   2.987   0.438  15.179 -0.3335  0.7953 -0.5957
 5471TIP3    H237829   2.890   0.444  15.296 -0.4834  0.6468 -0.7119
 5472TIP3   OH237830   5.057   4.037  15.219 -0.3718 -0.4831  0.3000
 5472TIP3    H137831   5.110   3.985  15.280 -2.2428 -2.7959  0.0307
 5472TIP3    H237832   4.979   3.983  15.203 -0.1671  0.2233 -3.7657
 5473TIP3   OH237833   2.621   5.727  14.743  0.6926 -0.1964  0.2848
 5473TIP3    H137834   2.697   5.783  14.757  0.0937  0.3521  1.4894
 5473TIP3    H237835   2.623   5.665  14.816 -0.7261  0.6493  1.0684
 5474TIP3   OH237836   4.571   2.151   3.865  0.5979  0.2082  0.0330
 5474TIP3    H137837   4.536   2.070   3.902  0.7175 -0.1221 -0.5748
 5474TIP3    H237838   4.664   2.150   3.887  0.6985 -0.0588 -0.3938
 5475TIP3   OH237839   3.211   3.375  12.899  0.2425 -0.2172 -0.0276
 5475TIP3    H137840   3.152   3.450  12.889  0.6241  0.0131 -0.5666
 5475TIP3    H237841   3.164   3.303  12.856  0.6371  0.1212 -1.0498
 5476TIP3   OH237842   6.197   1.422   3.545 -0.1400 -0.0453  1.0441
 5476TIP3    H137843   6.258   1.355   3.512 -1.2360 -1.4925  1.9219
 5476TIP3    H237844   6.119   1.412   3.490  0.0580  1.2043  0.5173
 5477TIP3   OH237845   3.836   6.254  12.867  0.2923 -0.0130  0.0471
 5477TIP3    H137846   3.862   6.345  12.886 -1.9909  0.9497 -1.1509
 5477TIP3    H237847   3.800   6.259  12.778  2.2474 -2.5729 -0.9560
 5478TIP3   OH237848   0.177   6.562  13.106  0.4565 -0.3616  0.5845
 5478TIP3    H137849   0.103   6.506  13.083  0.8206 -0.5511 -0.1386
 5478TIP3    H237850   0.173   6.569  13.202 -1.3971  0.8734  0.4549
 5479TIP3   OH237851   1.192   2.973  15.789  0.2942 -0.6128  0.4141
 5479TIP3    H137852   1.198   2.920  15.709  0.9007 -1.3771  0.9654
 5479TIP3    H237853   1.098   2.989  15.799  0.1486 -1.1268 -0.0594
 5480TIP3   OH237854   5.323   6.079   3.908 -0.8584 -0.0119 -0.5735
 5480TIP3    H137855   5.248   6.117   3.862 -1.9496 -0.0548  1.0859
 5480TIP3    H237856   5.395   6.139   3.890 -1.5998  0.7134 -1.2090
 5481TIP3   OH237857   6.103   1.762   0.775  0.2881  0.1296 -0.1678
 5481TIP3    H137858   6.136   1.845   0.740  1.0249 -0.0632  0.0827
 5481TIP3    H237859   6.180   1.714   0.804 -0.1417 -0.6051 -0.2047
 5482TIP3   OH237860   5.502   6.282  16.508 -0.5648  0.6225  0.3387
 5482TIP3    H137861   5.439   6.288  16.580  0.3488  3.1554  0.9825
 5482TIP3    H237862   5.448   6.269  16.430 -1.9236  2.4924  0.9196
 5483TIP3   OH237863   6.514   3.963  16.688  0.2055 -0.4066  0.0143
 5483TIP3    H137864   6.497   3.908  16.764  0.0976 -1.8352 -1.0329
 5483TIP3    H237865   6.607   3.986  16.696  0.1617 -0.4305  0.6385
 5484TIP3   OH237866   5.980   3.521   3.265 -0.0391  0.4968  0.0197
 5484TIP3    H137867   5.902   3.576   3.270 -0.7141 -0.4808  0.3594
 5484TIP3    H237868   6.006   3.526   3.173 -2.0200 -1.2323 -0.6649
 5485TIP3   OH237869   0.365   0.823  13.502  0.3660 -0.9440 -0.2157
 5485TIP3    H137870   0.283   0.868  13.520  0.7590 -0.5806  0.7112
 5485TIP3    H237871   0.433   0.885  13.528  0.9202 -1.7041  0.1791
 5486TIP3   OH237872   0.638   3.103   2.951 -0.1815 -0.1289  0.4686
 5486TIP3    H137873   0.706   3.045   2.916 -1.1450 -0.8270 -0.2471
 5486TIP3    H237874   0.685   3.160   3.012  0.7528 -1.7462  1.3022
 5487TIP3   OH237875   5.722   5.962   0.533  0.8334  0.0976 -0.0366
 5487TIP3    H137876   5.629   5.983   0.524  0.5424 -1.4985 -0.8811
 5487TIP3    H237877   5.724   5.875   0.571  2.0156  0.7799  1.5348
 5488TIP3   OH237878   2.880   3.584   5.884 -0.3512 -0.5198 -0.0952
 5488TIP3    H137879   2.830   3.545   5.812  1.8138  0.7543 -2.3843
 5488TIP3    H237880   2.873   3.678   5.869  3.5190 -0.3214 -1.1414
 5489TIP3   OH237881   5.198   6.164  11.823 -0.1883  0.1298  0.6258
 5489TIP3    H137882   5.115   6.133  11.860 -0.8195  0.1528 -0.7309
 5489TIP3    H237883   5.172   6.233  11.762  0.8356  0.1381  0.1935
 5490TIP3   OH237884   1.493   3.425   5.008 -0.0511  0.4750 -0.2784
 5490TIP3    H137885   1.417   3.368   5.002  1.3441 -1.4271 -0.4180
 5490TIP3    H237886   1.516   3.445   4.917 -0.9240  1.8287 -0.2184
 5491TIP3   OH237887   0.562   2.924  15.037 -0.3902 -0.6230 -0.0735
 5491TIP3    H137888   0.468   2.910  15.046 -0.4550 -0.3492 -0.3221
 5491TIP3    H237889   0.601   2.871  15.107 -0.7896  0.1210  0.7251
 5492TIP3   OH237890   1.451   0.852  16.136  0.0530  0.0571  0.2402
 5492TIP3    H137891   1.488   0.935  16.166 -0.9720  0.2328  1.0091
 5492TIP3    H237892   1.442   0.863  16.041  2.7337 -0.2893 -0.1140
 5493TIP3   OH237893   6.102   0.071  17.020 -0.0687  0.1655 -0.9212
 5493TIP3    H137894   6.166   0.061  16.949  2.1573 -1.2358  1.2141
 5493TIP3    H237895   6.018   0.051  16.979  1.0814  0.0112 -3.3092
 5494TIP3   OH237896   5.780   2.932  13.981 -0.3651 -0.3128  0.2237
 5494TIP3    H137897   5.743   2.992  13.916 -0.3806  0.9781  1.3855
 5494TIP3    H237898   5.733   2.850  13.968 -1.1364  0.2568 -0.6463
 5495TIP3   OH237899   0.599   4.017  13.389  0.6020  0.4850  0.0422
 5495TIP3    H137900   0.593   4.015  13.294  0.8765 -0.8963  0.0448
 5495TIP3    H237901   0.566   3.931  13.417  1.5506  0.4558  1.1240
 5496TIP3   OH237902   2.287   1.862  15.958  0.0878 -0.0002  0.7372
 5496TIP3    H137903   2.237   1.789  15.996 -0.5032  0.3236  0.5801
 5496TIP3    H237904   2.302   1.836  15.867  1.1385 -0.5835  1.0642
 5497TIP3   OH237905   4.015   1.530   0.936 -0.2565 -0.5121  0.0486
 5497TIP3    H137906   4.037   1.617   0.968 -0.3264 -0.5694  0.2601
 5497TIP3    H237907   4.031   1.473   1.012 -0.6949 -0.6128  0.0684
 5498TIP3   OH237908   3.181   5.692   3.045  0.0960  0.4594  0.0925
 5498TIP3    H137909   3.120   5.745   3.097  0.7874  2.0331 -0.6598
 5498TIP3    H237910   3.265   5.703   3.088 -0.0263 -1.2992  0.8306
 5499TIP3   OH237911   3.272   6.219  12.940 -0.1135  0.4884 -0.5679
 5499TIP3    H137912   3.177   6.209  12.928 -0.0796 -0.4382 -0.0437
 5499TIP3    H237913   3.310   6.180  12.861 -0.2130  2.4194 -1.6139
 5500TIP3   OH237914   4.107   5.360  16.979 -0.1661 -0.4478  0.1090
 5500TIP3    H137915   4.153   5.330  16.900 -0.7514 -2.0645  0.3418
 5500TIP3    H237916   4.129   5.452  16.987 -0.7162 -0.0412 -2.4205
 5501TIP3   OH237917   2.498   6.611  12.495  0.8219 -0.0372 -0.1463
 5501TIP3    H137918   2.415   6.656  12.515  1.2503  0.2035  1.1022
 5501TIP3    H237919   2.565   6.679  12.504  1.2493 -0.4363 -0.2929
 5502TIP3   OH237920   2.446   5.305   4.395  0.0454  0.2146  0.3513
 5502TIP3    H137921   2.375   5.311   4.332 -2.4695 -2.0291  2.8144
 5502TIP3    H237922   2.526   5.303   4.342 -1.9760 -1.6185 -2.7590
 5503TIP3   OH237923   1.673   3.005   2.365  0.2302 -0.5651 -0.3651
 5503TIP3    H137924   1.590   3.000   2.411  0.6271 -0.2114  0.4076
 5503TIP3    H237925   1.726   3.066   2.417  1.7152 -2.3871  0.3434
 5504TIP3   OH237926   3.550   2.732  12.167  0.1659 -0.1751  0.7931
 5504TIP3    H137927   3.516   2.704  12.252 -0.3162 -2.7076 -0.1794
 5504TIP3    H237928   3.483   2.791  12.133 -1.2094 -1.7019  0.7939
 5505TIP3   OH237929   0.393   4.967  11.259  0.0534 -0.1833 -0.9798
 5505TIP3    H137930   0.446   4.925  11.191 -0.9536 -2.5741 -0.3266
 5505TIP3    H237931   0.321   5.007  11.211 -0.2169 -1.1660 -1.3951
 5506TIP3   OH237932   1.458   1.275   5.201 -0.1176  0.1445  0.3162
 5506TIP3    H137933   1.390   1.270   5.268 -1.0990  1.0753 -0.5901
 5506TIP3    H237934   1.472   1.369   5.188  0.4128 -0.0352 -0.4193
 5507TIP3   OH237935   1.188   0.774  12.403  0.0530  0.4681 -0.3150
 5507TIP3    H137936   1.251   0.833  12.362  0.1156 -0.3632 -1.4457
 5507TIP3    H237937   1.136   0.829  12.461  0.2745  1.5810 -1.1732
 5508TIP3   OH237938   0.096   5.400   1.787 -0.3219  0.3473 -0.4911
 5508TIP3    H137939   0.100   5.455   1.709 -0.2256 -1.3839 -1.7269
 5508TIP3    H237940   0.088   5.311   1.753 -1.4145 -0.3363  1.4819
 5509TIP3   OH237941   3.697   1.602  12.743 -0.5090  0.5346 -0.5841
 5509TIP3    H137942   3.688   1.515  12.703  0.2904  0.5498 -0.8075
 5509TIP3    H237943   3.694   1.663  12.669  3.1037  0.4323 -0.8782
 5510TIP3   OH237944   6.735   1.958   5.460  0.2313  0.4378 -0.0364
 5510TIP3    H137945   6.774   1.988   5.543 -1.0373  1.3035  0.2551
 5510TIP3    H237946   6.674   1.889   5.486  1.6853 -1.0516 -0.5140
 5511TIP3   OH237947   5.414   1.590  16.790 -0.0114  0.2428 -0.5771
 5511TIP3    H137948   5.384   1.502  16.815 -0.8259  0.5872 -0.3152
 5511TIP3    H237949   5.469   1.575  16.713  1.7062 -0.7161  0.7917
 5512TIP3   OH237950   6.322   4.314   4.263  0.6255 -0.1706 -0.0005
 5512TIP3    H137951   6.253   4.248   4.256 -0.4296  1.0284 -1.2374
 5512TIP3    H237952   6.298   4.367   4.339  0.7651 -0.4204  0.2169
 5513TIP3   OH237953   2.551   3.389   4.780 -0.1080 -0.0711 -0.1940
 5513TIP3    H137954   2.634   3.432   4.802  0.4616  0.1783 -2.6828
 5513TIP3    H237955   2.577   3.301   4.751 -0.8792 -0.5984  0.7201
 5514TIP3   OH237956   1.109   0.771  12.005  0.4741  0.1041 -0.2996
 5514TIP3    H137957   1.026   0.814  12.028 -0.0195 -1.3080  0.6100
 5514TIP3    H237958   1.175   0.840  12.013 -0.3918  0.8425  0.5791
 5515TIP3   OH237959   3.407   4.933  13.539  0.0243  0.0325  0.0792
 5515TIP3    H137960   3.320   4.901  13.514 -0.2954  1.9357 -1.3397
 5515TIP3    H237961   3.447   4.961  13.457  2.1268 -1.1374  0.6754
 5516TIP3   OH237962   0.537   1.877   1.396  0.1794 -0.2852 -0.3653
 5516TIP3    H137963   0.618   1.896   1.445 -0.0566 -1.0860  0.3359
 5516TIP3    H237964   0.567   1.862   1.307  0.6605  0.7508 -0.3910
 5517TIP3   OH237965   2.792   0.996  16.985 -0.4539  0.2111  0.2622
 5517TIP3    H137966   2.847   0.990  16.907 -0.8857  0.4070 -0.0540
 5517TIP3    H237967   2.718   0.938  16.966 -1.0280  0.9914  0.1463
 5518TIP3   OH237968   3.732   5.934  13.853 -0.0533  0.6591  0.0816
 5518TIP3    H137969   3.690   5.904  13.934  0.9144  1.4616  0.8927
 5518TIP3    H237970   3.731   5.857  13.796  0.6942 -0.3885  1.4475
 5519TIP3   OH237971   6.777   5.793   6.150  0.5374 -0.2062  0.6087
 5519TIP3    H137972   6.709   5.805   6.085 -0.1988 -0.1596  1.3813
 5519TIP3    H237973   6.815   5.707   6.131  0.7824  0.1032 -0.2950
 5520TIP3   OH237974   0.665   0.526  14.614  0.1626  0.2286  0.2158
 5520TIP3    H137975   0.581   0.568  14.599 -0.1761  0.0083  1.4216
 5520TIP3    H237976   0.708   0.526  14.529 -1.1357  0.1651 -0.4411
 5521TIP3   OH237977   3.068   3.861   0.783 -0.0964  0.0476 -0.2768
 5521TIP3    H137978   3.128   3.882   0.712  0.1425  0.5529  0.0704
 5521TIP3    H237979   3.031   3.945   0.810 -0.4110 -0.1758 -0.0047
 5522TIP3   OH237980   4.632   2.606  15.252  0.0501  0.3332 -0.2005
 5522TIP3    H137981   4.626   2.514  15.276  0.6196  0.2805 -0.2667
 5522TIP3    H237982   4.647   2.652  15.335 -2.4753  0.5957  0.1486
 5523TIP3   OH237983   3.771   3.211   5.320  0.2239 -0.0643  0.4867
 5523TIP3    H137984   3.811   3.210   5.407  0.4004 -0.0219  0.4056
 5523TIP3    H237985   3.841   3.237   5.261  0.1194 -0.1492  0.3220
 5524TIP3   OH237986   3.823   0.605  14.533  0.8701  0.3557 -0.7428
 5524TIP3    H137987   3.778   0.522  14.544 -0.1617  1.2596  2.4526
 5524TIP3    H237988   3.780   0.646  14.458  0.2360 -1.2412 -1.2656
 5525TIP3   OH237989   1.858   3.811   3.760 -0.4414  0.5648 -0.0972
 5525TIP3    H137990   1.876   3.827   3.852  1.5204  1.6907 -0.6429
 5525TIP3    H237991   1.768   3.777   3.758 -0.4096  0.2913  2.2247
 5526TIP3   OH237992   2.930   3.581  14.824 -0.2197 -0.9346 -0.0457
 5526TIP3    H137993   2.837   3.588  14.846  0.2942  1.9444  1.4430
 5526TIP3    H237994   2.973   3.562  14.907  0.8882  1.5628 -0.0094
 5527TIP3   OH237995   3.473   3.838   3.218 -0.3221 -0.2146  0.4073
 5527TIP3    H137996   3.495   3.922   3.178 -0.4064 -0.4121 -0.0667
 5527TIP3    H237997   3.409   3.859   3.285  0.2645  0.1980  0.8465
 5528TIP3   OH237998   3.824   6.273   3.816  0.1636  0.2375  0.1842
 5528TIP3    H137999   3.812   6.284   3.910 -0.2410 -0.0303  0.1609
 5528TIP3    H238000   3.767   6.200   3.792 -0.9766  1.3428 -0.5411
 5529TIP3   OH238001   2.935   5.518   6.456 -0.1502  0.2819 -0.1170
 5529TIP3    H138002   2.916   5.592   6.399 -1.8078 -0.2610 -0.2805
 5529TIP3    H238003   2.886   5.445   6.418 -0.1608 -0.4109  1.2171
 5530TIP3   OH238004   2.464   3.462   3.513 -0.2717 -0.0408 -0.3865
 5530TIP3    H138005   2.439   3.539   3.564 -2.3345  0.6496 -2.4051
 5530TIP3    H238006   2.419   3.389   3.556 -1.3766  0.4233 -0.7555
 5531TIP3   OH238007   1.218   6.040  15.925  0.3665  0.2265 -0.2977
 5531TIP3    H138008   1.150   6.107  15.927  0.6288  0.4700  1.0574
 5531TIP3    H238009   1.267   6.057  15.844  1.1681  2.4149  0.6259
 5532TIP3   OH238010   5.227   3.753  11.087 -0.1208 -0.2875  0.6070
 5532TIP3    H138011   5.150   3.810  11.082 -1.7595 -2.2972  1.7295
 5532TIP3    H238012   5.214   3.689  11.017  0.9038 -0.2213  0.3482
 5533TIP3   OH238013   3.606   2.901  15.038 -0.0445 -0.3445 -0.0844
 5533TIP3    H138014   3.578   2.914  14.948  0.3626 -0.4139 -0.2241
 5533TIP3    H238015   3.668   2.972  15.055 -1.4616  0.7174  0.7255
 5534TIP3   OH238016   3.617   3.168  16.107 -0.3066 -0.1801 -0.0843
 5534TIP3    H138017   3.643   3.120  16.186 -1.2203 -2.3648 -1.0619
 5534TIP3    H238018   3.688   3.150  16.045 -0.2346  0.4505 -0.1791
 5535TIP3   OH238019   0.670   6.291   5.153 -0.4162  0.4457 -0.0159
 5535TIP3    H138020   0.680   6.288   5.248 -0.9516 -0.1126  0.0250
 5535TIP3    H238021   0.576   6.280   5.139 -0.0344 -2.2564 -0.7218
 5536TIP3   OH238022   2.632   0.497   6.662 -0.0713  0.0633  0.2160
 5536TIP3    H138023   2.670   0.433   6.602  0.4978  0.6939 -0.0964
 5536TIP3    H238024   2.549   0.457   6.690 -0.9068  0.2557 -1.8834
 5537TIP3   OH238025   3.229   6.451  14.602  0.0303 -0.0815 -0.6969
 5537TIP3    H138026   3.195   6.532  14.563 -0.6379 -0.1683 -0.3115
 5537TIP3    H238027   3.213   6.462  14.696 -1.7201 -1.4151 -0.8032
 5538TIP3   OH238028   1.043   5.660  11.261 -0.4263 -0.4033  0.3500
 5538TIP3    H138029   1.005   5.675  11.174  0.6984  0.5337  0.0012
 5538TIP3    H238030   1.031   5.743  11.307  1.3397 -0.0180  0.1612
 5539TIP3   OH238031   4.669   5.510  11.418 -0.4141  0.1905 -0.3202
 5539TIP3    H138032   4.663   5.538  11.509 -1.3086 -0.9113 -0.0336
 5539TIP3    H238033   4.762   5.505  11.400 -0.1998 -1.4915  1.1418
 5540TIP3   OH238034   3.665   5.719   0.430  0.1521  0.6239 -0.3563
 5540TIP3    H138035   3.708   5.650   0.479 -0.5850 -0.0693 -0.6787
 5540TIP3    H238036   3.571   5.707   0.446 -0.0311  1.0617 -1.0355
 5541TIP3   OH238037   1.836   3.143  14.959  0.1723  0.1301  0.1062
 5541TIP3    H138038   1.930   3.159  14.969  0.0009  1.7509 -0.7106
 5541TIP3    H238039   1.831   3.054  14.925  1.4195 -0.0054  0.2479
 5542TIP3   OH238040   1.030   4.941   5.594 -0.0698 -0.1447 -0.0064
 5542TIP3    H138041   0.964   4.917   5.659  0.3674 -0.9473  0.1481
 5542TIP3    H238042   1.041   4.863   5.540  0.5862  0.0556 -0.1691
 5543TIP3   OH238043   3.141   2.497   6.574  0.0231  0.3222  0.2676
 5543TIP3    H138044   3.144   2.579   6.624  0.2785  1.3208 -1.3522
 5543TIP3    H238045   3.144   2.428   6.641 -1.0972  1.6201  1.6938
 5544TIP3   OH238046   5.292   5.570   3.848  0.5165  0.5271  0.3206
 5544TIP3    H138047   5.308   5.664   3.850 -1.0358  0.8059  0.4591
 5544TIP3    H238048   5.214   5.560   3.793  0.0181 -0.5667  1.1989
 5545TIP3   OH238049   3.516   2.665  12.428  0.0803 -0.1625 -0.0425
 5545TIP3    H138050   3.577   2.716  12.481  0.4610 -0.4175 -0.2351
 5545TIP3    H238051   3.522   2.576  12.463  0.3436 -0.3337 -0.5255
 5546TIP3   OH238052   1.739   5.168  15.682  1.2248 -0.0342 -0.3357
 5546TIP3    H138053   1.660   5.180  15.734  0.0384 -0.0372 -2.1115
 5546TIP3    H238054   1.787   5.098  15.728  0.4910  0.3642  1.0648
 5547TIP3   OH238055   5.241   0.515  12.482 -0.2936 -0.3724 -0.2279
 5547TIP3    H138056   5.177   0.511  12.554 -1.0657  0.6763 -0.8321
 5547TIP3    H238057   5.275   0.604  12.486 -0.5678 -0.2070 -1.3456
 5548TIP3   OH238058   4.470   5.950  12.791 -0.8538  0.7974  0.3322
 5548TIP3    H138059   4.481   5.905  12.875 -0.3509  1.1448  0.4496
 5548TIP3    H238060   4.513   5.893  12.727  2.9991  2.8055  0.9707
 5549TIP3   OH238061   4.442   5.626  11.220  0.3243 -0.3264  0.3972
 5549TIP3    H138062   4.501   5.560  11.183 -0.3326 -0.6521 -0.0693
 5549TIP3    H238063   4.499   5.681  11.274  0.9962 -0.8517  0.2297
 5550TIP3   OH238064   5.361   1.860  15.986 -0.4279  0.0385  0.4807
 5550TIP3    H138065   5.452   1.836  15.971 -0.5952 -0.4236  0.1998
 5550TIP3    H238066   5.345   1.933  15.926  0.3134  1.4059  1.9133
 5551TIP3   OH238067   1.579   5.288  16.715 -0.2146  0.5610  0.7752
 5551TIP3    H138068   1.636   5.363  16.731  0.7955  0.3273 -1.5336
 5551TIP3    H238069   1.631   5.212  16.743 -0.2223  0.5173  0.6683
 5552TIP3   OH238070   2.541   3.844  15.343 -0.5751  0.0958 -0.5875
 5552TIP3    H138071   2.523   3.936  15.326 -2.5043 -0.2414 -0.4783
 5552TIP3    H238072   2.456   3.807  15.367  0.5856 -1.2252  1.6117
 5553TIP3   OH238073   3.451   1.270  16.577  0.2595 -0.0313 -0.1241
 5553TIP3    H138074   3.407   1.352  16.600 -0.0102 -0.0903 -0.4084
 5553TIP3    H238075   3.381   1.216  16.538  0.5238 -0.2379 -0.3137
 5554TIP3   OH238076   5.763   1.737  11.899 -0.1624 -0.3451  0.0338
 5554TIP3    H138077   5.839   1.771  11.948 -0.7385  1.8546 -0.5384
 5554TIP3    H238078   5.794   1.733  11.808 -0.4423 -0.3395 -0.0588
 5555TIP3   OH238079   0.870   3.095  14.441 -0.4363 -0.1769 -0.1607
 5555TIP3    H138080   0.933   3.128  14.505 -0.7525 -0.4761  0.3105
 5555TIP3    H238081   0.828   3.174  14.406 -1.6831 -0.1045  1.4706
 5556TIP3   OH238082   1.272   3.349   1.581  0.2878 -0.1696  0.2004
 5556TIP3    H138083   1.262   3.441   1.555 -0.8538 -0.3378  0.0566
 5556TIP3    H238084   1.349   3.350   1.639  0.8988  0.7061 -0.6031
 5557TIP3   OH238085   1.778   4.529  12.046  0.5042  0.5322  0.8052
 5557TIP3    H138086   1.774   4.562  12.135 -1.4175 -0.0621  0.9466
 5557TIP3    H238087   1.794   4.436  12.055 -0.1195  0.3960  0.5393
 5558TIP3   OH238088   3.068   3.723  16.961  0.8729  0.5741  0.5764
 5558TIP3    H138089   3.056   3.814  16.933  0.8964  0.0432 -1.2125
 5558TIP3    H238090   3.145   3.726  17.017  1.1421  1.5931  0.1714
 5559TIP3   OH238091   6.008   4.644  15.277  0.3859  0.6598 -0.0418
 5559TIP3    H138092   5.938   4.609  15.331  1.6634 -0.4933  0.8948
 5559TIP3    H238093   6.088   4.607  15.314  1.3819  0.7819 -1.9917
 5560TIP3   OH238094   0.412   4.713   2.273 -0.4438  0.0671  0.0960
 5560TIP3    H138095   0.378   4.629   2.301 -0.6228  0.4403  1.0208
 5560TIP3    H238096   0.346   4.747   2.211  0.0858 -0.8752 -1.0026
 5561TIP3   OH238097   2.713   4.227  16.878 -0.3324  0.4087 -0.2283
 5561TIP3    H138098   2.735   4.134  16.884  1.2649  0.7340 -0.6745
 5561TIP3    H238099   2.687   4.251  16.967  1.9475  0.1581  0.5317
 5562TIP3   OH238100   0.789   6.392   0.403  0.0637  0.0578 -0.2123
 5562TIP3    H138101   0.761   6.481   0.381  0.6549  0.1426 -0.6301
 5562TIP3    H238102   0.849   6.403   0.477 -0.8492 -0.1066  0.5595
 5563TIP3   OH238103   0.743   4.411  15.811  0.2836 -0.7052 -0.1033
 5563TIP3    H138104   0.830   4.400  15.773  0.3880 -1.5093  0.3699
 5563TIP3    H238105   0.684   4.417  15.736  1.0640  2.8549 -0.5389
 5564TIP3   OH238106   1.050   0.172   5.811 -0.2126 -0.1453  0.1355
 5564TIP3    H138107   1.122   0.190   5.872 -1.2072 -1.0026  1.6009
 5564TIP3    H238108   1.007   0.257   5.800 -0.0873  0.0038  0.7434
 5565TIP3   OH238109   1.872   5.238   3.919  0.4723  0.4306  0.2148
 5565TIP3    H138110   1.807   5.289   3.871 -1.6038 -0.3710  2.1026
 5565TIP3    H238111   1.822   5.192   3.987  2.9020 -0.7720  1.2653
 5566TIP3   OH238112   5.792   1.931   0.399 -0.2498 -0.5153 -0.0930
 5566TIP3    H138113   5.782   1.916   0.493  2.0386  0.3144  0.3079
 5566TIP3    H238114   5.885   1.951   0.388 -0.7304  0.5197 -2.3776
 5567TIP3   OH238115   3.699   1.140  14.819  0.3034  0.1541 -0.3491
 5567TIP3    H138116   3.769   1.144  14.754  1.6932  1.1273  1.1856
 5567TIP3    H238117   3.665   1.229  14.825 -0.3768 -0.0973 -0.3202
 5568TIP3   OH238118   1.171   1.310   4.975 -0.5064  0.5512 -0.3874
 5568TIP3    H138119   1.143   1.396   5.004 -0.6801  0.7890 -1.2519
 5568TIP3    H238120   1.094   1.272   4.932 -0.7593 -0.4623  0.9089
 5569TIP3   OH238121   1.909   2.428   2.937  0.0556 -0.1702  0.0357
 5569TIP3    H138122   1.849   2.426   3.012 -1.0691  0.9917 -0.8001
 5569TIP3    H238123   1.900   2.343   2.895 -0.8694 -0.0721  0.0345
 5570TIP3   OH238124   1.114   4.079  10.786  0.1125 -0.3032  0.1715
 5570TIP3    H138125   1.142   4.004  10.734 -0.1161 -0.2054 -0.1021
 5570TIP3    H238126   1.058   4.042  10.854 -0.4060 -0.3322 -0.2641
 5571TIP3   OH238127   2.796   2.067  10.627  0.0303  0.0559  0.4776
 5571TIP3    H138128   2.855   2.002  10.591  1.6828  1.5969  0.3585
 5571TIP3    H238129   2.822   2.074  10.719 -1.2246 -0.6123  0.9004
 5572TIP3   OH238130   0.363   6.168  11.303  0.1444 -0.1171  0.4223
 5572TIP3    H138131   0.444   6.169  11.353  1.4638 -0.1341 -1.6394
 5572TIP3    H238132   0.310   6.099  11.343  2.0289 -1.5878  0.4391
 5573TIP3   OH238133   5.128   5.253  14.383  0.3996  0.6154 -0.2465
 5573TIP3    H138134   5.171   5.287  14.462  1.6328  1.4267 -1.2471
 5573TIP3    H238135   5.187   5.186  14.350  0.4031  1.0143 -1.0652
 5574TIP3   OH238136   1.672   0.142   1.430  0.2312  0.8008  0.3058
 5574TIP3    H138137   1.687   0.221   1.481  1.6764  0.3261  0.6165
 5574TIP3    H238138   1.582   0.117   1.452  0.1447  1.7215  1.0509
 5575TIP3   OH238139   4.701   1.466   4.814 -0.0795  0.3245 -0.0665
 5575TIP3    H138140   4.746   1.482   4.897 -0.6762  1.0659  0.1211
 5575TIP3    H238141   4.623   1.521   4.818 -0.8379 -0.7107 -0.5336
 5576TIP3   OH238142   1.988   0.131  11.292 -0.2375 -0.4946 -0.4966
 5576TIP3    H138143   1.934   0.148  11.214 -0.9237 -0.2124  0.0413
 5576TIP3    H238144   2.076   0.157  11.266 -0.5452  0.0167 -1.0375
 5577TIP3   OH238145   1.072   0.995   5.085  0.3644 -0.4038 -0.1246
 5577TIP3    H138146   1.165   1.000   5.062  0.3052  0.2127 -0.2390
 5577TIP3    H238147   1.049   0.903   5.073  1.4462 -0.9473  1.7355
 5578TIP3   OH238148   6.657   2.400  12.085 -0.1255 -0.1672  0.5399
 5578TIP3    H138149   6.709   2.455  12.026  0.4000 -1.8697 -0.6183
 5578TIP3    H238150   6.598   2.462  12.129  0.2620  1.2794 -0.9181
 5579TIP3   OH238151   2.527   6.769   0.009 -0.1615 -0.5801 -0.3134
 5579TIP3    H138152   2.577   6.815  -0.059 -1.8929  0.1946 -1.0754
 5579TIP3    H238153   2.497   6.838   0.068  0.1737 -1.1129  0.4902
 5580TIP3   OH238154   0.571   5.323  16.913  0.5648  0.1409  0.0657
 5580TIP3    H138155   0.507   5.274  16.964  0.1188  0.0064 -0.6138
 5580TIP3    H238156   0.656   5.295  16.947  0.3089 -1.0261 -0.2504
 5581TIP3   OH238157   4.514   0.704  16.310  0.2539  0.2347  0.0760
 5581TIP3    H138158   4.493   0.642  16.240  0.0902 -0.9204  1.1198
 5581TIP3    H238159   4.470   0.668  16.387  0.9897  1.1252  0.9210
 5582TIP3   OH238160   4.716   2.032  12.949 -0.0894 -0.0820 -0.4688
 5582TIP3    H138161   4.799   2.002  12.911 -0.4596 -0.8568 -0.6702
 5582TIP3    H238162   4.723   2.009  13.042 -0.9314 -2.0480 -0.8749
 5583TIP3   OH238163   1.843   1.834   1.090 -0.0766 -0.1964 -0.2022
 5583TIP3    H138164   1.785   1.860   1.162 -0.4769 -3.5024  0.7676
 5583TIP3    H238165   1.901   1.908   1.078 -0.6545  0.8323  2.8746
 5584TIP3   OH238166   0.838   2.177  12.242  0.3707  0.5011 -0.3297
 5584TIP3    H138167   0.804   2.222  12.319 -0.5345  0.0800 -0.4840
 5584TIP3    H238168   0.862   2.090  12.273  0.5281  0.5182 -0.4009
 5585TIP3   OH238169   0.059   3.971  15.153 -0.6638  0.0127  0.7673
 5585TIP3    H138170   0.140   3.921  15.154  0.0448  1.1238  0.0724
 5585TIP3    H238171   0.079   4.049  15.102 -2.2594  0.1570  0.3245
 5586TIP3   OH238172   4.859   2.621   0.877 -0.4770  0.0669 -0.2266
 5586TIP3    H138173   4.774   2.625   0.833 -0.6588 -0.8322  0.0478
 5586TIP3    H238174   4.922   2.652   0.811 -1.0949  1.4662 -0.1890
 5587TIP3   OH238175   6.023   2.255  16.529  0.0491  0.0948 -0.0124
 5587TIP3    H138176   6.038   2.192  16.459 -0.6086  0.1486 -0.2105
 5587TIP3    H238177   5.930   2.246  16.549  0.1675  0.3078  0.6327
 5588TIP3   OH238178   5.923   3.282  10.437 -0.0867 -0.5716 -0.1297
 5588TIP3    H138179   5.925   3.199  10.486 -0.2022  0.0679  0.9808
 5588TIP3    H238180   5.834   3.315  10.450 -0.2863 -0.6555 -1.2380
 5589TIP3   OH238181   3.962   2.563   3.130  0.5104  0.2304  0.2312
 5589TIP3    H138182   3.966   2.467   3.134 -0.1864  0.1577 -0.6503
 5589TIP3    H238183   4.016   2.585   3.054 -0.0721  0.4668 -0.1217
 5590TIP3   OH238184   1.997   0.501   1.656 -0.2539  0.1057 -0.4131
 5590TIP3    H138185   1.912   0.501   1.611 -0.8503  0.3610  0.6898
 5590TIP3    H238186   2.026   0.410   1.652 -1.5766 -0.4151  1.0173
 5591TIP3   OH238187   1.429   4.573  13.332  0.3122 -0.3141  0.3191
 5591TIP3    H138188   1.507   4.524  13.305  1.4624  1.9905 -0.7281
 5591TIP3    H238189   1.415   4.636  13.261 -3.4704 -1.6846 -0.2853
 5592TIP3   OH238190   0.780   3.708  12.635 -0.5892  0.3562  0.1095
 5592TIP3    H138191   0.702   3.658  12.612  0.4366 -0.7862 -0.9417
 5592TIP3    H238192   0.767   3.792  12.591 -0.7604 -0.1987 -0.9292
 5593TIP3   OH238193   0.929   6.185  11.659  0.3549 -0.8091  0.6765
 5593TIP3    H138194   0.868   6.146  11.596  0.3589  0.6752 -0.2887
 5593TIP3    H238195   0.905   6.146  11.743 -0.5975 -1.7589 -0.0190
 5594TIP3   OH238196   5.980   5.225  16.331 -0.3850 -0.0089  0.0528
 5594TIP3    H138197   5.991   5.306  16.281 -3.6483  0.1178 -0.6230
 5594TIP3    H238198   5.942   5.253  16.414 -0.4405 -0.7188  0.2744
 5595TIP3   OH238199   4.050   1.807  15.894  0.4290  0.3014  0.5004
 5595TIP3    H138200   3.980   1.778  15.835  0.8927  2.1085 -0.9936
 5595TIP3    H238201   4.122   1.747  15.876  0.2506  0.2509 -0.0611
 5596TIP3   OH238202   0.635   6.030   0.052 -0.1154 -0.3378 -0.0406
 5596TIP3    H138203   0.658   6.108   0.103  0.1779 -0.5352  0.1290
 5596TIP3    H238204   0.607   6.064  -0.033 -0.7316  0.0015  0.2920
 5597TIP3   OH238205   0.744   3.206  15.973 -0.5045 -0.1510  0.4891
 5597TIP3    H138206   0.676   3.260  15.932  0.1377  0.0909 -0.2889
 5597TIP3    H238207   0.796   3.174  15.899 -0.9104 -1.8960  0.9285
 5598TIP3   OH238208   5.555   3.733   2.068  0.1471  0.4904 -0.4145
 5598TIP3    H138209   5.503   3.769   1.996 -2.1742  0.8593  1.4183
 5598TIP3    H238210   5.521   3.644   2.080  0.5723  0.4115  0.2007
 5599TIP3   OH238211   4.781   6.318  11.970  0.1935  0.1703 -0.1243
 5599TIP3    H138212   4.797   6.391  11.911  0.1819  0.1494 -0.1529
 5599TIP3    H238213   4.862   6.310  12.021  0.2739  0.0625 -0.2708
 5600TIP3   OH238214   4.513   0.997   4.433 -0.0672 -0.0427  0.2450
 5600TIP3    H138215   4.580   1.065   4.423  1.2207 -1.4154 -0.7295
 5600TIP3    H238216   4.533   0.957   4.518 -0.8183  0.7846  0.8138
 5601TIP3   OH238217   4.846   5.638  12.923  0.1139  0.2154  0.3392
 5601TIP3    H138218   4.765   5.664  12.879  0.3605  1.3963  0.5706
 5601TIP3    H238219   4.829   5.654  13.016 -0.4346 -2.3569  0.7007
 5602TIP3   OH238220   2.772   5.759  11.597 -0.4095  0.3028  0.0526
 5602TIP3    H138221   2.711   5.707  11.650  0.1956 -0.4125  0.0556
 5602TIP3    H238222   2.858   5.742  11.636 -0.1561  0.9634 -0.2215
 5603TIP3   OH238223   2.348   5.588  14.829  1.0332 -0.4840 -0.2288
 5603TIP3    H138224   2.393   5.620  14.751  1.9326 -1.8501 -0.3016
 5603TIP3    H238225   2.417   5.581  14.895 -0.2074  3.3525  1.5975
 5604TIP3   OH238226   0.213   2.875  12.234  0.9144  0.1324  0.2480
 5604TIP3    H138227   0.201   2.900  12.326 -0.7314 -1.5158  0.4964
 5604TIP3    H238228   0.135   2.907  12.190  1.9074  1.3127 -0.6828
 5605TIP3   OH238229   4.631   4.829  14.541 -0.2080  0.0694  0.4597
 5605TIP3    H138230   4.629   4.754  14.600  1.6854  0.5113  1.1354
 5605TIP3    H238231   4.600   4.795  14.457  0.1310 -1.3384  0.8983
 5606TIP3   OH238232   1.122   0.712  11.214  0.1680 -0.1607  0.2065
 5606TIP3    H138233   1.039   0.665  11.212  0.3801 -0.5163 -0.2734
 5606TIP3    H238234   1.131   0.740  11.305  0.6349 -2.1227  0.7839
 5607TIP3   OH238235   6.670   2.819  13.312  0.0053 -0.1362  0.1151
 5607TIP3    H138236   6.617   2.845  13.388  0.6731  0.5269  0.3625
 5607TIP3    H238237   6.746   2.775  13.350  0.1479 -0.1490 -0.1848
 5608TIP3   OH238238   4.172   1.009  11.048  0.3643 -0.0464 -0.1142
 5608TIP3    H138239   4.191   1.011  11.142 -0.4870 -0.3370  0.0697
 5608TIP3    H238240   4.077   1.014  11.043  0.3424 -1.1939 -0.9260
 5609TIP3   OH238241   5.777   2.907  16.970 -0.0203  0.6035  0.1081
 5609TIP3    H138242   5.862   2.890  16.931 -0.1839  1.2734 -0.5418
 5609TIP3    H238243   5.721   2.930  16.896 -0.3477  1.8419  0.7302
 5610TIP3   OH238244   5.466   6.011   3.375  0.0270 -0.0313  0.1862
 5610TIP3    H138245   5.410   5.936   3.353  0.4204 -0.0927 -0.5870
 5610TIP3    H238246   5.546   5.972   3.411  1.0963 -0.0565 -2.1592
 5611TIP3   OH238247   5.096   0.877   5.851 -0.2168  0.0777 -0.1988
 5611TIP3    H138248   5.122   0.859   5.942  0.0275 -0.9105 -0.4514
 5611TIP3    H238249   5.155   0.823   5.799  0.4146  1.5206 -1.0067
 5612TIP3   OH238250   0.262   2.182  13.202 -0.1440 -0.7686 -0.0233
 5612TIP3    H138251   0.234   2.124  13.131 -2.0725 -1.0906  0.9640
 5612TIP3    H238252   0.218   2.265  13.185  2.3706  0.3764 -1.2589
 5613TIP3   OH238253   2.059   0.722  11.995 -0.2901  0.4762 -0.0794
 5613TIP3    H138254   2.098   0.761  12.073  0.5550  2.1531 -1.3066
 5613TIP3    H238255   2.126   0.662  11.962 -0.4039  0.2318  0.1307
 5614TIP3   OH238256   5.578   6.083   5.757  0.1801 -0.2892 -0.4481
 5614TIP3    H138257   5.557   6.006   5.810  1.6541 -1.9628 -2.2119
 5614TIP3    H238258   5.492   6.119   5.732 -0.5217 -0.4475  1.6028
 5615TIP3   OH238259   1.288   4.661   4.373 -0.0682  0.0796  0.6445
 5615TIP3    H138260   1.361   4.662   4.434 -0.4391 -1.6506  1.1582
 5615TIP3    H238261   1.210   4.668   4.428 -0.3737 -0.6502  0.3228
 5616TIP3   OH238262   1.822   4.086   2.464 -0.1052  0.2627  0.4295
 5616TIP3    H138263   1.914   4.099   2.444 -0.1096 -0.3712 -0.0045
 5616TIP3    H238264   1.788   4.035   2.390 -0.8808  0.7904  0.4078
 5617TIP3   OH238265   6.574   3.434  17.092 -0.6364 -0.4023 -0.1624
 5617TIP3    H138266   6.609   3.366  17.036 -0.6548 -0.5955  0.0565
 5617TIP3    H238267   6.631   3.433  17.169  0.9116  1.5282 -1.2485
 5618TIP3   OH238268   4.874   5.483   1.344 -0.1276 -0.1703 -0.0354
 5618TIP3    H138269   4.885   5.566   1.392 -2.5665 -0.2988  0.8235
 5618TIP3    H238270   4.895   5.415   1.408 -1.4524 -0.2785  0.3169
 5619TIP3   OH238271   0.594   5.986   6.106  0.0022  0.0673 -0.4373
 5619TIP3    H138272   0.658   6.050   6.136 -1.0999  2.0045 -2.0814
 5619TIP3    H238273   0.632   5.950   6.026 -0.2154  0.0199 -0.5201
 5620TIP3   OH238274   6.027   6.447  15.630  0.1020 -0.2506  0.3651
 5620TIP3    H138275   5.972   6.525  15.636 -0.1292 -0.5289  2.1037
 5620TIP3    H238276   6.010   6.412  15.542 -1.1344  0.6467  0.2410
 5621TIP3   OH238277   5.931   6.647   5.984  0.8413  0.5241  0.1716
 5621TIP3    H138278   5.930   6.696   6.067  0.9133  0.6384  0.1048
 5621TIP3    H238279   5.974   6.706   5.922  0.1121  0.7378 -0.1373
 5622TIP3   OH238280   6.486   6.338  17.116  0.1937  0.2756  0.0413
 5622TIP3    H138281   6.470   6.433  17.117 -1.4220  0.0078  0.0153
 5622TIP3    H238282   6.494   6.314  17.208 -0.8135  0.2062  0.1130
 5623TIP3   OH238283   0.492   1.846   4.144 -0.2551  0.4499  0.1575
 5623TIP3    H138284   0.456   1.853   4.055 -0.2943 -0.8419  0.0633
 5623TIP3    H238285   0.437   1.781   4.187  1.1561 -0.6084  0.4022
 5624TIP3   OH238286   3.408   2.841   6.128  0.1541 -0.0235 -0.0608
 5624TIP3    H138287   3.360   2.770   6.086  1.3343 -1.2915  0.7027
 5624TIP3    H238288   3.464   2.877   6.059  0.3029 -0.5084 -0.1943
 5625TIP3   OH238289   5.891   4.121   4.397 -0.1963  0.0724  0.0835
 5625TIP3    H138290   5.806   4.138   4.438  0.1414  0.1058  0.7702
 5625TIP3    H238291   5.904   4.027   4.408  0.3438  0.2397  0.9315
 5626TIP3   OH238292   3.838   2.495   2.828 -0.4857  0.2016  0.0745
 5626TIP3    H138293   3.929   2.523   2.838 -0.8564  1.3732  0.2427
 5626TIP3    H238294   3.825   2.430   2.898 -0.1813  1.0611  0.9378
 5627TIP3   OH238295   2.524   0.395   2.421 -0.1534  0.3670  0.0011
 5627TIP3    H138296   2.514   0.300   2.421  0.2295  0.2622  3.0141
 5627TIP3    H238297   2.445   0.428   2.379  0.0655 -1.2914 -1.7432
 5628TIP3   OH238298   2.544   5.664  14.289 -0.1416  0.6837 -0.3664
 5628TIP3    H138299   2.498   5.748  14.291  0.1748  0.8592 -0.4990
 5628TIP3    H238300   2.619   5.676  14.347 -0.5661  0.2168  0.2974
 5629TIP3   OH238301   4.138   0.019   1.072  0.0948  0.4354 -0.7212
 5629TIP3    H138302   4.126   0.067   0.989 -0.3548  0.5167 -0.6128
 5629TIP3    H238303   4.223   0.049   1.105 -0.0993  1.0282 -0.7449
 5630TIP3   OH238304   0.857   1.269  16.358  0.0942 -0.1475 -0.7754
 5630TIP3    H138305   0.831   1.231  16.442  0.9203  0.1822 -0.3715
 5630TIP3    H238306   0.913   1.202  16.318  1.6698  0.6791 -0.0022
 5631TIP3   OH238307   5.007   2.443  17.044 -0.3992 -0.5850  0.4354
 5631TIP3    H138308   4.918   2.428  17.011 -0.8089 -0.0549  1.2691
 5631TIP3    H238309   5.024   2.367  17.100 -0.0569 -1.0352 -0.2862
 5632TIP3   OH238310   4.912   0.128   4.809  0.1727  0.3458 -0.1357
 5632TIP3    H138311   4.866   0.047   4.829  0.5164 -0.3999 -2.1636
 5632TIP3    H238312   4.989   0.127   4.865 -0.4831 -0.1081  0.7661
 5633TIP3   OH238313   1.225   0.356  14.314  0.4059 -0.0774  0.1772
 5633TIP3    H138314   1.162   0.400  14.257 -0.2676 -0.5841  0.5259
 5633TIP3    H238315   1.300   0.338  14.258  0.6440  1.4249  0.0024
 5634TIP3   OH238316   6.362   5.281  16.079  0.8263  0.4375  0.1309
 5634TIP3    H138317   6.288   5.305  16.025  1.2768  0.4964 -0.4628
 5634TIP3    H238318   6.368   5.186  16.072  1.5432  0.5416 -0.7969
 5635TIP3   OH238319   6.163   1.263   2.873 -0.2182 -0.1937 -0.3309
 5635TIP3    H138320   6.234   1.278   2.935 -1.4771  1.3831  0.7566
 5635TIP3    H238321   6.171   1.170   2.850  2.0681 -0.0801 -0.1094
 5636TIP3   OH238322   4.510   4.583   1.856  0.7698 -0.2395  0.4755
 5636TIP3    H138323   4.441   4.614   1.796  0.2139  0.2024  1.3324
 5636TIP3    H238324   4.522   4.491   1.831  0.5616 -0.0579 -0.3331
 5637TIP3   OH238325   5.922   0.890   1.307 -0.6210 -0.0528 -0.4838
 5637TIP3    H138326   6.002   0.941   1.295 -0.0507 -0.5017  1.3133
 5637TIP3    H238327   5.928   0.855   1.396 -2.0963 -1.3450 -0.8585
 5638TIP3   OH238328   2.765   3.926  15.015 -0.1223 -0.0557  0.1675
 5638TIP3    H138329   2.736   3.836  15.001 -0.1531  0.2084 -1.5690
 5638TIP3    H238330   2.730   3.974  14.941 -0.3920  1.4713  1.2557
 5639TIP3   OH238331   6.191   1.407   2.605 -0.0207 -0.0183  0.0834
 5639TIP3    H138332   6.181   1.345   2.677 -1.5502  0.3185  0.1849
 5639TIP3    H238333   6.261   1.466   2.632  0.0551 -0.4743  0.8821
 5640TIP3   OH238334   1.663   1.351   0.241 -0.4112  0.2766  0.1215
 5640TIP3    H138335   1.673   1.266   0.284 -0.9451  1.3312  2.3829
 5640TIP3    H238336   1.744   1.363   0.191  0.3454 -0.8323  1.0703
 5641TIP3   OH238337   4.455   1.713   0.294 -0.8727 -0.2035 -0.4314
 5641TIP3    H138338   4.531   1.656   0.306  0.0731  1.0739 -0.3144
 5641TIP3    H238339   4.384   1.668   0.340  0.4461 -0.0661  1.8231
 5642TIP3   OH238340   1.756   5.779  13.187 -0.1296  0.3802 -0.4920
 5642TIP3    H138341   1.837   5.752  13.144  0.4066 -0.5671  1.0648
 5642TIP3    H238342   1.688   5.767  13.120  0.9159  0.5729 -1.6040
 5643TIP3   OH238343   5.254   2.791  13.095 -0.1880  0.3887  0.8777
 5643TIP3    H138344   5.177   2.735  13.085  0.9057 -1.2281  1.3256
 5643TIP3    H238345   5.256   2.813  13.188  0.3246 -0.2069  1.0084
 5644TIP3   OH238346   2.188   3.650  13.762 -0.7567  0.1949  0.1386
 5644TIP3    H138347   2.142   3.590  13.821 -0.9134 -1.1764 -1.3509
 5644TIP3    H238348   2.273   3.609  13.746 -1.1833 -0.0802 -1.5574
 5645TIP3   OH238349   5.735   1.982   1.998 -0.7914  0.0236  0.0583
 5645TIP3    H138350   5.798   1.916   1.968 -0.6013  1.0873 -1.9916
 5645TIP3    H238351   5.744   1.983   2.093  1.7551 -0.3590 -0.1507
 5646TIP3   OH238352   0.574   4.883   1.559  0.0873 -0.1254  0.0142
 5646TIP3    H138353   0.537   4.811   1.509  1.5832 -0.1396 -1.1223
 5646TIP3    H238354   0.634   4.927   1.497 -0.0533  1.4765  0.9798
 5647TIP3   OH238355   6.153   6.777   0.258 -0.3481  0.0552  0.6125
 5647TIP3    H138356   6.210   6.719   0.209 -0.5019 -0.3988  0.9696
 5647TIP3    H238357   6.067   6.765   0.219 -0.1801  0.8526 -0.0256
 5648TIP3   OH238358   5.006   1.076  14.256 -0.5181  0.1571 -0.3073
 5648TIP3    H138359   4.997   1.113  14.344  1.2183 -1.2550  0.5129
 5648TIP3    H238360   4.918   1.048  14.233 -1.0504  0.7880  0.8856
 5649TIP3   OH238361   0.151   6.076   4.190 -0.4985 -0.1686  0.3713
 5649TIP3    H138362   0.071   6.038   4.153  1.1218 -2.2166 -1.1343
 5649TIP3    H238363   0.144   6.170   4.171 -2.2817 -0.4066 -0.2530
 5650TIP3   OH238364   1.270   5.753   0.851 -0.0285 -0.1075 -0.3005
 5650TIP3    H138365   1.276   5.786   0.941  0.7207 -0.1403 -0.3369
 5650TIP3    H238366   1.286   5.830   0.797  0.4293 -0.2697 -0.3966
 5651TIP3   OH238367   5.203   3.241  14.246  0.6347  0.5989 -0.0581
 5651TIP3    H138368   5.279   3.247  14.303 -0.1035 -0.0815  1.0221
 5651TIP3    H238369   5.227   3.176  14.180  0.2694 -1.1483  1.4621
 5652TIP3   OH238370   5.652   6.681  15.910  0.3226  0.6421 -0.0306
 5652TIP3    H138371   5.573   6.628  15.921  0.0388  0.9760 -0.4205
 5652TIP3    H238372   5.666   6.683  15.815 -1.1892  3.4400 -0.2467
 5653TIP3   OH238373   1.977   0.063   5.048 -0.5838  0.0278 -0.5143
 5653TIP3    H138374   1.915   0.132   5.072 -0.4859 -0.6206  1.6378
 5653TIP3    H238375   2.034   0.104   4.983 -2.3545  1.0801 -1.4534
 5654TIP3   OH238376   0.512   2.487   2.547 -0.5653 -0.4545 -0.5291
 5654TIP3    H138377   0.488   2.540   2.470 -1.1382 -0.1997 -0.1790
 5654TIP3    H238378   0.513   2.397   2.515 -4.9298 -0.8497  0.0725
 5655TIP3   OH238379   2.338   6.267  16.143  0.0849  0.0832  0.2264
 5655TIP3    H138380   2.392   6.284  16.220  1.4340 -2.4605 -0.0980
 5655TIP3    H238381   2.266   6.214  16.176  0.9126 -1.4068 -0.3041
 5656TIP3   OH238382   4.845   3.460   0.162 -0.1879 -0.2932  0.5662
 5656TIP3    H138383   4.835   3.382   0.107 -0.0056  1.2114 -1.6723
 5656TIP3    H238384   4.757   3.475   0.198 -0.1612 -1.6727  1.2479
 5657TIP3   OH238385   6.232   6.039   4.817 -0.1752  0.0249  0.3701
 5657TIP3    H138386   6.268   5.969   4.762  1.6792 -0.2416  1.8817
 5657TIP3    H238387   6.257   6.015   4.906 -0.0977  2.2673  0.9884
 5658TIP3   OH238388   1.953   4.384  11.560 -0.5004 -0.0145  0.1689
 5658TIP3    H138389   1.916   4.332  11.488  0.2945 -0.6438  0.2124
 5658TIP3    H238390   1.903   4.355  11.637 -1.7734  1.1022 -0.2231
 5659TIP3   OH238391   3.899   6.377   1.276  0.9416  0.4731 -0.4671
 5659TIP3    H138392   3.814   6.332   1.275  0.6445  1.0353 -0.3858
 5659TIP3    H238393   3.898   6.431   1.197 -0.0583  2.8782  1.1324
 5660TIP3   OH238394   6.094   3.568  15.655  0.0329  0.0266  0.3559
 5660TIP3    H138395   6.160   3.508  15.621 -1.1283 -0.5855 -0.8873
 5660TIP3    H238396   6.121   3.654  15.623  0.7785 -0.0725  0.7168
 5661TIP3   OH238397   0.317   3.070  11.468  0.1576  0.2091 -0.0625
 5661TIP3    H138398   0.288   3.105  11.383 -1.3403  2.2154  1.2119
 5661TIP3    H238399   0.239   3.026  11.503  0.9928 -1.2788 -0.0467
 5662TIP3   OH238400   1.312   0.266  15.117 -0.3719  0.2418 -0.4628
 5662TIP3    H138401   1.249   0.195  15.105  0.4939 -0.9667  1.7006
 5662TIP3    H238402   1.265   0.332  15.168  0.0201 -0.5853  1.0041
 5663TIP3   OH238403   0.993   4.331   0.405  0.4540  0.2506  0.5735
 5663TIP3    H138404   0.932   4.282   0.350  2.0073 -0.2942 -0.6835
 5663TIP3    H238405   0.942   4.354   0.482 -0.9074 -1.4997  0.2181
 5664TIP3   OH238406   2.576   4.384  11.476  0.3409  0.0801  0.6447
 5664TIP3    H138407   2.488   4.353  11.494  1.1067 -1.9866  0.8922
 5664TIP3    H238408   2.596   4.445  11.548 -0.1367 -0.9430  1.6447
 5665TIP3   OH238409   6.023   4.750  12.857 -0.3082  0.1613  0.3872
 5665TIP3    H138410   5.966   4.826  12.848 -1.6305 -0.7163  1.1232
 5665TIP3    H238411   6.106   4.777  12.817 -0.7070  2.0258  0.7468
 5666TIP3   OH238412   3.531   4.960  16.390 -0.0833 -0.1651 -0.4744
 5666TIP3    H138413   3.524   5.025  16.460 -1.0837  0.1494 -0.8581
 5666TIP3    H238414   3.625   4.945  16.381  0.0225 -1.3314  1.9694
 5667TIP3   OH238415   2.601   2.642   1.869  0.2273 -0.0961 -0.5772
 5667TIP3    H138416   2.553   2.677   1.944 -0.9918 -1.8239 -0.5187
 5667TIP3    H238417   2.535   2.595   1.818  1.3177 -0.1160 -1.9998
 5668TIP3   OH238418   0.294   4.286   0.249 -0.7938 -0.6345 -0.0215
 5668TIP3    H138419   0.288   4.316   0.158 -0.6743 -1.0804 -0.1762
 5668TIP3    H238420   0.374   4.233   0.251 -0.0422  0.5086  0.6643
 5669TIP3   OH238421   6.501   1.174  16.207  0.2385 -0.4149 -0.2971
 5669TIP3    H138422   6.523   1.109  16.141  1.3824  0.8871 -1.2128
 5669TIP3    H238423   6.565   1.160  16.277  2.6801  1.8922 -1.9725
 5670TIP3   OH238424   1.003   2.564   0.126 -0.1301  0.0374 -0.1062
 5670TIP3    H138425   0.969   2.647   0.158 -0.6565  0.7771 -2.4812
 5670TIP3    H238426   0.925   2.513   0.105  0.1814 -1.3147  1.9134
 5671TIP3   OH238427   6.751   0.585   4.788 -0.3321 -0.5969 -0.6201
 5671TIP3    H138428   6.738   0.675   4.759 -1.0894 -0.6082 -0.3245
 5671TIP3    H238429   6.762   0.535   4.707 -1.4104 -0.4730 -0.8440
 5672TIP3   OH238430   5.418   4.914  14.242  0.3898  0.3201  0.2652
 5672TIP3    H138431   5.460   4.881  14.162  0.0497  1.0952 -0.2446
 5672TIP3    H238432   5.491   4.943  14.297  0.6179 -0.0718  0.1701
 5673TIP3   OH238433   4.377   5.805  10.320 -0.1277 -0.1539 -0.2756
 5673TIP3    H138434   4.459   5.853  10.326  0.2744 -0.8779  0.1597
 5673TIP3    H238435   4.397   5.719  10.357 -0.3117 -1.3278 -2.7872
 5674TIP3   OH238436   3.623   1.035   2.027 -0.8988 -0.2099 -0.0611
 5674TIP3    H138437   3.620   1.011   1.934 -0.4813 -0.3827 -0.0311
 5674TIP3    H238438   3.670   1.118   2.029 -0.5772 -0.3944  0.0336
 5675TIP3   OH238439   6.153   4.218   6.074 -0.3109 -0.0885  0.0640
 5675TIP3    H138440   6.086   4.164   6.116 -0.8131 -0.4057 -1.1058
 5675TIP3    H238441   6.230   4.161   6.070  0.0364  0.2810  1.4227
 5676TIP3   OH238442   1.391   2.010   0.605 -0.3240  0.0780 -0.0827
 5676TIP3    H138443   1.314   1.954   0.609  0.2710 -0.7024  0.3640
 5676TIP3    H238444   1.363   2.085   0.552 -1.4236 -0.1459  0.1770
 5677TIP3   OH238445   4.199   3.183  15.708  0.1554  0.1276 -0.4129
 5677TIP3    H138446   4.178   3.130  15.785  0.6314  0.6581  0.0929
 5677TIP3    H238447   4.294   3.196  15.714  0.0124  1.2141 -0.4045
 5678TIP3   OH238448   6.502   0.240  13.826  0.1220 -0.1728 -0.4108
 5678TIP3    H138449   6.524   0.309  13.889  0.4264  0.7966 -1.5497
 5678TIP3    H238450   6.586   0.206  13.797 -0.0271 -1.0813  0.1842
 5679TIP3   OH238451   2.582   6.447   1.511 -0.7247 -0.1249  0.4008
 5679TIP3    H138452   2.621   6.412   1.431  0.0298  0.8484  0.3233
 5679TIP3    H238453   2.514   6.507   1.481 -2.1311 -1.6197  0.5341
 5680TIP3   OH238454   1.988   2.925  16.954  0.2152 -0.4786  0.2493
 5680TIP3    H138455   2.029   2.859  16.899 -0.7668 -0.6746 -0.2567
 5680TIP3    H238456   1.939   2.875  17.020  0.5416 -0.2470  0.6755
 5681TIP3   OH238457   5.711   4.863  10.807 -0.4943  0.0405  0.3558
 5681TIP3    H138458   5.740   4.919  10.878 -1.3266  0.8948  0.0397
 5681TIP3    H238459   5.788   4.852  10.751  0.1436 -0.5908  1.3485
 5682TIP3   OH238460   1.131   0.349   0.969  0.0437  0.0547 -0.5716
 5682TIP3    H138461   1.077   0.390   0.901 -0.1079 -0.0247 -0.4977
 5682TIP3    H238462   1.219   0.384   0.954 -0.2930  1.2498  0.1571
 5683TIP3   OH238463   3.565   3.884   0.905 -0.2882 -0.0801  0.0815
 5683TIP3    H138464   3.511   3.814   0.941 -1.2380  1.3572  1.5217
 5683TIP3    H238465   3.577   3.945   0.978  4.0790 -0.8047  0.0683
 5684TIP3   OH238466   4.318   6.653  13.114  0.3582 -0.3634 -0.0552
 5684TIP3    H138467   4.343   6.561  13.123 -0.1752 -0.4598  0.4643
 5684TIP3    H238468   4.222   6.652  13.115  0.3554  0.2311  0.3496
 5685TIP3   OH238469   1.175   4.516  11.794 -0.8502 -0.9059  0.2679
 5685TIP3    H138470   1.249   4.552  11.746 -0.5208 -2.3065 -0.2701
 5685TIP3    H238471   1.177   4.561  11.878  0.4702 -0.7739  0.1721
 5686TIP3   OH238472   1.980   6.742   2.674  0.0917  0.0905 -0.9479
 5686TIP3    H138473   1.930   6.818   2.706 -1.0527 -0.2873 -1.8109
 5686TIP3    H238474   2.066   6.750   2.716 -0.5049  1.0714  0.1028
 5687TIP3   OH238475   5.384   4.683  16.951 -0.4226 -0.1763  0.0031
 5687TIP3    H138476   5.361   4.692  16.858  1.4030 -0.7549 -0.5288
 5687TIP3    H238477   5.344   4.759  16.993 -1.2438  0.1145 -1.2609
 5688TIP3   OH238478   5.857   4.054  13.631  0.1883  0.0079 -0.6712
 5688TIP3    H138479   5.818   3.997  13.697  2.9239  0.4318  1.3913
 5688TIP3    H238480   5.902   4.122  13.681 -0.9295  2.6186 -3.0381
 5689TIP3   OH238481   3.178   1.677   1.405  0.1246 -0.4802  0.3167
 5689TIP3    H138482   3.146   1.735   1.473 -1.4272  0.8942 -1.5189
 5689TIP3    H238483   3.179   1.590   1.446 -1.4923  0.1954  1.8695
 5690TIP3   OH238484   4.439   0.033  11.345  0.5360  0.1304  0.1709
 5690TIP3    H138485   4.381   0.103  11.317  0.5302 -0.5745 -1.6376
 5690TIP3    H238486   4.475  -0.003  11.264  0.5294 -1.9685  1.0558
 5691TIP3   OH238487   2.495   5.344  16.901 -0.1094  0.1319  0.6221
 5691TIP3    H138488   2.557   5.354  16.829  0.1292 -1.2069  0.6239
 5691TIP3    H238489   2.491   5.431  16.941 -0.5345  0.9914 -1.2183
 5692TIP3   OH238490   6.305   5.631   1.317  0.0168  0.1024  0.0326
 5692TIP3    H138491   6.235   5.692   1.293  1.1138  0.6823 -1.7619
 5692TIP3    H238492   6.273   5.545   1.289  0.6310  0.5657 -2.2200
 5693TIP3   OH238493   4.913   6.569  12.080 -0.3594  0.1769  0.0346
 5693TIP3    H138494   4.872   6.565  11.993  2.3628  0.4689 -1.3426
 5693TIP3    H238495   4.875   6.646  12.121 -1.5366  0.1661 -0.9984
 5694TIP3   OH238496   5.366   4.566  11.000 -0.1441 -0.1679 -0.2308
 5694TIP3    H138497   5.389   4.607  11.084  0.3676  2.6096 -1.6709
 5694TIP3    H238498   5.387   4.632  10.934 -1.7544 -1.8043 -2.4751
 5695TIP3   OH238499   6.534   5.373   5.719 -0.0517  0.3195 -0.0146
 5695TIP3    H138500   6.558   5.430   5.792 -3.9267 -0.2822  1.8350
 5695TIP3    H238501   6.574   5.289   5.740  2.3937  1.2419 -0.7909
 5696TIP3   OH238502   4.067   4.272  15.966  0.1354  0.1495 -0.6273
 5696TIP3    H138503   4.065   4.184  15.928  1.1050 -0.5249  0.8509
 5696TIP3    H238504   3.977   4.290  15.991  0.1521 -0.9510  0.2290
 5697TIP3   OH238505   3.975   1.279   1.433  0.6168  0.4623  0.1635
 5697TIP3    H138506   3.983   1.361   1.482  1.6294  0.7143 -0.4047
 5697TIP3    H238507   4.029   1.217   1.483 -1.4137 -0.2860  1.4715
 5698TIP3   OH238508   4.303   2.051   6.338  0.5019 -0.1405  0.2033
 5698TIP3    H138509   4.233   2.077   6.397  0.3325 -2.5302  1.1281
 5698TIP3    H238510   4.346   2.133   6.313 -1.7836  1.2363  0.6491
 5699TIP3   OH238511   5.318   4.004  17.214  0.1258  0.4726 -0.0998
 5699TIP3    H138512   5.403   4.046  17.203  0.5334 -0.7219 -1.5102
 5699TIP3    H238513   5.335   3.927  17.268  0.2619 -0.7614 -1.8605
 5700TIP3   OH238514   4.590   4.345   2.726 -0.0360  0.6328  0.4188
 5700TIP3    H138515   4.637   4.427   2.715  1.6215 -0.4601 -1.0570
 5700TIP3    H238516   4.517   4.351   2.665  1.1570  0.2802 -1.0853
 5701TIP3   OH238517   4.208   5.026   3.451  0.5381  0.7506  0.8192
 5701TIP3    H138518   4.174   4.940   3.426  2.3325 -0.1825  1.4412
 5701TIP3    H238519   4.273   5.006   3.519 -0.0204  2.7243  1.9588
 5702TIP3   OH238520   5.076   5.111   3.208  0.3602  0.5647  0.3253
 5702TIP3    H138521   5.159   5.155   3.224  1.0039 -0.6837  0.4809
 5702TIP3    H238522   5.056   5.065   3.289  0.5543 -0.7936 -0.3820
 5703TIP3   OH238523   2.292   1.267   5.684 -0.3021  0.2100 -0.3986
 5703TIP3    H138524   2.211   1.221   5.662 -0.7855  0.5229  0.6991
 5703TIP3    H238525   2.269   1.321   5.760  0.7647  0.7943 -0.4833
 5704TIP3   OH238526   2.961   6.072  13.841 -0.1266  0.2097 -0.2107
 5704TIP3    H138527   2.947   5.981  13.869  0.8744 -0.1702 -0.9271
 5704TIP3    H238528   2.928   6.125  13.914 -1.0367 -0.7166  0.0690
 5705TIP3   OH238529   5.941   1.432   0.924 -0.1660 -0.2731 -0.3940
 5705TIP3    H138530   6.029   1.428   0.962 -1.4642 -1.6763  2.5497
 5705TIP3    H238531   5.886   1.464   0.995 -2.1963 -0.1913 -1.9759
 5706TIP3   OH238532   3.938   1.387  12.090  0.3833 -0.4792 -0.3739
 5706TIP3    H138533   3.877   1.322  12.125  1.2789 -0.8479  0.5420
 5706TIP3    H238534   3.894   1.471  12.103 -0.0544 -0.7711  0.0225
 5707TIP3   OH238535   5.568   0.814  14.313  0.3097 -0.2320 -0.3113
 5707TIP3    H138536   5.663   0.829  14.316  0.3029 -0.2543  0.0330
 5707TIP3    H238537   5.556   0.747  14.246  0.5727 -0.5170 -0.0733
 5708TIP3   OH238538   3.562   5.809   0.929 -0.1931 -0.3906 -0.7471
 5708TIP3    H138539   3.508   5.877   0.969 -1.7965 -1.5695 -0.8586
 5708TIP3    H238540   3.515   5.784   0.850  0.4365 -1.5487 -0.7702
 5709TIP3   OH238541   6.151   5.878   3.314 -0.5173  0.3612  0.5647
 5709TIP3    H138542   6.152   5.895   3.220  1.4659  0.5102  0.5884
 5709TIP3    H238543   6.126   5.786   3.322 -1.2154  0.4898 -0.0721
 5710TIP3   OH238544   0.957   1.561  13.371 -0.5564 -0.3118 -0.3838
 5710TIP3    H138545   1.047   1.575  13.398 -0.8456 -1.5557  1.4064
 5710TIP3    H238546   0.962   1.535  13.279  0.5427  3.5261 -1.4551
 5711TIP3   OH238547   1.426   6.766  13.561  0.1518 -0.1790 -0.1033
 5711TIP3    H138548   1.494   6.806  13.615  0.0642  0.4036 -0.4195
 5711TIP3    H238549   1.423   6.821  13.482 -0.6322 -0.2399 -0.1204
 5712TIP3   OH238550   1.464   0.792  13.500 -0.3540 -0.1769 -0.4194
 5712TIP3    H138551   1.443   0.703  13.529 -1.3012 -0.2410 -1.2527
 5712TIP3    H238552   1.555   0.787  13.471  0.3003 -0.3296  1.6215
 5713TIP3   OH238553   0.674   5.381  13.642  0.3062 -0.9980 -0.2761
 5713TIP3    H138554   0.607   5.402  13.576  0.8436  0.5526 -0.3505
 5713TIP3    H238555   0.647   5.429  13.720  0.2370 -1.9971  0.3123
 5714TIP3   OH238556   4.290   0.756  16.686  1.0009 -0.3797  0.3101
 5714TIP3    H138557   4.329   0.840  16.711 -1.2232  0.6070  0.5083
 5714TIP3    H238558   4.235   0.732  16.760  1.3859 -1.8677  0.1193
 5715TIP3   OH238559   4.536   2.613   6.208  0.7006 -0.2130 -0.2435
 5715TIP3    H138560   4.476   2.539   6.217 -1.3445  1.4685  0.3097
 5715TIP3    H238561   4.543   2.649   6.296  2.0375  0.0074 -0.4346
 5716TIP3   OH238562   4.979   5.590  12.336  0.2558  0.2235  0.1673
 5716TIP3    H138563   4.957   5.679  12.365  1.1147  0.5559 -0.1635
 5716TIP3    H238564   5.035   5.555  12.406 -2.3805 -1.1341  1.6833
 5717TIP3   OH238565   3.413   2.050   4.632 -0.4283 -0.1337 -0.5298
 5717TIP3    H138566   3.446   2.048   4.721 -0.8412 -1.3113 -0.3939
 5717TIP3    H238567   3.478   2.001   4.581 -0.6362 -0.2157 -0.7174
 5718TIP3   OH238568   4.933   4.378   1.761  0.1636  0.4368 -0.0600
 5718TIP3    H138569   4.882   4.449   1.798  0.8624  0.8992  0.0184
 5718TIP3    H238570   4.868   4.313   1.735 -0.5187  1.3604 -0.6950
 5719TIP3   OH238571   3.916   5.174   2.127 -0.2267 -0.1967 -0.0129
 5719TIP3    H138572   3.867   5.097   2.097 -1.0287  0.6030 -0.8047
 5719TIP3    H238573   4.006   5.144   2.132 -0.6513 -1.4226  0.4928
 5720TIP3   OH238574   3.450   4.948   5.840  0.2515 -0.0869 -0.1827
 5720TIP3    H138575   3.391   4.985   5.906 -0.8905  0.2976 -1.4126
 5720TIP3    H238576   3.474   4.863   5.875  0.9665  0.7837  1.5232
 5721TIP3   OH238577   0.049   5.143   1.687 -0.4866  0.0635 -0.2633
 5721TIP3    H138578   0.105   5.081   1.733 -0.1867 -0.0426 -0.7668
 5721TIP3    H238579   0.032   5.102   1.602 -0.6027  0.4940 -0.4520
 5722TIP3   OH238580   3.903   0.799  13.522  0.1202  0.1964 -0.2082
 5722TIP3    H138581   3.830   0.749  13.558  0.6664  0.6807  1.6236
 5722TIP3    H238582   3.960   0.734  13.482  0.0064 -0.4453  0.6833
 5723TIP3   OH238583   4.772   2.888  11.651  0.1163  0.0331  0.6344
 5723TIP3    H138584   4.707   2.842  11.598  0.4702 -0.1936  0.3953
 5723TIP3    H238585   4.815   2.947  11.590  0.4405 -0.1389  0.6940
 5724TIP3   OH238586   5.074   2.209  17.167  0.1550  0.1669  0.2804
 5724TIP3    H138587   5.138   2.167  17.110  1.1177 -0.3146  1.6768
 5724TIP3    H238588   5.023   2.137  17.203  0.1460  0.3821  0.7107
 5725TIP3   OH238589   2.766   6.303   3.940  0.2633 -0.4254 -0.2570
 5725TIP3    H138590   2.766   6.377   3.880  1.1317 -1.1664 -1.1830
 5725TIP3    H238591   2.856   6.298   3.973  0.2542 -1.1541 -0.3194
 5726TIP3   OH238592   3.782   4.242   3.761 -0.2872  0.2081  0.4438
 5726TIP3    H138593   3.791   4.178   3.690 -0.3683 -0.3613  0.9355
 5726TIP3    H238594   3.725   4.310   3.725 -1.9747 -1.0670  0.6184
 5727TIP3   OH238595   2.393   6.439   0.720  0.6114  0.1656  0.5513
 5727TIP3    H138596   2.479   6.402   0.700 -0.6747 -1.9119 -1.3411
 5727TIP3    H238597   2.374   6.496   0.645  0.7944  1.4810  1.4927
 5728TIP3   OH238598   5.979   3.222   5.873 -0.4725 -0.1162 -0.1047
 5728TIP3    H138599   6.057   3.246   5.823 -0.4260 -0.0774 -0.0131
 5728TIP3    H238600   5.911   3.282   5.841 -0.3714  0.0974  0.0805
 5729TIP3   OH238601   2.213   1.927   0.912  0.4057 -0.2119  0.0446
 5729TIP3    H138602   2.160   1.937   0.833 -0.5209  0.7192  0.7743
 5729TIP3    H238603   2.289   1.983   0.897  0.9831 -1.2021 -0.8107
 5730TIP3   OH238604   4.321   4.364  13.981  0.6558  0.0079 -0.1108
 5730TIP3    H138605   4.344   4.351  14.073  1.3521  2.3055  0.0549
 5730TIP3    H238606   4.404   4.378  13.937  0.2806 -0.5550 -1.0107
 5731TIP3   OH238607   1.805   0.433   5.139 -0.3792  0.2398 -0.3781
 5731TIP3    H138608   1.744   0.491   5.186 -0.4982 -2.1576  2.5646
 5731TIP3    H238609   1.889   0.477   5.146 -0.7945  0.9540  0.3016
 5732TIP3   OH238610   1.441   0.050   0.686 -0.1847 -0.3590 -0.1313
 5732TIP3    H138611   1.498   0.126   0.701  0.8025 -1.6664  3.2233
 5732TIP3    H238612   1.354   0.080   0.711 -0.2949  0.4491 -1.4330
 5733TIP3   OH238613   2.248   5.096   1.346 -0.2396  0.5269 -0.3268
 5733TIP3    H138614   2.153   5.107   1.359 -0.5895  0.3185 -2.5624
 5733TIP3    H238615   2.262   5.002   1.351 -0.0989  0.5712  0.2028
 5734TIP3   OH238616   0.235   1.820   5.291  0.1765  0.1079  0.3988
 5734TIP3    H138617   0.193   1.735   5.299  0.0055  0.2413  0.9323
 5734TIP3    H238618   0.221   1.845   5.200 -1.9689  0.6983  0.8603
 5735TIP3   OH238619   2.200   1.464  10.717  0.0847 -0.1347  0.2064
 5735TIP3    H138620   2.228   1.377  10.743 -1.3029 -1.0531 -1.2796
 5735TIP3    H238621   2.250   1.523  10.773  1.5277 -1.8544  0.7741
 5736TIP3   OH238622   5.906   6.452  10.903 -0.1595  0.0875 -0.0344
 5736TIP3    H138623   5.883   6.537  10.866 -2.1517  0.5770  2.2097
 5736TIP3    H238624   5.909   6.466  10.997  2.1351 -1.7525  0.2276
 5737TIP3   OH238625   3.678   5.846  16.547  0.1783 -0.1323  0.0866
 5737TIP3    H138626   3.591   5.878  16.521  0.5840  0.2329 -0.8293
 5737TIP3    H238627   3.734   5.923  16.546  0.5387 -0.3828  0.5967
 5738TIP3   OH238628   4.846   6.280  15.789 -0.6812  0.0731 -0.3502
 5738TIP3    H138629   4.764   6.237  15.814 -0.3370  0.2182  1.0760
 5738TIP3    H238630   4.863   6.342  15.860 -0.4188  1.5255 -1.6787
 5739TIP3   OH238631   4.299   5.615   1.763 -0.3203  0.3295  0.0224
 5739TIP3    H138632   4.332   5.547   1.822 -0.8931  0.0231 -0.0076
 5739TIP3    H238633   4.279   5.689   1.821 -2.1598 -0.4433  0.4022
 5740TIP3   OH238634   6.196   4.672   5.103  0.2440  0.3270 -0.3869
 5740TIP3    H138635   6.253   4.669   5.180 -1.3391  0.3924  0.8132
 5740TIP3    H238636   6.194   4.582   5.071  0.3512  0.1529  0.0856
 5741TIP3   OH238637   3.009   3.562   3.167  0.2582  0.2911  0.3079
 5741TIP3    H138638   3.060   3.627   3.118  0.2558  0.9175  1.1142
 5741TIP3    H238639   2.920   3.570   3.133  0.5404 -0.2918 -0.5903
 5742TIP3   OH238640   2.086   0.191  13.021  0.0252  0.5328 -0.4758
 5742TIP3    H138641   2.079   0.218  12.930 -0.1715  1.4334 -0.2044
 5742TIP3    H238642   2.172   0.224  13.049 -0.1594  0.7579 -0.1770
 5743TIP3   OH238643   4.060   3.586   6.135  0.1341  0.5730  0.2059
 5743TIP3    H138644   4.054   3.597   6.040 -1.1540  1.4497  0.3868
 5743TIP3    H238645   3.997   3.516   6.155 -0.9323  1.6478  0.6376
 5744TIP3   OH238646   3.619   6.661  13.225 -0.2750 -0.6168 -0.0561
 5744TIP3    H138647   3.588   6.651  13.136  0.2577  0.9353 -0.4377
 5744TIP3    H238648   3.665   6.745  13.225 -2.4081  0.6016  2.2910
 5745TIP3   OH238649   1.479   0.229   0.396 -0.5253 -0.2851 -0.0395
 5745TIP3    H138650   1.528   0.168   0.342  0.2479 -0.1548  0.4973
 5745TIP3    H238651   1.544   0.264   0.457 -0.9509  1.1120 -0.3760
 5746TIP3   OH238652   1.401   5.778  13.235  0.0625  0.2688  0.2157
 5746TIP3    H138653   1.328   5.718  13.220 -0.4349  1.0613 -0.5642
 5746TIP3    H238654   1.416   5.774  13.330 -0.9674  0.0575  0.3756
 5747TIP3   OH238655   0.705   3.450   0.972 -0.1424 -0.3825 -0.0684
 5747TIP3    H138656   0.787   3.456   1.020  0.0554 -0.3900 -0.3987
 5747TIP3    H238657   0.701   3.530   0.920 -0.7303 -0.0192  0.5472
 5748TIP3   OH238658   1.046   2.155  13.604  0.3028 -0.5155  0.2635
 5748TIP3    H138659   1.021   2.247  13.598  0.2824 -0.5933 -1.0919
 5748TIP3    H238660   0.962   2.109  13.612  0.1987 -0.5371 -0.8768
 5749TIP3   OH238661   4.964   2.864   0.584  0.2136  0.2909  0.8199
 5749TIP3    H138662   4.899   2.793   0.584 -0.2612  0.7256  1.2178
 5749TIP3    H238663   5.035   2.831   0.529 -1.1099  0.5063 -1.0924
 5750TIP3   OH238664   5.747   6.751   3.412 -0.5349  0.1496  0.5294
 5750TIP3    H138665   5.707   6.680   3.362  1.3222 -0.3269 -0.3438
 5750TIP3    H238666   5.752   6.824   3.350 -0.9700  0.5344  0.9418
 5751TIP3   OH238667   1.398   5.554   6.672  0.0362  0.2847 -0.5523
 5751TIP3    H138668   1.318   5.586   6.629 -0.0065 -0.3569 -0.9667
 5751TIP3    H238669   1.393   5.459   6.663 -0.3394  0.0810  1.5613
 5752TIP3   OH238670   0.372   1.178   3.559  0.1828 -0.1783 -0.3507
 5752TIP3    H138671   0.415   1.105   3.515 -0.4274  0.1797 -1.5618
 5752TIP3    H238672   0.289   1.189   3.512  0.5521  1.7091 -0.5757
 5753TIP3   OH238673   0.801   2.062  11.372  0.2471  0.3617 -0.2772
 5753TIP3    H138674   0.780   2.153  11.353  0.5177  0.3468 -0.6567
 5753TIP3    H238675   0.742   2.038  11.444  0.0474  0.7782 -0.3012
 5754TIP3   OH238676   6.484   1.242  15.459 -0.8296 -0.3369  0.2172
 5754TIP3    H138677   6.489   1.150  15.486  0.9842 -0.1826  0.4458
 5754TIP3    H238678   6.536   1.289  15.524 -2.5361  0.9860  0.6431
 5755TIP3   OH238679   4.808   2.939   1.349  0.4313 -0.5555 -0.7253
 5755TIP3    H138680   4.886   2.949   1.403 -0.0987  0.3969 -0.1092
 5755TIP3    H238681   4.747   2.889   1.403 -0.2526  0.7566 -0.2640
 5756TIP3   OH238682   2.324   5.020   1.040 -0.0441 -0.4902  0.1611
 5756TIP3    H138683   2.334   5.103   1.088  0.2281 -0.3113 -0.2066
 5756TIP3    H238684   2.271   5.043   0.964  0.5791 -0.5222 -0.2834
 5757TIP3   OH238685   1.977   5.552  13.775 -0.4412 -0.1982 -0.2443
 5757TIP3    H138686   2.010   5.516  13.693  1.4855 -0.1342  0.4571
 5757TIP3    H238687   2.056   5.565  13.828 -1.6071  0.2407  1.4179
 5758TIP3   OH238688   4.267   3.447  12.016 -0.0941 -0.3747  0.2291
 5758TIP3    H138689   4.211   3.397  12.075  0.5708 -1.0860  0.2689
 5758TIP3    H238690   4.220   3.529  12.001 -0.9242 -0.7831  0.6158
 5759TIP3   OH238691   2.315   1.119  16.220  0.1014 -0.3246 -0.0424
 5759TIP3    H138692   2.341   1.203  16.181  0.9136 -0.1171  0.9364
 5759TIP3    H238693   2.225   1.133  16.250 -0.2595 -0.2451 -1.1219
 5760TIP3   OH238694   5.967   5.864  16.112  0.1452  0.4219  0.8790
 5760TIP3    H138695   6.021   5.940  16.131  0.1816 -0.0130  2.6264
 5760TIP3    H238696   6.017   5.789  16.146 -0.0799 -0.3374 -0.4313
 5761TIP3   OH238697   3.343   4.300   2.857 -0.1003 -0.1865  0.6098
 5761TIP3    H138698   3.298   4.321   2.939 -1.6476  0.7915 -0.4646
 5761TIP3    H238699   3.274   4.269   2.799  0.4313  2.1408 -1.3391
 5762TIP3   OH238700   4.955   2.607   2.499 -0.8520 -0.1787  0.1120
 5762TIP3    H138701   4.943   2.685   2.553 -1.1723 -0.7598  0.8791
 5762TIP3    H238702   4.917   2.536   2.550  1.3854 -1.2203  0.3938
 5763TIP3   OH238703   3.494   1.477  11.442  0.6864  0.5394  0.1403
 5763TIP3    H138704   3.504   1.487  11.347  0.4906 -0.9840 -0.0583
 5763TIP3    H238705   3.512   1.564  11.477  0.3747  1.2142 -1.3227
 5764TIP3   OH238706   5.651   5.515   0.927  0.2558  0.0012 -0.2827
 5764TIP3    H138707   5.723   5.469   0.885 -0.1384 -1.7787  0.9028
 5764TIP3    H238708   5.624   5.456   0.998 -0.9491  1.6167  0.6275
 5765TIP3   OH238709   1.767   1.754   5.332  0.4437  0.4258  0.5661
 5765TIP3    H138710   1.804   1.825   5.384 -0.9576  1.5637  0.0642
 5765TIP3    H238711   1.672   1.763   5.343  0.2287 -1.0551  0.0857
 5766TIP3   OH238712   4.853   2.387   1.607 -0.1278  0.2511 -0.0902
 5766TIP3    H138713   4.921   2.447   1.638  0.3479 -1.2613  1.9131
 5766TIP3    H238714   4.888   2.351   1.525 -0.1841  2.2743 -1.0153
 5767TIP3   OH238715   0.594   4.782  16.316  0.3635 -0.0858  0.2391
 5767TIP3    H138716   0.578   4.693  16.285 -0.4863 -0.0900  0.6786
 5767TIP3    H238717   0.683   4.780  16.350  0.8612 -0.3951 -1.0633
 5768TIP3   OH238718   0.434   0.684   5.226 -0.6897  0.1486 -0.8741
 5768TIP3    H138719   0.454   0.594   5.250  0.3743  0.2216 -1.4835
 5768TIP3    H238720   0.356   0.678   5.171  0.4696 -0.5822 -2.4694
 5769TIP3   OH238721   2.226   5.548  15.090 -0.3876 -0.4248  0.0393
 5769TIP3    H138722   2.138   5.585  15.082  0.2331  1.3566  1.2463
 5769TIP3    H238723   2.276   5.590  15.019  0.3356  1.2175  1.4581
 5770TIP3   OH238724   6.574   3.331  15.091 -0.3106  0.4207  0.2733
 5770TIP3    H138725   6.554   3.357  15.001 -1.6883  0.1508  0.4855
 5770TIP3    H238726   6.636   3.258  15.082  0.4554  1.1591 -0.4236
 5771TIP3   OH238727   5.740   0.423   2.075  0.5165  0.1596 -0.1934
 5771TIP3    H138728   5.775   0.508   2.103 -1.4756  1.0491 -0.3700
 5771TIP3    H238729   5.646   0.437   2.066  0.0241 -2.3278  0.7161
 5772TIP3   OH238730   4.464   4.590   2.893 -0.9206 -0.1093 -0.4196
 5772TIP3    H138731   4.540   4.555   2.847 -0.9303 -1.6821  0.7168
 5772TIP3    H238732   4.393   4.529   2.873 -0.9699 -0.7209  1.4722
 5773TIP3   OH238733   5.795   5.188   1.730 -0.8220  0.2212  0.0492
 5773TIP3    H138734   5.808   5.097   1.753 -0.0740 -0.0756 -1.4332
 5773TIP3    H238735   5.873   5.211   1.679 -1.5423  1.3408 -0.5838
 5774TIP3   OH238736   5.647   1.813   3.817 -0.4168  0.4175 -0.0147
 5774TIP3    H138737   5.733   1.831   3.855 -0.3681 -2.4849  1.4278
 5774TIP3    H238738   5.665   1.785   3.727 -0.1085  2.5643 -0.6305
 5775TIP3   OH238739   5.997   5.871  13.082  0.1335 -0.3247 -0.0372
 5775TIP3    H138740   5.986   5.889  12.988  0.2134  1.0502  0.2202
 5775TIP3    H238741   6.026   5.779  13.085 -1.3784 -0.8560 -1.2715
 5776TIP3   OH238742   4.511   3.255   4.795  0.1685 -0.1634  0.2983
 5776TIP3    H138743   4.575   3.201   4.841 -1.3997 -0.9120  1.6709
 5776TIP3    H238744   4.430   3.205   4.799 -0.1209 -0.0833 -3.0324
 5777TIP3   OH238745   4.533   3.246   1.127 -0.0008 -0.4036  0.7091
 5777TIP3    H138746   4.569   3.215   1.044  0.9449  0.7818  0.6491
 5777TIP3    H238747   4.602   3.227   1.191 -0.4167 -0.6261  1.0961
 5778TIP3   OH238748   2.839   1.930  16.628 -0.3086  0.0833  0.2185
 5778TIP3    H138749   2.902   1.977  16.573  1.5814 -1.4203  1.0357
 5778TIP3    H238750   2.846   1.973  16.713  1.2507 -1.4222  0.9032
 5779TIP3   OH238751   5.716   6.498   6.068  0.1559 -0.1911  0.2223
 5779TIP3    H138752   5.707   6.556   6.143  1.6986 -0.4869  0.6545
 5779TIP3    H238753   5.799   6.524   6.027 -0.7345  0.0504 -1.4534
 5780TIP3   OH238754   1.178   6.508   2.565  0.1272  0.1352 -0.1580
 5780TIP3    H138755   1.148   6.473   2.481  1.8602 -1.3706 -0.1846
 5780TIP3    H238756   1.202   6.598   2.546 -1.1499  0.3432 -0.8719
 5781TIP3   OH238757   5.035   3.480  14.257  0.1956 -0.5143  0.3805
 5781TIP3    H138758   5.029   3.509  14.348 -0.5876  1.1392 -0.1911
 5781TIP3    H238759   5.048   3.385  14.263 -1.8002 -0.6941  2.1628
 5782TIP3   OH238760   0.060   3.717  15.376  0.3422 -0.2447 -0.1471
 5782TIP3    H138761   0.140   3.768  15.386 -0.0432  0.5265 -1.0150
 5782TIP3    H238762   0.090   3.626  15.372  1.1224 -0.0012  0.1483
 5783TIP3   OH238763   5.316   4.966   2.200  0.0235 -0.1101 -0.2310
 5783TIP3    H138764   5.282   4.943   2.114 -0.8898 -0.6814  0.2861
 5783TIP3    H238765   5.273   4.906   2.260  1.4752 -0.4346  0.5052
 5784TIP3   OH238766   0.264   1.353   3.767  0.5456 -0.1852  0.2865
 5784TIP3    H138767   0.289   1.445   3.768  1.2719 -0.3721 -0.2609
 5784TIP3    H238768   0.327   1.312   3.707 -1.5021 -0.5298 -1.7014
 5785TIP3   OH238769   5.008   4.258  15.827 -0.1972  0.0444 -0.4184
 5785TIP3    H138770   4.913   4.257  15.816 -0.0360  0.5252 -1.8934
 5785TIP3    H238771   5.026   4.339  15.875 -0.3915  0.7667 -1.5513
 5786TIP3   OH238772   1.944   2.299   0.271  0.5025 -0.0434 -0.5624
 5786TIP3    H138773   1.942   2.363   0.341  1.5362  0.5005 -1.0211
 5786TIP3    H238774   1.861   2.252   0.278  0.7647 -0.2522  1.2528
 5787TIP3   OH238775   5.108   6.577   4.843  0.0439 -0.0362 -0.0276
 5787TIP3    H138776   5.176   6.600   4.907  1.1161  1.3439 -1.6387
 5787TIP3    H238777   5.029   6.622   4.875  0.5762  0.6730  0.3090
 5788TIP3   OH238778   1.424   3.567  16.958  0.0119 -0.6225 -0.6463
 5788TIP3    H138779   1.455   3.501  17.020 -1.9295 -1.8835 -0.9735
 5788TIP3    H238780   1.464   3.543  16.875 -0.4031 -1.1736 -0.6861
 5789TIP3   OH238781   0.138   3.672  11.019 -0.0598  1.0040  0.0651
 5789TIP3    H138782   0.103   3.603  11.075  1.5850  0.3972  0.3651
 5789TIP3    H238783   0.119   3.643  10.930  1.6792 -0.4241  0.1474
 5790TIP3   OH238784   2.632   1.599   3.256  0.0949  0.0508  0.4842
 5790TIP3    H138785   2.646   1.615   3.349  0.6605  0.2399  0.3670
 5790TIP3    H238786   2.679   1.517   3.238 -1.0236 -0.6290  0.6236
 5791TIP3   OH238787   6.248   3.502   5.880 -0.6686  0.2065 -0.6088
 5791TIP3    H138788   6.153   3.508   5.888 -0.7858  0.7077 -2.1395
 5791TIP3    H238789   6.268   3.549   5.799  0.9805  0.9168  0.1753
 5792TIP3   OH238790   6.131   6.380   1.350 -0.0007  0.9544 -0.9224
 5792TIP3    H138791   6.063   6.377   1.283 -0.0897  0.4505 -0.8080
 5792TIP3    H238792   6.211   6.400   1.301 -0.2008  1.4011 -1.0754
 5793TIP3   OH238793   5.867   4.004  16.090  0.2625  0.3183 -0.9170
 5793TIP3    H138794   5.835   3.914  16.096  1.1837 -0.0146 -0.8666
 5793TIP3    H238795   5.937   4.000  16.025  0.6157  0.9071 -0.5813
 5794TIP3   OH238796   3.988   2.692  16.004 -0.2139  0.7443  0.6378
 5794TIP3    H138797   4.017   2.749  16.075 -0.3924 -0.0331  1.3428
 5794TIP3    H238798   4.045   2.616  16.010  0.9149  1.4340 -1.1547
 5795TIP3   OH238799   2.046   6.033  13.101 -0.4230  0.3034 -0.1065
 5795TIP3    H138800   2.074   5.964  13.041 -2.3516 -0.7731  0.1992
 5795TIP3    H238801   2.057   6.114  13.052 -1.0942 -0.4879 -1.5985
 5796TIP3   OH238802   2.192   5.654  11.147  0.0194  0.2884  0.1815
 5796TIP3    H138803   2.099   5.677  11.154 -0.3588 -1.4034  1.0540
 5796TIP3    H238804   2.214   5.670  11.056 -1.0404  1.0481  0.0485
 5797TIP3   OH238805   5.613   3.972  14.240  0.0210  0.2163 -0.0833
 5797TIP3    H138806   5.561   3.985  14.161  0.2714  0.2410 -0.2416
 5797TIP3    H238807   5.548   3.960  14.309 -0.2064 -0.9195 -0.4740
 5798TIP3   OH238808   0.366   5.777  12.140  0.1266  0.4324  0.1824
 5798TIP3    H138809   0.357   5.702  12.082 -0.6015 -0.8418  1.9348
 5798TIP3    H238810   0.458   5.803  12.131  0.3265 -0.5129 -0.5903
 5799TIP3   OH238811   0.087   1.508   4.456 -1.1227  0.0133  0.1722
 5799TIP3    H138812   0.085   1.489   4.362 -0.8134  0.2613  0.1113
 5799TIP3    H238813   0.000   1.543   4.476 -0.4834  2.1093 -0.4932
 5800TIP3   OH238814   4.297   6.111   1.803  0.1297  0.1221  0.2676
 5800TIP3    H138815   4.350   6.035   1.780 -0.1660 -0.3749  1.1955
 5800TIP3    H238816   4.239   6.124   1.729  2.2421  1.3193 -1.2397
 5801TIP3   OH238817   3.504   5.214   3.444  0.4489  0.3191  0.5301
 5801TIP3    H138818   3.453   5.209   3.525  0.5223 -0.4766  0.5359
 5801TIP3    H238819   3.487   5.130   3.401  1.2877  0.2931  0.2541
 5802TIP3   OH238820   0.333   4.269  16.588  0.0935 -0.4389 -0.1167
 5802TIP3    H138821   0.402   4.210  16.558  0.6457  1.0819 -1.9606
 5802TIP3    H238822   0.367   4.357  16.570 -2.6405  0.3379 -1.8239
 5803TIP3   OH238823   3.236   6.571  10.906  0.2459  0.6670  0.3627
 5803TIP3    H138824   3.219   6.477  10.911  0.1696  0.6860  0.4617
 5803TIP3    H238825   3.217   6.594  10.815  2.2731  0.1964 -0.1869
 5804TIP3   OH238826   0.088   3.307  12.785 -0.2785  0.4021  0.7501
 5804TIP3    H138827   0.014   3.268  12.831 -0.6642  0.9431  0.5932
 5804TIP3    H238828   0.064   3.399  12.773 -0.1546  0.2966 -0.4405
 5805TIP3   OH238829   4.114   5.498   4.847 -0.3846 -0.1765  0.9908
 5805TIP3    H138830   4.099   5.507   4.941  0.4770 -1.3688  1.2405
 5805TIP3    H238831   4.026   5.486   4.810 -0.6774 -0.1666  1.6810
 5806TIP3   OH238832   5.555   5.302  15.458 -0.2412  0.3550 -0.0677
 5806TIP3    H138833   5.517   5.389  15.455 -0.9282  0.0259 -1.5599
 5806TIP3    H238834   5.486   5.247  15.494 -0.9251 -0.0823 -1.9451
 5807TIP3   OH238835   5.984   3.352  11.661 -0.5370  1.0172 -0.4811
 5807TIP3    H138836   6.036   3.276  11.634 -2.0199 -0.3898  0.5438
 5807TIP3    H238837   5.950   3.388  11.579  0.2342  0.6107 -0.9866
 5808TIP3   OH238838   6.193   3.091  12.065  0.4181  0.3965  0.2493
 5808TIP3    H138839   6.188   3.051  11.978 -3.1477 -0.7958  0.9196
 5808TIP3    H238840   6.230   3.178  12.049  0.6685 -0.1408 -2.3312
 5809TIP3   OH238841   2.976   5.606  12.001  0.7748  0.2939 -0.0638
 5809TIP3    H138842   3.024   5.585  12.081  1.5286 -0.9509 -0.8267
 5809TIP3    H238843   2.939   5.522  11.973  0.1576  0.8017 -0.7900
 5810TIP3   OH238844   4.327   0.343  12.957  0.2612 -0.5528 -0.0735
 5810TIP3    H138845   4.264   0.376  13.022  1.6849  1.6385  0.2332
 5810TIP3    H238846   4.360   0.261  12.995 -0.7334 -0.5550  0.8100
 5811TIP3   OH238847   6.271   2.712  16.820 -0.2764  0.1674  0.2536
 5811TIP3    H138848   6.263   2.720  16.725  1.3690 -1.3140 -0.0162
 5811TIP3    H238849   6.184   2.735  16.853 -0.8144  0.8402 -1.5954
 5812TIP3   OH238850   6.492   3.500  13.034 -0.4786 -0.8145 -0.0131
 5812TIP3    H138851   6.498   3.595  13.050  1.1475 -0.8506 -0.2837
 5812TIP3    H238852   6.506   3.460  13.120  0.3261 -0.8304 -0.1450
 5813TIP3   OH238853   1.984   6.405  14.843  0.4437  0.1525 -0.5623
 5813TIP3    H138854   2.058   6.415  14.783  1.5375 -1.5782  0.4584
 5813TIP3    H238855   2.010   6.335  14.903 -2.5421 -1.4194 -0.9798
 5814TIP3   OH238856   2.419   4.336   5.317  0.2496 -0.5270 -0.2253
 5814TIP3    H138857   2.394   4.277   5.246 -0.4948  0.0883 -0.4809
 5814TIP3    H238858   2.337   4.351   5.365  0.2026  1.1545 -0.8089
 5815TIP3   OH238859   3.978   5.715   1.240  0.5849  0.5173 -0.2184
 5815TIP3    H138860   3.974   5.668   1.324  2.7365 -0.6872 -0.7441
 5815TIP3    H238861   3.898   5.691   1.194  0.0196  0.1314  0.9532
 5816TIP3   OH238862   6.459   3.100   1.023 -0.7124  0.0699  0.0973
 5816TIP3    H138863   6.427   3.020   1.066 -1.0513  0.6538  0.9593
 5816TIP3    H238864   6.537   3.072   0.975  0.2287 -0.4398  1.8498
 5817TIP3   OH238865   1.195   5.570  15.952  0.9257  0.5136 -0.1975
 5817TIP3    H138866   1.224   5.482  15.976 -0.4214 -0.1410 -0.8777
 5817TIP3    H238867   1.100   5.563  15.944  0.6874  2.2926  0.7547
 5818TIP3   OH238868   0.996   5.205  12.804 -0.3398 -0.1447  0.2731
 5818TIP3    H138869   0.953   5.139  12.859  0.3984 -0.0956  0.9184
 5818TIP3    H238870   1.024   5.157  12.726 -3.0749  0.1727 -0.9433
 5819TIP3   OH238871   6.544   3.863  13.843  0.1301 -1.0133 -0.2578
 5819TIP3    H138872   6.636   3.847  13.863 -0.1318 -1.3014  0.7281
 5819TIP3    H238873   6.536   3.841  13.750  0.7702 -2.2823 -0.0322
 5820TIP3   OH238874   0.223   5.338  16.956  0.8248 -0.7526  0.7980
 5820TIP3    H138875   0.270   5.264  16.917  0.5881 -1.2814  1.4852
 5820TIP3    H238876   0.279   5.367  17.028  2.6947  2.1634 -1.7579
 5821TIP3   OH238877   0.508   1.658   2.114  0.3118 -0.0425  0.2920
 5821TIP3    H138878   0.487   1.597   2.184  0.5763 -1.0957 -0.5332
 5821TIP3    H238879   0.425   1.670   2.067  0.7926 -1.7545 -1.0647
 5822TIP3   OH238880   5.632   4.962   2.923  0.1759 -0.2945 -0.2657
 5822TIP3    H138881   5.627   4.888   2.862 -0.5572 -0.0515 -0.5047
 5822TIP3    H238882   5.583   4.933   3.000  1.5848 -0.8272  0.4706
 5823TIP3   OH238883   5.637   4.929  16.470 -0.3544 -0.7110  0.1679
 5823TIP3    H138884   5.718   4.945  16.518 -1.1957 -1.2381  1.8046
 5823TIP3    H238885   5.644   4.983  16.392  1.4938 -0.6119  0.3882
 5824TIP3   OH238886   3.621   0.801   1.128 -0.1630  0.0510 -0.1457
 5824TIP3    H138887   3.667   0.725   1.163 -0.1261 -0.2052 -0.7555
 5824TIP3    H238888   3.552   0.819   1.193 -0.9007 -1.2063 -0.5794
 5825TIP3   OH238889   6.315   6.427  15.136 -0.1854  0.1558  0.2674
 5825TIP3    H138890   6.382   6.367  15.103 -1.2837 -1.1292  0.3407
 5825TIP3    H238891   6.364   6.492  15.187  0.8166 -2.0341  2.1949
 5826TIP3   OH238892   1.235   3.039   1.951 -0.0133  0.4581  0.1141
 5826TIP3    H138893   1.208   2.993   1.870  1.2641  1.2625 -0.7767
 5826TIP3    H238894   1.326   3.063   1.935 -0.3285  2.2830  1.0551
 5827TIP3   OH238895   0.984   4.541   0.855 -0.2348 -0.1659 -0.2472
 5827TIP3    H138896   0.994   4.615   0.795 -0.1976 -0.2929 -0.4006
 5827TIP3    H238897   1.054   4.481   0.829  0.2081  0.0809  0.3717
 5828TIP3   OH238898   5.790   2.582  10.743 -0.2540 -0.1148 -0.4164
 5828TIP3    H138899   5.702   2.620  10.751  0.4980  1.7740 -0.9995
 5828TIP3    H238900   5.810   2.589  10.649  0.1848 -1.3204 -0.4191
 5829TIP3   OH238901   0.231   6.425   3.098 -0.0596 -0.6173  1.0920
 5829TIP3    H138902   0.180   6.351   3.064  2.8652 -2.1719 -0.0906
 5829TIP3    H238903   0.231   6.413   3.193  0.3395 -2.1120  0.9111
 5830TIP3   OH238904   0.171   0.343  11.415 -0.2562 -0.2026 -0.0078
 5830TIP3    H138905   0.202   0.370  11.329 -0.5335  0.3578  0.0641
 5830TIP3    H238906   0.201   0.413  11.474  0.4211 -0.8570  0.4404
 5831TIP3   OH238907   0.110   4.581  11.203  0.1450  0.3627  0.3132
 5831TIP3    H138908   0.202   4.606  11.197 -0.2050  1.8776  1.0560
 5831TIP3    H238909   0.107   4.491  11.171  1.8117  0.4643 -0.1387
 5832TIP3   OH238910   6.028   3.633  11.220  0.4944  0.1375  0.0569
 5832TIP3    H138911   5.996   3.589  11.141  0.0826  0.9889 -0.2586
 5832TIP3    H238912   6.073   3.711  11.187 -1.1151  1.3883  0.7121
 5833TIP3   OH238913   1.611   2.253   2.101  0.3898 -0.1131 -0.1990
 5833TIP3    H138914   1.667   2.230   2.175  0.1350 -0.2021 -0.0318
 5833TIP3    H238915   1.639   2.341   2.076  0.6860 -0.2054 -0.1955
 5834TIP3   OH238916   1.968   5.540  17.195  0.2725 -0.5830  0.2901
 5834TIP3    H138917   1.959   5.445  17.184 -0.7140 -0.4236 -0.4287
 5834TIP3    H238918   1.923   5.577  17.119  0.5714  0.4662  0.6108
 5835TIP3   OH238919   0.297   4.590   4.970 -0.4359  0.7211  0.8816
 5835TIP3    H138920   0.251   4.523   5.021  1.2737  0.9330  2.7846
 5835TIP3    H238921   0.389   4.564   4.974 -0.1138  1.5610 -0.8958
 5836TIP3   OH238922   4.330   0.984   3.452  0.1808 -0.5043 -0.1516
 5836TIP3    H138923   4.238   0.995   3.476  0.9051  0.0943  2.4507
 5836TIP3    H238924   4.356   0.902   3.494  1.2356  0.1060  0.4001
 5837TIP3   OH238925   0.720   3.163   2.211  0.2105 -0.2133 -0.2308
 5837TIP3    H138926   0.630   3.159   2.179  0.1616 -2.0238  0.1016
 5837TIP3    H238927   0.711   3.173   2.306  0.3711 -0.4557 -0.1923
 5838TIP3   OH238928   4.920   5.114   6.184  0.0506  0.4188  0.6009
 5838TIP3    H138929   5.008   5.141   6.210  0.2349  0.6694 -0.2822
 5838TIP3    H238930   4.863   5.183   6.218  0.3627  1.0985 -0.2327
 5839TIP3   OH238931   5.351   6.393   5.885  0.0218 -0.2418  0.0082
 5839TIP3    H138932   5.264   6.430   5.900  1.3399  2.5591  1.0007
 5839TIP3    H238933   5.373   6.350   5.967  0.0312  0.0216  0.1444
 5840TIP3   OH238934   2.920   1.455  15.854  0.1876  0.2453  0.1787
 5840TIP3    H138935   2.875   1.508  15.920 -2.6508 -0.8579 -0.7804
 5840TIP3    H238936   2.978   1.398  15.903  0.0769  1.2806  1.5310
 5841TIP3   OH238937   1.128   5.805   3.183  0.1111 -0.5109 -0.1821
 5841TIP3    H138938   1.077   5.883   3.163  2.6582  1.4042  0.5282
 5841TIP3    H238939   1.153   5.816   3.275  2.4257 -1.0083 -0.7327
 5842TIP3   OH238940   3.706   3.763   4.295 -0.0570 -0.7201 -0.0567
 5842TIP3    H138941   3.783   3.711   4.274  0.3404 -1.1080  2.2366
 5842TIP3    H238942   3.632   3.708   4.268  0.4112 -1.2349 -0.3027
 5843TIP3   OH238943   5.498   5.103  12.835 -0.1338  0.4004  0.2110
 5843TIP3    H138944   5.469   5.148  12.914  1.9585  2.1178  0.0385
 5843TIP3    H238945   5.539   5.022  12.868 -3.2147 -1.1036  0.5578
 5844TIP3   OH238946   3.629   2.882   0.653  0.0615 -0.9667 -0.2533
 5844TIP3    H138947   3.553   2.933   0.625  0.5234 -0.0273  0.1855
 5844TIP3    H238948   3.647   2.824   0.579 -0.8125 -0.8914 -0.5380
 5845TIP3   OH238949   1.040   2.653   4.016  0.1254  0.6225 -0.0912
 5845TIP3    H138950   0.954   2.611   4.021  0.2432  0.3853 -0.0376
 5845TIP3    H238951   1.069   2.640   3.926  0.8304 -0.7481  0.3249
 5846TIP3   OH238952   3.264   5.731  13.622 -0.2855 -0.3673  0.4670
 5846TIP3    H138953   3.228   5.680  13.694 -2.3417 -1.4781 -1.2788
 5846TIP3    H238954   3.359   5.728  13.635 -0.6295 -0.3486  3.2212
 5847TIP3   OH238955   1.160   1.915  14.651  0.6236  0.0012  0.3648
 5847TIP3    H138956   1.147   1.820  14.653  0.3545  0.0504  2.0183
 5847TIP3    H238957   1.113   1.944  14.573 -1.5220 -0.9349  1.2648
 5848TIP3   OH238958   0.219   3.702  14.862 -0.5086 -0.3497  0.1271
 5848TIP3    H138959   0.206   3.793  14.890  0.6994 -0.7135  2.0134
 5848TIP3    H238960   0.248   3.657  14.942  0.5232 -2.0371 -1.1620
 5849TIP3   OH238961   5.415   2.176  11.985  0.3732 -0.5954 -0.0876
 5849TIP3    H138962   5.323   2.160  12.004  0.0419  0.1579 -1.0740
 5849TIP3    H238963   5.445   2.096  11.940  0.4086 -1.1533  0.9019
 5850TIP3   OH238964   0.750   3.783   1.717  0.0594  0.0362  0.3474
 5850TIP3    H138965   0.752   3.688   1.706  1.5073 -0.0302  1.1148
 5850TIP3    H238966   0.676   3.811   1.664 -0.5414 -1.5454  0.3089
 5851TIP3   OH238967   2.970   5.503   3.045 -0.4852  0.0297  0.0426
 5851TIP3    H138968   2.975   5.424   2.991  0.2071  0.9284 -1.2191
 5851TIP3    H238969   3.057   5.511   3.084 -0.1997  0.7982 -0.7395
 5852TIP3   OH238970   4.998   0.021   5.689  0.0759 -0.4955  0.3192
 5852TIP3    H138971   4.974  -0.068   5.662  1.4081 -0.9334  0.5377
 5852TIP3    H238972   4.953   0.034   5.772  0.4782 -1.2560  0.6606
 5853TIP3   OH238973   1.103   3.299  10.782  0.4423  0.2646  0.2501
 5853TIP3    H138974   1.149   3.299  10.698 -0.3671 -0.7042 -0.1907
 5853TIP3    H238975   1.113   3.210  10.816 -1.0082  0.0757  0.2079
 5854TIP3   OH238976   0.996   3.460   0.798  0.1974  0.1597 -0.3429
 5854TIP3    H138977   0.962   3.455   0.709  1.0359  0.0435 -0.6645
 5854TIP3    H238978   1.029   3.371   0.816 -1.3935 -0.2411  0.6620
 5855TIP3   OH238979   4.668   4.834  11.959 -0.7007  0.4240 -0.2866
 5855TIP3    H138980   4.683   4.815  11.866 -2.5230 -0.2223 -0.4686
 5855TIP3    H238981   4.715   4.765  12.005 -3.8542 -2.2547 -0.8708
 5856TIP3   OH238982   6.731   0.920  12.905 -0.1859 -0.4252  0.4840
 5856TIP3    H138983   6.743   0.991  12.842  0.5811  2.0834  3.3583
 5856TIP3    H238984   6.636   0.916  12.919 -0.4512 -1.6989 -1.5801
 5857TIP3   OH238985   0.532   4.763  14.649  0.0361 -0.4537 -0.0534
 5857TIP3    H138986   0.612   4.736  14.603  1.2649  0.4071  1.5571
 5857TIP3    H238987   0.522   4.698  14.718 -0.9622 -0.8564 -0.5667
 5858TIP3   OH238988   4.565   6.216   4.160 -0.1081 -0.6353 -0.3904
 5858TIP3    H138989   4.610   6.238   4.078 -0.7405  0.3838 -0.4734
 5858TIP3    H238990   4.629   6.239   4.228  1.0374 -2.9893 -0.6347
 5859TIP3   OH238991   2.986   6.581   5.009  0.5358 -0.8085 -0.0767
 5859TIP3    H138992   3.035   6.653   4.968  1.8989 -1.4774  0.3322
 5859TIP3    H238993   2.919   6.558   4.944  0.0605  0.8387 -0.1948
 5860TIP3   OH238994   1.481   4.285  13.043 -0.1273  0.2752  0.6377
 5860TIP3    H138995   1.543   4.295  12.970  1.3530 -0.5018  1.7842
 5860TIP3    H238996   1.418   4.220  13.012 -0.0847  0.6786 -0.3280
 5861TIP3   OH238997   4.494   2.900   3.692  0.5216 -0.2594 -0.3903
 5861TIP3    H138998   4.492   2.994   3.677  0.4792 -0.2217 -0.1548
 5861TIP3    H238999   4.532   2.890   3.780  0.1888 -0.4426 -0.2643
 5862TIP3   OH239000   3.683   4.125  14.316 -0.2065  0.0151  0.1853
 5862TIP3    H139001   3.605   4.162  14.357 -1.1630 -2.2576  0.4672
 5862TIP3    H239002   3.750   4.129  14.384 -0.8226 -0.5151  0.8236
 5863TIP3   OH239003   0.349   0.583   3.553  0.1811  0.5236 -0.0028
 5863TIP3    H139004   0.331   0.546   3.466  0.5621  1.7116 -0.5905
 5863TIP3    H239005   0.366   0.506   3.608 -0.8072 -0.2820 -0.7989
 5864TIP3   OH239006   5.744   0.156   0.814 -0.5393  0.1017 -0.0082
 5864TIP3    H139007   5.809   0.190   0.753 -0.8188  0.8336  0.0903
 5864TIP3    H239008   5.721   0.070   0.779  0.7658 -0.3347  0.1804
 5865TIP3   OH239009   0.733   3.473  11.290 -0.0266 -0.0116 -0.4989
 5865TIP3    H139010   0.670   3.521  11.343  1.1617  0.0285  0.9020
 5865TIP3    H239011   0.731   3.517  11.205 -2.0204 -0.1411 -0.5460
 5866TIP3   OH239012   4.788   3.507  13.883 -0.0558 -0.0084 -0.3645
 5866TIP3    H139013   4.831   3.438  13.933 -0.3144  1.3787  1.8388
 5866TIP3    H239014   4.716   3.462  13.838 -0.1020 -1.2301  0.8851
 5867TIP3   OH239015   4.654   4.066   2.317 -0.1730  1.0046  0.0841
 5867TIP3    H139016   4.620   4.059   2.227 -1.6704 -0.0249  0.7221
 5867TIP3    H239017   4.646   4.159   2.337  0.5468  1.3108 -0.9975
 5868TIP3   OH239018   3.115   5.894   0.193 -0.1181 -0.1622 -0.7533
 5868TIP3    H139019   3.123   5.826   0.127 -1.4077 -0.2805 -0.7853
 5868TIP3    H239020   3.112   5.847   0.276  1.8680  0.0023 -0.5576
 5869TIP3   OH239021   0.997   3.848   2.101 -0.6449  0.3258 -0.1345
 5869TIP3    H139022   0.967   3.875   2.014  0.1972 -1.7697 -1.0960
 5869TIP3    H239023   1.081   3.893   2.112  1.4380 -2.7891 -2.3223
 5870TIP3   OH239024   6.411   3.824   2.033 -0.2702 -0.0749 -0.5509
 5870TIP3    H139025   6.332   3.772   2.045  0.6363 -1.0713  1.3446
 5870TIP3    H239026   6.441   3.842   2.122  0.8010  1.5858 -1.2303
 5871TIP3   OH239027   4.657   0.677   1.961 -0.0603 -0.0682  0.3626
 5871TIP3    H139028   4.628   0.624   2.035 -1.7040  0.1270 -0.1243
 5871TIP3    H239029   4.577   0.697   1.913  0.8748  0.6114 -0.9420
 5872TIP3   OH239030   1.182   2.736  16.734  0.4335 -0.3839 -0.0194
 5872TIP3    H139031   1.168   2.750  16.640  1.8682 -0.9815 -0.3439
 5872TIP3    H239032   1.241   2.807  16.760  1.9192 -1.5627 -0.0969
 5873TIP3   OH239033   2.087   1.263  11.289 -0.2957  0.0857 -0.0876
 5873TIP3    H139034   2.090   1.305  11.203  3.5379 -0.4745 -0.2858
 5873TIP3    H239035   2.136   1.181  11.278 -0.5924 -0.4835  2.3915
 5874TIP3   OH239036   6.426   5.179   0.461 -0.1052 -0.2605  0.0621
 5874TIP3    H139037   6.401   5.260   0.505 -0.9356 -0.9455  0.8860
 5874TIP3    H239038   6.516   5.163   0.491  0.2279  0.5968 -0.4747
 5875TIP3   OH239039   0.051   5.814  10.403 -0.1699 -0.2303  0.3157
 5875TIP3    H139040   0.010   5.880  10.348 -0.0594  0.9200  1.5670
 5875TIP3    H239041   0.145   5.826  10.389 -0.0914  0.8707  1.6055
 5876TIP3   OH239042   5.804   6.321   0.376  0.3620  0.3370  0.0245
 5876TIP3    H139043   5.832   6.412   0.382  1.8663 -0.2267  2.2442
 5876TIP3    H239044   5.732   6.315   0.440  0.1774 -0.0076 -0.2161
 5877TIP3   OH239045   1.206   3.653   5.681  0.1619 -0.0034 -0.0622
 5877TIP3    H139046   1.202   3.561   5.656  0.2199 -0.1428  0.4387
 5877TIP3    H239047   1.142   3.662   5.751  0.3773  0.2676  0.1012
 5878TIP3   OH239048   0.168   5.897   0.408  0.4964  0.2547  0.5604
 5878TIP3    H139049   0.082   5.915   0.444  0.8270  1.0106  0.9915
 5878TIP3    H239050   0.208   5.836   0.470  0.0379 -0.6002  0.0244
 5879TIP3   OH239051   0.671   3.013   0.529 -0.1059  0.1064 -0.2448
 5879TIP3    H139052   0.685   2.920   0.551  0.5024  0.2185 -0.1653
 5879TIP3    H239053   0.757   3.045   0.505 -0.3783  0.5726 -0.6054
 5880TIP3   OH239054   4.676   4.333  15.377  0.4365 -0.9649 -0.1501
 5880TIP3    H139055   4.692   4.338  15.282 -0.6961 -0.2006 -0.3035
 5880TIP3    H239056   4.601   4.389  15.392  3.2261  2.4771  1.8338
 5881TIP3   OH239057   3.876   3.284  14.055  0.6148  0.4774  0.0278
 5881TIP3    H139058   3.811   3.340  14.012  1.3934  1.6312  0.3226
 5881TIP3    H239059   3.841   3.270  14.143  0.6999  0.9916  0.1454
 5882TIP3   OH239060   0.696   3.751   5.395  0.1721 -0.3790  0.4712
 5882TIP3    H139061   0.791   3.758   5.401  0.6353 -1.8792 -3.4079
 5882TIP3    H239062   0.673   3.794   5.312 -2.7819  1.5689  2.2086
 5883TIP3   OH239063   1.268   2.721  14.383 -0.1661 -0.4605 -0.4625
 5883TIP3    H139064   1.265   2.811  14.349 -1.7201  0.0620  0.9798
 5883TIP3    H239065   1.362   2.699  14.384  0.0473  0.1499 -3.3014
 5884TIP3   OH239066   2.170   0.322  13.496 -0.0439 -0.0166 -0.1469
 5884TIP3    H139067   2.153   0.398  13.551 -0.3570 -0.7971  0.8469
 5884TIP3    H239068   2.265   0.316  13.491 -0.0217  0.5626 -0.3971
 5885TIP3   OH239069   2.651   6.652  12.124 -0.4836 -0.3405  0.4414
 5885TIP3    H139070   2.609   6.573  12.159 -1.9152 -0.2883 -1.0654
 5885TIP3    H239071   2.662   6.633  12.030  3.8082 -0.7545  0.9255
 5886TIP3   OH239072   2.266   4.153  15.024  0.1147 -0.0781 -0.0974
 5886TIP3    H139073   2.305   4.214  14.961 -0.5329 -0.3817 -0.8001
 5886TIP3    H239074   2.179   4.189  15.041 -0.0140 -0.4372  0.0106
 5887TIP3   OH239075   0.876   6.465   5.542  0.2047 -0.2045 -0.1033
 5887TIP3    H139076   0.922   6.472   5.458  1.2335  0.3637  0.4965
 5887TIP3    H239077   0.832   6.549   5.552  0.6728 -0.0009  0.2622
 5888TIP3   OH239078   4.885   2.780   1.582  0.6358 -0.4503 -0.9516
 5888TIP3    H139079   4.892   2.703   1.526 -0.3178 -1.4041  0.2095
 5888TIP3    H239080   4.860   2.746   1.668 -0.5010  1.1991 -0.5845
 5889TIP3   OH239081   2.462   6.186  15.103 -0.4600  0.1127  0.0199
 5889TIP3    H139082   2.396   6.165  15.169 -1.9021  2.4503 -0.6073
 5889TIP3    H239083   2.511   6.258  15.141  1.3316 -1.1946  0.2058
 5890TIP3   OH239084   6.569   1.698  11.528 -0.0954 -0.2196  0.1536
 5890TIP3    H139085   6.596   1.704  11.620 -1.8026 -0.4900  0.6931
 5890TIP3    H239086   6.493   1.756  11.522 -0.0175 -0.2340 -1.0912
 5891TIP3   OH239087   2.879   4.113  15.746  0.7803  0.2096  0.0615
 5891TIP3    H139088   2.948   4.048  15.750  0.5955  0.0974  1.7238
 5891TIP3    H239089   2.809   4.071  15.694  1.7092  0.1206 -1.1438
 5892TIP3   OH239090   3.241   0.635   4.323  0.1640 -0.2149  0.5735
 5892TIP3    H139091   3.185   0.701   4.285  0.8392  0.0724  0.0675
 5892TIP3    H239092   3.329   0.674   4.322  0.9199 -1.8362 -1.5213
 5893TIP3   OH239093   0.293   2.930  14.083 -0.4697  0.3398  0.0989
 5893TIP3    H139094   0.336   2.907  14.001 -2.4522  0.4475 -1.0015
 5893TIP3    H239095   0.225   2.864  14.094 -1.7758  1.7112  0.4034
 5894TIP3   OH239096   5.093   5.225   4.261 -0.2746  0.0118  0.4259
 5894TIP3    H139097   5.175   5.274   4.270 -0.5474  0.5632 -0.0502
 5894TIP3    H239098   5.029   5.275   4.311 -0.6880  0.4743 -0.5492
 5895TIP3   OH239099   2.731   4.101  15.971 -0.6288 -0.0254  0.2163
 5895TIP3    H139100   2.790   4.123  15.899 -1.8280  1.3788 -0.3558
 5895TIP3    H239101   2.790   4.079  16.044  0.5945 -0.9180 -1.0162
 5896TIP3   OH239102   1.715   3.336  12.235  0.0915  0.0186 -0.0950
 5896TIP3    H139103   1.638   3.313  12.184  0.9780  0.0608 -1.4869
 5896TIP3    H239104   1.702   3.294  12.320 -1.1029 -0.5952 -0.5755
 5897TIP3   OH239105   5.457   0.375   5.435 -0.1569  0.3648  0.2691
 5897TIP3    H139106   5.534   0.363   5.490  0.0564 -0.0046 -0.1060
 5897TIP3    H239107   5.441   0.288   5.397 -1.7858  0.0233  1.6764
 5898TIP3   OH239108   4.618   1.865   6.393  0.0524  0.1338  0.6743
 5898TIP3    H139109   4.581   1.949   6.418 -0.4350  0.2614 -0.4820
 5898TIP3    H239110   4.667   1.882   6.313 -0.4734 -0.7714  0.1455
 5899TIP3   OH239111   2.338   5.745   5.757  0.3906 -0.0824 -0.5174
 5899TIP3    H139112   2.299   5.816   5.808 -0.3549  0.1683 -1.4214
 5899TIP3    H239113   2.266   5.684   5.742  0.6328 -0.2113 -1.1737
 5900TIP3   OH239114   1.518   3.156  13.951 -0.3223 -0.5344 -0.3721
 5900TIP3    H139115   1.561   3.071  13.945  1.7728  0.1925  2.6677
 5900TIP3    H239116   1.428   3.136  13.975  0.0947 -1.9137  0.1015
 5901TIP3   OH239117   5.498   2.680   1.282 -0.6911  0.1734 -0.4543
 5901TIP3    H139118   5.493   2.775   1.293  0.5656  0.2735 -0.7250
 5901TIP3    H239119   5.552   2.668   1.204 -0.5054 -0.7771 -0.1791
 5902TIP3   OH239120   4.763   1.697  12.674 -0.8460  0.1213 -0.1671
 5902TIP3    H139121   4.758   1.667  12.765  1.5704  1.9991  0.6127
 5902TIP3    H239122   4.705   1.773  12.671 -0.8402  0.1249 -0.1807
 5903TIP3   OH239123   2.990   5.388   1.687  0.4103 -0.0890 -0.7391
 5903TIP3    H139124   2.927   5.420   1.752  0.1516 -1.2298 -0.4087
 5903TIP3    H239125   3.018   5.303   1.721  0.3137 -0.6762 -2.0894
 5904TIP3   OH239126   4.078   6.527  13.935 -0.0420 -0.1286  0.0448
 5904TIP3    H139127   4.022   6.500  13.863 -0.1562  0.3953 -0.0626
 5904TIP3    H239128   4.148   6.461  13.937  0.8530  0.7614 -1.5727
 5905TIP3   OH239129   1.240   2.777  15.600 -0.5612 -0.1257 -0.4459
 5905TIP3    H139130   1.230   2.686  15.574  0.9714 -0.2624 -0.6034
 5905TIP3    H239131   1.330   2.799  15.578 -0.5919  1.1118  0.5670
 5906TIP3   OH239132   3.278   0.457  13.424 -0.6138 -0.0050  0.1365
 5906TIP3    H139133   3.328   0.534  13.450  1.0626 -1.0200  0.0458
 5906TIP3    H239134   3.217   0.488  13.358  0.0852  1.2184  0.0591
 5907TIP3   OH239135   2.158   0.339   5.778 -0.4343 -0.5539  0.1344
 5907TIP3    H139136   2.078   0.288   5.768 -1.4235  0.8883  0.5580
 5907TIP3    H239137   2.145   0.416   5.723 -0.0180  0.4563  1.4234
 5908TIP3   OH239138   2.876   2.059  14.022  0.2930 -0.2041  0.3209
 5908TIP3    H139139   2.791   2.019  14.008  0.4265 -1.4409  2.7190
 5908TIP3    H239140   2.916   2.063  13.935 -2.7536  1.7315 -1.0365
 5909TIP3   OH239141   5.199   5.733   1.434  0.2252 -0.3106 -0.1992
 5909TIP3    H139142   5.216   5.639   1.442  3.1936  0.1827 -0.0634
 5909TIP3    H239143   5.283   5.771   1.410 -0.8759  2.3560 -0.0655
 5910TIP3   OH239144   2.062   3.751   2.569 -0.1846 -1.2166 -0.0414
 5910TIP3    H139145   2.095   3.828   2.522 -2.0105  0.3830  1.2271
 5910TIP3    H239146   2.001   3.710   2.508 -1.9718  0.4325  0.5725
 5911TIP3   OH239147   4.985   4.945   5.979  0.0420  0.2585 -0.3133
 5911TIP3    H139148   5.081   4.949   5.978  0.0345  0.3480 -0.6954
 5911TIP3    H239149   4.960   4.996   6.057  0.2891  0.5551 -0.4250
 5912TIP3   OH239150   4.048   3.004  10.772  0.3595 -0.1567  0.1727
 5912TIP3    H139151   4.054   2.970  10.861 -1.7875  1.3022  0.9240
 5912TIP3    H239152   4.083   3.093  10.777 -0.0395  0.0372 -0.3634
 5913TIP3   OH239153   4.624   6.167   2.495  0.0152 -0.0996  0.0205
 5913TIP3    H139154   4.671   6.171   2.578  1.0453 -1.1592 -0.4969
 5913TIP3    H239155   4.691   6.147   2.430 -0.6740  1.3863 -1.1761
 5914TIP3   OH239156   3.598   3.532  13.729  0.2586 -0.3247 -0.3377
 5914TIP3    H139157   3.505   3.557  13.728  0.1876 -0.5919 -1.6028
 5914TIP3    H239158   3.645   3.614  13.716  0.1068 -0.4728 -1.9878
 5915TIP3   OH239159   3.243   3.851  13.603  0.5058  0.0762  0.1215
 5915TIP3    H139160   3.148   3.843  13.602  0.7181 -3.5283  1.5323
 5915TIP3    H239161   3.264   3.902  13.524 -2.5361  0.8361 -0.2648
 5916TIP3   OH239162   4.289   0.532  11.082  0.1290  0.0426 -0.1437
 5916TIP3    H139163   4.248   0.594  11.021  0.3541 -1.8834 -2.3128
 5916TIP3    H239164   4.366   0.500  11.035  1.3170 -0.1585  1.8797
 5917TIP3   OH239165   6.621   0.871  12.603 -0.2336 -0.2938  0.1820
 5917TIP3    H139166   6.598   0.884  12.511  0.8030  0.6920  0.0448
 5917TIP3    H239167   6.707   0.829  12.601  0.1451  0.4401  0.6919
 5918TIP3   OH239168   2.360   1.721   1.699  0.2522 -0.1255  0.0834
 5918TIP3    H139169   2.395   1.792   1.644 -0.8609  1.1024  0.9373
 5918TIP3    H239170   2.296   1.764   1.755 -0.6572 -1.8776  0.4074
 5919TIP3   OH239171   2.045   1.793  14.956  0.1725 -0.9832 -0.4044
 5919TIP3    H139172   2.115   1.742  14.999  1.4089 -2.4525 -3.9813
 5919TIP3    H239173   1.974   1.730  14.943 -0.6595 -0.2464  0.4933
 5920TIP3   OH239174   1.168   6.514  15.591 -0.5324  0.2461  0.5717
 5920TIP3    H139175   1.165   6.424  15.623  1.1057  0.0713  0.2920
 5920TIP3    H239176   1.099   6.518  15.525 -0.2205 -0.9923  0.1438
 5921TIP3   OH239177   5.102   4.965   2.906  0.5574  0.3111 -0.0411
 5921TIP3    H139178   5.112   5.022   2.982  0.6755 -0.3685  0.4477
 5921TIP3    H239179   5.011   4.977   2.879  0.0716 -0.6216  1.1417
 5922TIP3   OH239180   4.985   1.334  16.945  0.5041  0.0380 -0.2557
 5922TIP3    H139181   4.941   1.392  17.006  1.1396  0.2820 -0.0261
 5922TIP3    H239182   4.971   1.374  16.859  2.7851  1.7358  0.1187
 5923TIP3   OH239183   4.135   3.416  12.258 -0.1066  0.4195 -0.1323
 5923TIP3    H139184   4.211   3.465  12.289  2.3836 -2.9164 -0.6588
 5923TIP3    H239185   4.127   3.343  12.319 -1.6544 -0.3489 -1.2305
 5924TIP3   OH239186   1.433   4.445  11.369 -0.1513  0.1731  1.1693
 5924TIP3    H139187   1.463   4.383  11.303 -1.8289  0.8612 -0.2660
 5924TIP3    H239188   1.513   4.473  11.414  0.8550 -1.3464  0.3675
 5925TIP3   OH239189   3.464   4.998  13.268 -0.2345 -0.5270  0.4335
 5925TIP3    H139190   3.371   4.980  13.250 -0.3914 -0.1045  0.8023
 5925TIP3    H239191   3.511   4.943  13.206 -0.7436  0.0838 -0.5150
 5926TIP3   OH239192   5.746   1.341   2.332  0.1868 -0.2488 -0.1085
 5926TIP3    H139193   5.671   1.382   2.374  0.5908 -0.7879  1.1561
 5926TIP3    H239194   5.799   1.308   2.404  1.1035 -0.8123 -1.0264
 5927TIP3   OH239195   6.189   1.248   4.588  0.2141 -0.4828 -0.3204
 5927TIP3    H139196   6.167   1.280   4.676 -0.3728  0.4066 -0.7793
 5927TIP3    H239197   6.230   1.323   4.545  1.1214 -1.1264 -0.5824
 5928TIP3   OH239198   1.788   2.258   4.611  0.4233 -0.4621  0.2162
 5928TIP3    H139199   1.721   2.325   4.597  0.8481 -0.0804 -0.0190
 5928TIP3    H239200   1.850   2.299   4.672  0.0594 -1.0815  1.0111
 5929TIP3   OH239201   6.260   1.058  10.598  0.3023  0.0708  0.2616
 5929TIP3    H139202   6.309   1.093  10.672 -1.6803 -1.7437  2.4992
 5929TIP3    H239203   6.170   1.088  10.612  0.0410  0.3180 -1.8103
 5930TIP3   OH239204   1.853   0.282   4.916 -0.1086 -0.1775  0.5304
 5930TIP3    H139205   1.839   0.341   4.989  0.5439 -0.2407  0.7140
 5930TIP3    H239206   1.835   0.334   4.838  0.6146  0.3083  0.6854
 5931TIP3   OH239207   0.499   4.036  11.464 -0.2525 -0.5309 -0.1784
 5931TIP3    H139208   0.482   4.050  11.371 -3.0681  1.7269  0.6139
 5931TIP3    H239209   0.462   3.950  11.483  0.8925 -1.2860 -1.2164
 5932TIP3   OH239210   6.489   3.621  15.145  0.3571  0.1690 -0.2805
 5932TIP3    H139211   6.540   3.673  15.084 -0.9234  0.9755 -0.6703
 5932TIP3    H239212   6.400   3.656  15.139  0.1221 -0.0049  1.7384
 5933TIP3   OH239213   2.259   3.275  12.703  0.7210 -0.0090 -0.1841
 5933TIP3    H139214   2.310   3.249  12.779 -0.8569 -0.5876  0.7069
 5933TIP3    H239215   2.251   3.196  12.650  1.7983  0.3867 -0.9566
 5934TIP3   OH239216   1.280   1.664   2.960  0.3711 -0.4230 -0.6267
 5934TIP3    H139217   1.212   1.597   2.952  0.4340 -0.3695 -1.6343
 5934TIP3    H239218   1.289   1.678   3.055 -0.5498 -0.9054 -0.4642
 5935TIP3   OH239219   3.903   5.137   6.271 -0.1196 -0.1137  0.5246
 5935TIP3    H139220   3.845   5.131   6.348  0.4758 -1.6580  0.8864
 5935TIP3    H239221   3.981   5.182   6.303 -0.0517 -0.3708  0.7260
 5936TIP3   OH239222   6.496   2.044  16.058  0.2128 -0.1428 -0.0252
 5936TIP3    H139223   6.483   1.972  16.120  2.7336 -0.0613  0.6180
 5936TIP3    H239224   6.432   2.110  16.084  0.3746 -0.6395  1.6728
 5937TIP3   OH239225   1.134   3.461  13.849 -0.7936  0.0531  0.0579
 5937TIP3    H139226   1.050   3.429  13.816 -0.9602  0.5467 -0.0077
 5937TIP3    H239227   1.180   3.492  13.770 -1.5961  2.1616  0.3901
 5938TIP3   OH239228   6.639   4.033  15.405 -0.5501  0.3056 -0.1455
 5938TIP3    H139229   6.700   4.008  15.336  2.4395 -0.2107  2.5566
 5938TIP3    H239230   6.645   3.962  15.469 -1.4446  1.8553  1.7227
 5939TIP3   OH239231   3.406   1.652   0.005 -0.1938 -0.5676 -0.1803
 5939TIP3    H139232   3.391   1.736   0.049 -0.5135 -0.3226 -0.7444
 5939TIP3    H239233   3.411   1.675  -0.088 -0.2116 -1.1668 -0.3267
 5940TIP3   OH239234   5.241   0.979   4.764 -0.0129 -0.3239 -0.2899
 5940TIP3    H139235   5.177   1.050   4.766  0.2699 -0.0773 -0.1056
 5940TIP3    H239236   5.225   0.930   4.845 -0.5104 -0.7380 -0.6320
 5941TIP3   OH239237   4.145   1.550  15.381  0.2747 -0.2395 -0.2771
 5941TIP3    H139238   4.231   1.520  15.410 -0.4306 -0.8033  1.2682
 5941TIP3    H239239   4.096   1.469  15.365 -0.1634  0.0806 -0.5721
 5942TIP3   OH239240   4.414   1.188   2.193 -0.0614 -0.3223 -0.3818
 5942TIP3    H139241   4.464   1.264   2.164  0.5552 -0.4505  0.3453
 5942TIP3    H239242   4.344   1.224   2.248 -0.9051 -0.1273 -1.5520
 5943TIP3   OH239243   6.078   0.367   1.494  0.7440  0.1988  0.2866
 5943TIP3    H139244   6.038   0.399   1.575 -0.4938  1.0747 -0.6404
 5943TIP3    H239245   6.079   0.443   1.436  0.7244 -0.6501 -0.8515
 5944TIP3   OH239246   2.352   6.591   2.310 -0.3296  0.6426  0.3804
 5944TIP3    H139247   2.266   6.626   2.332 -0.1190  1.4411 -0.0172
 5944TIP3    H239248   2.406   6.669   2.298  0.5549  0.1396  1.0368
 5945TIP3   OH239249   0.833   6.317   2.259  0.2375  0.3004 -0.4337
 5945TIP3    H139250   0.786   6.357   2.185 -1.6513 -1.1581 -0.0793
 5945TIP3    H239251   0.816   6.375   2.332 -2.6462 -1.0987  0.1203
 5946TIP3   OH239252   6.254   6.574  15.757  0.1036  0.7793 -0.0330
 5946TIP3    H139253   6.232   6.617  15.839 -0.2061 -0.4650  0.5530
 5946TIP3    H239254   6.176   6.523  15.734  0.8533 -0.3508 -0.1158
 5947TIP3   OH239255   2.102   2.974   5.713 -0.3274 -0.3799  0.0320
 5947TIP3    H139256   2.063   2.904   5.766  0.6286 -1.2716 -0.4323
 5947TIP3    H239257   2.175   2.932   5.668  0.0709  0.8521 -0.4837
 5948TIP3   OH239258   6.096   4.780   4.867  0.2153 -0.5542 -0.0551
 5948TIP3    H139259   6.045   4.709   4.828 -0.9892  0.4076 -0.2592
 5948TIP3    H239260   6.121   4.747   4.953  2.7119 -2.6266 -1.4898
 5949TIP3   OH239261   1.110   1.737  16.786  0.5161  0.3240  0.7579
 5949TIP3    H139262   1.080   1.819  16.826  0.9508  0.9745 -0.2321
 5949TIP3    H239263   1.203   1.732  16.807  0.5984  0.3336  0.4036
 5950TIP3   OH239264   5.106   2.333   0.825  0.2307  0.3177 -0.0795
 5950TIP3    H139265   5.192   2.315   0.863  0.2485  0.5023 -0.0364
 5950TIP3    H239266   5.125   2.359   0.735  0.1469 -0.7825 -0.4249
 5951TIP3   OH239267   4.437   5.340   3.835 -0.6378 -0.4460  0.6734
 5951TIP3    H139268   4.522   5.384   3.841 -0.3601 -0.6208 -1.5671
 5951TIP3    H239269   4.374   5.407   3.859 -0.0664  0.6416 -0.7360
 5952TIP3   OH239270   5.472   0.385   2.913  0.4189  0.2469 -0.1753
 5952TIP3    H139271   5.384   0.413   2.889  0.0167  0.4549  1.4973
 5952TIP3    H239272   5.530   0.448   2.870 -0.1161 -1.0460 -2.9242
 5953TIP3   OH239273   5.981   1.940  11.447  0.1155  0.1284 -0.1029
 5953TIP3    H139274   5.977   1.973  11.357  0.2049  1.2663  0.3025
 5953TIP3    H239275   6.048   1.993  11.489  1.6354 -1.8441  0.0635
 5954TIP3   OH239276   6.232   5.206  17.116 -0.0364 -0.6562  0.1290
 5954TIP3    H139277   6.190   5.285  17.149  0.3415 -0.5399  0.3274
 5954TIP3    H239278   6.289   5.236  17.045 -1.1012 -0.9429 -0.8702
 5955TIP3   OH239279   3.979   4.354   3.030  0.0546  0.4008 -0.1815
 5955TIP3    H139280   3.897   4.329   2.987  0.0112  0.4321 -0.1163
 5955TIP3    H239281   3.962   4.340   3.123  1.0729 -2.4049 -0.3706
 5956TIP3   OH239282   3.966   6.508   3.494  0.1355  0.4458  0.3117
 5956TIP3    H139283   4.011   6.588   3.467  2.9116 -0.9028  0.7407
 5956TIP3    H239284   3.922   6.531   3.576  0.1961  1.7361 -0.0136
 5957TIP3   OH239285   6.262   1.024  12.288 -0.4824 -0.8217  0.0084
 5957TIP3    H139286   6.299   0.942  12.319 -0.3522  0.3230  3.0009
 5957TIP3    H239287   6.336   1.085  12.285 -0.9662 -0.2354 -0.1558
 5958TIP3   OH239288   5.466   1.803   5.002 -0.0743 -0.3206 -0.3262
 5958TIP3    H139289   5.371   1.792   4.997 -0.1163  0.4587 -1.2755
 5958TIP3    H239290   5.492   1.835   4.916  0.8050  1.2056  0.4759
 5959TIP3   OH239291   1.798   5.756   2.235 -0.2012  0.3124 -0.4852
 5959TIP3    H139292   1.706   5.738   2.216 -0.3136  1.1291 -0.7196
 5959TIP3    H239293   1.796   5.803   2.319  0.1786 -1.8766  0.8055
 5960TIP3   OH239294   3.450   1.182  16.860  0.5672 -0.1529 -0.1956
 5960TIP3    H139295   3.503   1.211  16.786  1.8976 -2.1026 -0.0454
 5960TIP3    H239296   3.463   1.087  16.862 -1.6645 -0.4532  0.8425
 5961TIP3   OH239297   2.764   3.962   2.722 -0.6818  0.1918 -0.4778
 5961TIP3    H139298   2.740   3.910   2.799 -0.9170  0.1062 -0.6083
 5961TIP3    H239299   2.811   3.901   2.665  1.5660  0.8264  0.6211
 5962TIP3   OH239300   4.502   2.094  12.416  0.2234  0.1929  0.4376
 5962TIP3    H139301   4.549   2.049  12.487 -0.1959  0.6262  1.0015
 5962TIP3    H239302   4.509   2.186  12.439  0.8430  0.4059 -0.5709
 5963TIP3   OH239303   1.403   0.961   3.936 -0.1106 -0.0252 -0.3939
 5963TIP3    H139304   1.449   0.878   3.948 -1.8491 -0.7991  1.3323
 5963TIP3    H239305   1.314   0.935   3.910 -0.4159  1.3175 -0.7158
 5964TIP3   OH239306   6.282   3.798   5.049  0.0706  0.3800  0.2908
 5964TIP3    H139307   6.354   3.836   4.999  0.2751 -0.3916 -0.0079
 5964TIP3    H239308   6.317   3.715   5.082 -0.4183  0.3794  0.8033
 5965TIP3   OH239309   0.460   5.777   1.693 -0.2918 -0.2530  0.2413
 5965TIP3    H139310   0.432   5.750   1.606 -0.6793  0.0523  0.2726
 5965TIP3    H239311   0.400   5.848   1.717  0.5359  0.4505  0.2723
 5966TIP3   OH239312   6.022   3.124   3.070 -0.2117 -0.2286 -0.3433
 5966TIP3    H139313   6.056   3.072   2.997  0.5789 -2.7659  1.7403
 5966TIP3    H239314   5.930   3.096   3.079 -0.2578 -0.0521 -0.2590
 5967TIP3   OH239315   4.369   1.928   4.390 -0.0844  0.0640 -0.3004
 5967TIP3    H139316   4.422   1.859   4.350 -1.3961 -1.0810 -0.0899
 5967TIP3    H239317   4.430   1.976   4.446  1.0908 -0.2060 -1.3211
 5968TIP3   OH239318   4.695   2.822   2.005 -0.0053  0.2629 -0.3488
 5968TIP3    H139319   4.719   2.909   2.036  0.0868 -0.2185  0.9815
 5968TIP3    H239320   4.635   2.788   2.072  0.4293 -0.9188 -0.5357
 5969TIP3   OH239321   5.954   0.177  14.356 -0.2123  0.7611 -0.1615
 5969TIP3    H139322   6.021   0.120  14.319  1.2114  2.0089  0.4564
 5969TIP3    H239323   5.965   0.170  14.451 -2.6450 -1.0070  0.0481
 5970TIP3   OH239324   3.006   2.152   6.099 -0.0040  0.3849  0.5883
 5970TIP3    H139325   2.983   2.145   6.006  1.3403 -1.9139  0.3905
 5970TIP3    H239326   2.944   2.095   6.143  1.2994 -0.9571  0.7320
 5971TIP3   OH239327   0.560   2.508   5.898 -0.1465  0.2161  0.0663
 5971TIP3    H139328   0.499   2.541   5.965 -1.6017 -0.4487 -0.9126
 5971TIP3    H239329   0.623   2.580   5.886  0.2514  0.2872  2.2647
 5972TIP3   OH239330   0.499   4.546  16.224  0.4076  0.0028 -0.0055
 5972TIP3    H139331   0.576   4.519  16.172 -0.5722 -0.0318 -1.4723
 5972TIP3    H239332   0.425   4.506  16.179 -0.6876  1.7742  0.1819
 5973TIP3   OH239333   1.842   3.883  14.189  0.3315  0.2954 -0.2084
 5973TIP3    H139334   1.809   3.815  14.129  0.8927 -0.8196  0.7178
 5973TIP3    H239335   1.937   3.878  14.179  0.3908  0.6029  0.2445
 5974TIP3   OH239336   3.178   6.126   0.820  0.1375  0.1936 -0.0800
 5974TIP3    H139337   3.096   6.176   0.818  0.4685  0.6933 -1.6816
 5974TIP3    H239338   3.230   6.162   0.748  1.5030 -0.5760  0.5062
 5975TIP3   OH239339   2.254   2.104   5.474 -0.2285 -0.0478  0.6354
 5975TIP3    H139340   2.253   2.198   5.455  0.1094 -0.2995 -0.6911
 5975TIP3    H239341   2.286   2.064   5.394  0.8182 -1.2070  1.6119
 5976TIP3   OH239342   3.507   1.694   1.395 -0.0305  0.3797  0.0835
 5976TIP3    H139343   3.538   1.709   1.306  0.8227  0.4587  0.3845
 5976TIP3    H239344   3.465   1.608   1.392 -0.2882  0.5202 -0.4606
 5977TIP3   OH239345   4.687   6.361   5.746  0.3434 -0.0228  0.4233
 5977TIP3    H139346   4.691   6.388   5.838 -0.6395 -0.3379  0.5623
 5977TIP3    H239347   4.606   6.400   5.713  0.1650 -0.7733 -0.0250
 5978TIP3   OH239348   5.987   0.751  11.480  0.4632  0.6033 -0.0134
 5978TIP3    H139349   6.081   0.761  11.499  0.7870  0.1024 -1.2349
 5978TIP3    H239350   5.954   0.841  11.474  1.3324  0.8421 -1.6524
 5979TIP3   OH239351   5.862   0.690  12.436  0.0807 -0.1807 -0.0380
 5979TIP3    H139352   5.880   0.618  12.496 -1.3820 -0.7875 -0.3141
 5979TIP3    H239353   5.772   0.717  12.456  0.2748  0.9239 -0.5911
 5980TIP3   OH239354   6.310   3.709   3.210 -0.6645  0.1052  0.3076
 5980TIP3    H139355   6.326   3.622   3.173 -0.4871 -0.1317  0.9223
 5980TIP3    H239356   6.244   3.694   3.278  0.1453  0.2657  1.1475
 5981TIP3   OH239357   3.150   4.898  11.439 -0.6049  0.8659 -0.0957
 5981TIP3    H139358   3.202   4.961  11.489 -0.6563 -0.2854  1.4506
 5981TIP3    H239359   3.165   4.921  11.347  2.0346  1.0504  0.3448
 5982TIP3   OH239360   4.194   0.799   0.489 -0.5649 -0.5373 -0.0892
 5982TIP3    H139361   4.133   0.736   0.452 -0.8726 -0.8773  0.9713
 5982TIP3    H239362   4.155   0.884   0.471 -2.0627 -0.7876  1.7371
 5983TIP3   OH239363   4.865   2.202   5.541  0.4059 -0.1724  0.4262
 5983TIP3    H139364   4.775   2.218   5.512  0.5904  0.6206  0.2769
 5983TIP3    H239365   4.856   2.141   5.615 -0.3534  0.9713  1.2870
 5984TIP3   OH239366   5.650   6.527  11.011  0.4390 -0.0556  0.4192
 5984TIP3    H139367   5.559   6.529  10.982  0.5220  1.3225  0.2253
 5984TIP3    H239368   5.664   6.612  11.052  1.8035 -0.0375 -0.0530
 5985TIP3   OH239369   4.508   2.723   2.499  0.0694  0.1545 -0.7108
 5985TIP3    H139370   4.483   2.650   2.442  0.3583 -0.1248 -0.4787
 5985TIP3    H239371   4.427   2.750   2.541  0.6111 -2.6442  2.2697
 5986TIP3   OH239372   4.528   5.602  14.531 -0.2995  0.0706  0.2192
 5986TIP3    H139373   4.469   5.609  14.606 -0.6234 -1.7427  0.1505
 5986TIP3    H239374   4.609   5.644  14.560 -0.0262 -1.6241  2.0183
 5987TIP3   OH239375   0.992   1.059   0.601  0.0951 -0.2227 -0.3339
 5987TIP3    H139376   1.069   1.080   0.548  0.1549  1.6180  0.4474
 5987TIP3    H239377   0.995   1.120   0.674 -1.8614 -0.4259 -0.0417
 5988TIP3   OH239378   4.364   2.460  12.782 -0.8848 -0.5166 -0.4112
 5988TIP3    H139379   4.458   2.458  12.766 -0.8560  0.4019 -0.3380
 5988TIP3    H239380   4.352   2.519  12.856 -1.3643 -2.0356  0.7431
 5989TIP3   OH239381   1.199   3.668  16.151  0.0053 -0.1856 -0.3385
 5989TIP3    H139382   1.112   3.699  16.174  0.4995 -0.8603  2.7001
 5989TIP3    H239383   1.256   3.744  16.166  0.2416 -0.4270  0.0114
 5990TIP3   OH239384   0.177   4.955  17.048 -0.3018 -0.5083  0.0591
 5990TIP3    H139385   0.138   5.004  17.121 -0.3416  0.0656 -0.3379
 5990TIP3    H239386   0.221   4.881  17.089  0.3214  0.2366  0.7333
 5991TIP3   OH239387   1.652   6.123  12.767  0.0850 -0.0308  0.5861
 5991TIP3    H139388   1.633   6.150  12.856 -1.1404 -1.6772  0.8541
 5991TIP3    H239389   1.566   6.119  12.724  0.5522 -0.3171 -0.3443
 5992TIP3   OH239390   2.575   3.335  14.975  0.0845  0.3108  0.2305
 5992TIP3    H139391   2.647   3.332  15.038 -1.7793  0.9520  2.4544
 5992TIP3    H239392   2.582   3.421  14.934  0.8383  0.1994  0.1274
 5993TIP3   OH239393   4.371   0.788   4.326  1.0152 -0.1176  0.3162
 5993TIP3    H139394   4.414   0.864   4.365  1.3207 -0.9034  1.5380
 5993TIP3    H239395   4.385   0.798   4.232  1.6930  0.9445  0.5234
 5994TIP3   OH239396   3.420   2.080  13.632 -0.2147  0.2472  0.1161
 5994TIP3    H139397   3.417   2.069  13.537  2.1709 -0.3045  0.0782
 5994TIP3    H239398   3.340   2.039  13.663 -0.8750  0.1652 -1.6388
 5995TIP3   OH239399   2.571   2.702  16.409 -0.1240  0.0043 -0.2933
 5995TIP3    H139400   2.492   2.683  16.359 -0.0057 -0.5748 -0.2717
 5995TIP3    H239401   2.539   2.740  16.491 -0.3005  1.2264 -0.9264
 5996TIP3   OH239402   0.191   4.589  15.579 -0.1041  0.0347  0.1004
 5996TIP3    H139403   0.166   4.626  15.495 -0.3242  0.0226  0.1605
 5996TIP3    H239404   0.108   4.567  15.621 -0.0717  1.6813  1.0689
 5997TIP3   OH239405   5.364   4.314  15.418  0.0776 -0.4461 -0.0769
 5997TIP3    H139406   5.276   4.308  15.382 -0.4355  1.5458  0.7925
 5997TIP3    H239407   5.351   4.327  15.512  1.3250 -1.1271  0.2027
 5998TIP3   OH239408   2.658   0.607   2.002  0.0627 -0.2420  0.2564
 5998TIP3    H139409   2.648   0.695   1.965  2.2035 -0.0450  0.0381
 5998TIP3    H239410   2.753   0.594   2.004 -0.1797 -1.8245  2.0117
 5999TIP3   OH239411   0.955   5.428   5.364  0.4790  0.4864 -0.1123
 5999TIP3    H139412   0.922   5.494   5.303 -2.5387  0.4022  1.3415
 5999TIP3    H239413   0.928   5.344   5.326  0.1824  0.3424  0.4103
 6000TIP3   OH239414   4.297   4.749   2.737 -0.4253 -0.6593  0.2323
 6000TIP3    H139415   4.337   4.711   2.815  0.4211 -1.5922 -0.6332
 6000TIP3    H239416   4.213   4.703   2.728  1.2699 -3.5534 -1.6893
 6001TIP3   OH239417   2.167   5.947  11.044  0.2093  0.2461 -0.3355
 6001TIP3    H139418   2.216   5.898  10.978  0.2610 -1.2154  0.7779
 6001TIP3    H239419   2.084   5.900  11.053  0.0948  0.5850  0.4393
 6002TIP3   OH239420   5.914   3.827   4.262  0.3423  0.0705  0.0600
 6002TIP3    H139421   5.978   3.806   4.330  0.5246  0.9369  0.1581
 6002TIP3    H239422   5.938   3.770   4.189  0.9958  0.1265  0.2268
 6003TIP3   OH239423   1.405   0.785   0.239 -0.1210 -0.4873 -0.3814
 6003TIP3    H139424   1.443   0.790   0.152  1.9472 -1.9244  0.3745
 6003TIP3    H239425   1.377   0.693   0.248  1.8458 -0.9671  1.2750
 6004TIP3   OH239426   1.454   0.453   4.646  0.7035 -0.3231  0.3755
 6004TIP3    H139427   1.471   0.533   4.695  0.9724  0.3750 -0.8629
 6004TIP3    H239428   1.388   0.477   4.582  1.7310 -0.7643 -0.8618
 6005TIP3   OH239429   0.079   1.643   3.084  0.1130 -0.6225 -0.3187
 6005TIP3    H139430  -0.010   1.609   3.086  0.1515 -0.7751 -0.9608
 6005TIP3    H239431   0.069   1.738   3.077  0.0042 -0.5480  0.8050
 6006TIP3   OH239432   2.610   1.095   1.767 -0.3762  0.3369  0.0789
 6006TIP3    H139433   2.615   1.013   1.817 -0.2041  0.3712  0.1205
 6006TIP3    H239434   2.700   1.130   1.770  0.1728 -0.8076 -2.2151
 6007TIP3   OH239435   6.187   1.949   2.743 -0.6212  0.1733  0.2445
 6007TIP3    H139436   6.179   1.885   2.672  1.3362 -0.8494  0.9270
 6007TIP3    H239437   6.097   1.978   2.759 -1.2221 -0.4789 -1.8243
 6008TIP3   OH239438   0.250   4.492  10.932  0.3988 -0.7242  0.8305
 6008TIP3    H139439   0.307   4.553  10.980 -1.4208  1.7237  0.0240
 6008TIP3    H239440   0.207   4.441  11.000 -0.6256  1.2996  1.7579
 6009TIP3   OH239441   1.972   5.358   5.799  0.1287 -0.1272  0.2138
 6009TIP3    H139442   2.005   5.345   5.888  1.7690 -0.0912 -0.3773
 6009TIP3    H239443   1.878   5.345   5.807  0.1830  0.3362  2.0529
 6010TIP3   OH239444   6.430   5.657   1.802  0.0560 -0.1623 -0.3941
 6010TIP3    H139445   6.368   5.585   1.794  1.2517 -1.3319  0.6840
 6010TIP3    H239446   6.515   5.615   1.816  0.5236  1.4722  2.0222
 6011TIP3   OH239447   3.568   2.804  13.469  0.1158 -0.1753 -0.1394
 6011TIP3    H139448   3.538   2.720  13.435  0.1743  0.1824 -1.0882
 6011TIP3    H239449   3.561   2.864  13.395  3.4698 -0.1287 -0.5264
 6012TIP3   OH239450   6.322   0.012  12.629  0.0443 -0.4233  0.3280
 6012TIP3    H139451   6.262  -0.010  12.559  1.2945 -1.4492 -0.4507
 6012TIP3    H239452   6.409   0.005  12.590  0.6458  3.6127  0.6883
 6013TIP3   OH239453   6.590   2.220   2.000  0.2777  0.1610  0.2297
 6013TIP3    H139454   6.545   2.228   1.916  0.1175 -0.7778  0.2205
 6013TIP3    H239455   6.565   2.133   2.032  0.7924  0.2882  0.9807
 6014TIP3   OH239456   1.066   0.992  16.920 -0.3211  0.2064  0.3903
 6014TIP3    H139457   1.042   1.080  16.951  0.1701 -0.1213  1.7359
 6014TIP3    H239458   1.148   1.005  16.873 -0.8831  0.6510 -0.4954
 6015TIP3   OH239459   0.554   1.292  14.443  0.2981 -0.0314 -0.3007
 6015TIP3    H139460   0.641   1.331  14.455  1.3274 -1.8083 -1.7118
 6015TIP3    H239461   0.558   1.210  14.492 -0.7585  0.0979  0.0143
 6016TIP3   OH239462   6.178   2.386   5.678 -0.0610  0.0146 -0.2828
 6016TIP3    H139463   6.142   2.443   5.746  0.3968  0.0418 -0.0565
 6016TIP3    H239464   6.108   2.325   5.658 -0.0217 -0.3458  0.6171
 6017TIP3   OH239465   2.477   5.857   3.635 -0.1677 -0.3072  0.5400
 6017TIP3    H139466   2.502   5.840   3.726  0.0619 -1.1820  0.3213
 6017TIP3    H239467   2.556   5.837   3.585 -0.2815  0.2112  0.1495
 6018TIP3   OH239468   5.950   3.691  13.657 -0.3557 -0.4186 -0.3799
 6018TIP3    H139469   5.893   3.733  13.592 -0.8974  0.7792  0.8253
 6018TIP3    H239470   5.894   3.627  13.700 -0.1351 -0.8699 -0.7657
 6019TIP3   OH239471   1.669   4.620   2.257 -0.0974  0.0520  0.3895
 6019TIP3    H139472   1.734   4.664   2.204  0.1033  1.1551  1.5301
 6019TIP3    H239473   1.719   4.574   2.324 -0.4888  1.0573  1.3862
 6020TIP3   OH239474   3.678   3.082  12.099  0.7763  0.4742 -0.1114
 6020TIP3    H139475   3.712   3.111  12.184  1.5372 -0.7667  0.0106
 6020TIP3    H239476   3.670   3.163  12.049  0.6084  1.1878  1.0329
 6021TIP3   OH239477   5.235   2.712  16.545  0.1769  0.4236  0.4182
 6021TIP3    H139478   5.163   2.775  16.534  1.8160  1.9383 -2.4043
 6021TIP3    H239479   5.306   2.748  16.491  2.8316 -1.3774  2.5994
 6022TIP3   OH239480   6.318   3.424  17.018 -0.4828 -0.0930 -0.4224
 6022TIP3    H139481   6.408   3.442  17.043 -0.5097 -0.9378  0.2864
 6022TIP3    H239482   6.310   3.329  17.024 -0.5928 -0.3028 -3.2792
 6023TIP3   OH239483   5.678   2.321  16.362 -0.4170  0.0042 -0.0826
 6023TIP3    H139484   5.636   2.238  16.340  0.4223 -0.0575 -1.5533
 6023TIP3    H239485   5.671   2.328  16.457  1.0943 -2.6460  0.2623
 6024TIP3   OH239486   2.730   3.604   0.959  0.1871  0.8057  0.3699
 6024TIP3    H139487   2.823   3.621   0.971  0.1138  1.4316  0.0714
 6024TIP3    H239488   2.708   3.647   0.877  0.3655 -2.2109 -1.3107
 6025TIP3   OH239489   4.034   4.891   5.509  0.3530  0.4670  0.2607
 6025TIP3    H139490   3.979   4.917   5.582 -1.9781 -1.4040 -0.7851
 6025TIP3    H239491   3.975   4.887   5.434  2.4843  1.2772 -1.5394
 6026TIP3   OH239492   1.212   2.731  14.812  0.2498 -0.0585  0.2376
 6026TIP3    H139493   1.270   2.678  14.757 -1.1209 -2.2558  0.8380
 6026TIP3    H239494   1.188   2.805  14.756  1.1637 -0.7478 -1.1133
 6027TIP3   OH239495   1.412   2.511  13.061  0.2644  0.2978 -0.1884
 6027TIP3    H139496   1.353   2.531  12.988 -2.9590 -2.7124  1.4432
 6027TIP3    H239497   1.367   2.546  13.138  1.1135 -1.1385  0.9704
 6028TIP3   OH239498   4.668   5.205   4.785 -0.8590  0.0497  0.2902
 6028TIP3    H139499   4.752   5.245   4.763 -0.9134  0.0124  0.0120
 6028TIP3    H239500   4.651   5.232   4.875 -1.1604  1.0959 -0.0693
 6029TIP3   OH239501   1.130   5.863  11.499 -0.0174  0.2827 -0.9296
 6029TIP3    H139502   1.221   5.849  11.523 -0.3080  0.8912  0.5753
 6029TIP3    H239503   1.129   5.949  11.457 -0.0723  0.8183  0.1360
 6030TIP3   OH239504   2.754   3.379  15.194  0.3138 -0.2181 -0.5235
 6030TIP3    H139505   2.773   3.359  15.286  1.1047  0.5039 -0.5206
 6030TIP3    H239506   2.741   3.474  15.193  1.0634 -0.1137 -1.2823
 6031TIP3   OH239507   1.171   3.592  13.618 -0.1680  0.2354 -0.2666
 6031TIP3    H139508   1.182   3.674  13.667  0.3889  0.6833 -1.1290
 6031TIP3    H239509   1.080   3.595  13.587  0.3612  1.3354 -1.7404
 6032TIP3   OH239510   2.949   6.455   4.302 -0.2162 -0.0877 -0.7726
 6032TIP3    H139511   2.982   6.368   4.324  1.0604  0.2955 -1.1547
 6032TIP3    H239512   3.024   6.513   4.313  0.0527  0.3752 -4.4347
 6033TIP3   OH239513   4.036   5.309  13.965 -0.0201 -0.0077  0.4830
 6033TIP3    H139514   4.076   5.222  13.968 -0.3385 -0.1673  0.0574
 6033TIP3    H239515   3.985   5.310  13.885 -2.3692 -0.4495  1.9294
 6034TIP3   OH239516   2.257   0.205  10.766  0.0298  0.2401 -0.3650
 6034TIP3    H139517   2.268   0.295  10.795  1.2950  0.1550 -0.5282
 6034TIP3    H239518   2.168   0.181  10.791  0.2433  1.0099  1.1399
 6035TIP3   OH239519   2.499   3.670  13.082  0.8095  0.2833  0.8029
 6035TIP3    H139520   2.572   3.651  13.141 -0.4231 -1.7231  1.7734
 6035TIP3    H239521   2.421   3.648  13.133 -0.5966  3.9679  0.3788
 6036TIP3   OH239522   3.209   6.234   1.633  0.7120  0.2287  0.1530
 6036TIP3    H139523   3.245   6.303   1.688  0.8826  0.0868  0.2189
 6036TIP3    H239524   3.283   6.174   1.618  0.9949  0.9018 -1.2259
 6037TIP3   OH239525   1.149   5.992  10.924 -0.1824 -0.5847  0.4224
 6037TIP3    H139526   1.053   5.991  10.929 -0.3989  1.5578 -2.2486
 6037TIP3    H239527   1.174   6.072  10.971  0.3902 -1.5883  1.8677
 6038TIP3   OH239528   5.748   3.923   1.560 -0.0021  0.1031  0.0085
 6038TIP3    H139529   5.660   3.956   1.541 -0.4838 -1.0691  0.1370
 6038TIP3    H239530   5.736   3.862   1.633  0.5217 -1.9192 -1.5315
 6039TIP3   OH239531   6.219   3.562  14.717  0.4434  0.3989 -0.1047
 6039TIP3    H139532   6.240   3.655  14.703 -1.7307  0.8776 -0.3582
 6039TIP3    H239533   6.171   3.561  14.800  1.1059 -0.6263  0.2828
 6040TIP3   OH239534   6.350   6.107   3.364  0.4556  0.6914  0.5310
 6040TIP3    H139535   6.283   6.052   3.323  0.9627 -0.0736  0.7184
 6040TIP3    H239536   6.359   6.182   3.305 -1.4192  1.4016  1.1311
 6041TIP3   OH239537   3.263   6.497   4.072 -0.2380 -0.6818  0.1460
 6041TIP3    H139538   3.216   6.522   4.152  0.0838 -1.1887  0.4910
 6041TIP3    H239539   3.355   6.505   4.094 -0.1456 -0.9674 -0.1296
 6042TIP3   OH239540   0.382   0.059  17.034  0.6161 -0.7655 -0.2123
 6042TIP3    H139541   0.452   0.123  17.049  0.2708 -0.3017 -0.5943
 6042TIP3    H239542   0.334   0.093  16.959 -2.2616  0.8463  2.2504
 6043TIP3   OH239543   3.386   0.737  14.123 -0.5321  0.1565  0.0568
 6043TIP3    H139544   3.459   0.677  14.111 -0.4879  0.2835 -0.3064
 6043TIP3    H239545   3.420   0.823  14.099 -0.8450  0.1916 -0.2741
 6044TIP3   OH239546   0.405   4.166  11.707  0.5391  0.2553 -0.5930
 6044TIP3    H139547   0.425   4.099  11.642 -3.0355 -1.7937  0.2573
 6044TIP3    H239548   0.432   4.127  11.790 -2.8215 -0.8437  0.0666
 6045TIP3   OH239549   4.170   0.827  13.706 -0.8448 -0.0407  0.7357
 6045TIP3    H139550   4.196   0.909  13.664 -0.7323  0.3152  1.5034
 6045TIP3    H239551   4.234   0.763  13.674 -1.2158  0.0566 -0.2405
 6046TIP3   OH239552   0.874   4.069   0.039  0.7892 -0.3087  0.0299
 6046TIP3    H139553   0.950   4.026   0.079  0.5174 -0.0433  0.8447
 6046TIP3    H239554   0.857   4.018  -0.041  2.1803 -0.0210 -0.4758
 6047TIP3   OH239555   4.583   1.153  12.968 -0.3207  0.1458 -0.8421
 6047TIP3    H139556   4.662   1.190  12.930 -1.5976  2.4003 -1.4031
 6047TIP3    H239557   4.565   1.075  12.915 -0.0210  1.1977 -2.5509
 6048TIP3   OH239558   2.258   1.174  17.042  0.0235  0.0992 -0.5916
 6048TIP3    H139559   2.278   1.235  16.972 -0.0020  0.9251  0.1163
 6048TIP3    H239560   2.344   1.144  17.073  0.1709  2.0449  1.0308
 6049TIP3   OH239561   6.480   1.963  11.515 -0.5205 -0.7194 -0.7640
 6049TIP3    H139562   6.488   2.052  11.481  2.3484 -0.8519 -0.5645
 6049TIP3    H239563   6.503   1.971  11.607 -1.4994 -1.4784 -0.4515
 6050TIP3   OH239564   5.627   1.739  12.218  0.3092 -0.1230 -0.2257
 6050TIP3    H139565   5.658   1.821  12.256  3.8342 -0.2321 -2.6286
 6050TIP3    H239566   5.599   1.762  12.129 -2.8683 -0.7853  0.5378
 6051TIP3   OH239567   6.039   1.950   4.325 -0.4054 -0.6163 -0.6928
 6051TIP3    H139568   5.962   1.894   4.312  0.0909 -1.2717 -0.8195
 6051TIP3    H239569   6.044   1.961   4.420 -1.1827  0.1722 -0.7425
 6052TIP3   OH239570   4.710   3.362   2.686 -0.6171 -0.0652 -0.4860
 6052TIP3    H139571   4.663   3.435   2.729  0.6596  0.5736 -0.1633
 6052TIP3    H239572   4.714   3.294   2.754 -1.8433 -0.4698 -0.7987
 6053TIP3   OH239573   0.857   5.667  13.482 -0.2462 -0.3973  0.2010
 6053TIP3    H139574   0.906   5.638  13.559 -2.2138  0.2033  1.7005
 6053TIP3    H239575   0.815   5.587  13.449  0.8348 -0.7115 -0.4699
 6054TIP3   OH239576   3.173   6.074   2.596  0.5332  0.2776 -0.2800
 6054TIP3    H139577   3.129   6.058   2.680  0.6244 -0.6274 -0.4026
 6054TIP3    H239578   3.107   6.054   2.530  1.1866 -1.3236 -0.4722
 6055TIP3   OH239579   0.291   2.482  13.949 -0.1146  0.1122 -0.4380
 6055TIP3    H139580   0.233   2.558  13.952 -0.9207 -0.3476 -3.4328
 6055TIP3    H239581   0.378   2.520  13.932 -0.0065  0.5477  0.9676
 6056TIP3   OH239582   4.736   6.032  15.052 -0.4419  0.0465  0.5582
 6056TIP3    H139583   4.647   6.033  15.087 -0.3267  1.1650  0.8567
 6056TIP3    H239584   4.758   6.125  15.042  0.9507 -0.2071  1.1634
 6057TIP3   OH239585   5.053   4.917  14.732 -0.3857 -0.0141  0.7985
 6057TIP3    H139586   5.034   4.965  14.812  2.1245  2.3205  0.0621
 6057TIP3    H239587   5.133   4.868  14.751 -1.3547 -1.7241  0.6093
 6058TIP3   OH239588   2.619   4.265   3.717 -0.3867 -0.2739 -0.2385
 6058TIP3    H139589   2.661   4.253   3.632 -0.9411  0.1051 -0.5704
 6058TIP3    H239590   2.539   4.315   3.698  0.8327  2.1949  0.8116
 6059TIP3   OH239591   5.588   3.663   5.813 -0.4605 -0.7656 -0.7316
 6059TIP3    H139592   5.646   3.687   5.740 -1.8840 -2.0094 -2.3247
 6059TIP3    H239593   5.533   3.740   5.826 -0.1888 -0.5321 -0.9523
 6060TIP3   OH239594   1.770   5.275   1.399  0.2404 -0.2261 -0.0467
 6060TIP3    H139595   1.730   5.269   1.312 -3.3951 -1.8960  1.5902
 6060TIP3    H239596   1.818   5.193   1.409 -1.0284 -0.9610  0.2257
 6061TIP3   OH239597   3.760   0.932  13.916 -0.1367  0.3719  0.3378
 6061TIP3    H139598   3.837   0.936  13.858  0.1121  2.4802  0.7807
 6061TIP3    H239599   3.783   0.865  13.980  0.4655 -0.4947 -0.7511
 6062TIP3   OH239600   4.757   2.984   6.207 -0.6361  0.3342 -0.1005
 6062TIP3    H139601   4.749   2.903   6.157 -0.8057  0.9876 -1.1414
 6062TIP3    H239602   4.695   2.974   6.279 -0.4210 -0.5948 -0.0331
 6063TIP3   OH239603   4.718   2.886  13.167  0.5673 -0.5605 -0.3954
 6063TIP3    H139604   4.800   2.836  13.167  1.0430  0.1927 -0.6231
 6063TIP3    H239605   4.717   2.929  13.081  0.4159  0.2072 -0.0148
 6064TIP3   OH239606   4.415   1.466  11.114  0.0717  0.3022  0.0117
 6064TIP3    H139607   4.362   1.444  11.038 -0.5989  1.4072  0.1441
 6064TIP3    H239608   4.352   1.499  11.178  0.3576 -2.3740  1.7636
 6065TIP3   OH239609   2.504   2.191  15.936  0.2013 -0.1631 -0.4024
 6065TIP3    H139610   2.420   2.236  15.941  1.4626  2.4638 -1.7850
 6065TIP3    H239611   2.523   2.164  16.026 -1.7120 -0.0880  0.0502
 6066TIP3   OH239612   4.430   2.435   1.924  0.5305  0.6651  0.0356
 6066TIP3    H139613   4.502   2.492   1.949  1.5773 -1.1364  1.2596
 6066TIP3    H239614   4.467   2.375   1.859 -0.4035  0.9762 -0.8120
 6067TIP3   OH239615   1.681   0.496   3.134 -0.3441 -0.1446  0.1064
 6067TIP3    H139616   1.715   0.564   3.076 -0.6011  0.4180  0.6130
 6067TIP3    H239617   1.748   0.428   3.133 -0.3006 -0.1019 -0.7728
 6068TIP3   OH239618   6.608   0.900   4.891  0.1707 -0.1955  0.2857
 6068TIP3    H139619   6.637   0.899   4.800  1.6329  0.4254  0.7362
 6068TIP3    H239620   6.549   0.825   4.898 -1.4642  0.8817 -1.6427
 6069TIP3   OH239621   4.782   4.414  12.594  0.3894 -0.4124  0.6749
 6069TIP3    H139622   4.764   4.333  12.641  1.3564 -1.3187 -0.4879
 6069TIP3    H239623   4.704   4.429  12.541  0.6895 -1.2139  0.0035
 6070TIP3   OH239624   6.214   0.127  14.517 -0.0028  0.8304 -0.2456
 6070TIP3    H139625   6.165   0.046  14.530  0.0863  1.0033  1.2372
 6070TIP3    H239626   6.276   0.107  14.447 -0.2917 -0.2424 -0.1929
 6071TIP3   OH239627   2.907   6.415  12.274 -0.1055 -0.2034 -0.2577
 6071TIP3    H139628   2.878   6.409  12.365 -3.6050 -0.2925 -1.3100
 6071TIP3    H239629   2.942   6.504  12.265 -1.5932  0.4924  0.6908
 6072TIP3   OH239630   1.098   3.207   0.856  0.1853 -0.3471  0.1960
 6072TIP3    H139631   1.151   3.212   0.777  0.5485  0.9893  0.5167
 6072TIP3    H239632   1.037   3.135   0.839  1.0756 -0.8827 -0.7892
 6073TIP3   OH239633   3.810   5.844  13.106  0.3433  0.0331 -0.4006
 6073TIP3    H139634   3.836   5.931  13.135  0.7910 -0.4790  0.7992
 6073TIP3    H239635   3.726   5.828  13.149 -0.3371  0.3501 -1.5916
 6074TIP3   OH239636   1.734   1.482  14.240  0.0563 -0.1478  0.2998
 6074TIP3    H139637   1.755   1.568  14.203  1.9285 -0.5251  0.4250
 6074TIP3    H239638   1.699   1.432  14.167 -2.5363  1.1887  0.5662
 6075TIP3   OH239639   0.197   3.263  16.120  0.0329 -0.2905  0.0593
 6075TIP3    H139640   0.279   3.217  16.102  0.2826 -0.8539  2.5192
 6075TIP3    H239641   0.153   3.210  16.187 -1.3917  1.0889  0.2446
 6076TIP3   OH239642   0.977   1.636  11.722  0.1463 -0.1369  0.3371
 6076TIP3    H139643   0.928   1.555  11.736 -0.6513  0.1428 -0.7045
 6076TIP3    H239644   0.930   1.680  11.650  0.4330  1.3433  1.0242
 6077TIP3   OH239645   2.392   3.180  13.854 -0.6359  0.6135 -0.1252
 6077TIP3    H139646   2.470   3.126  13.865 -1.1717 -0.4902 -1.6732
 6077TIP3    H239647   2.350   3.178  13.940  0.4721  0.3534  0.4226
 6078TIP3   OH239648   1.563   0.366   5.904  0.2627 -0.3396 -0.1746
 6078TIP3    H139649   1.611   0.434   5.950 -0.8692  1.3517 -1.4100
 6078TIP3    H239650   1.631   0.308   5.868  1.2440  0.3346  0.5819
 6079TIP3   OH239651   0.475   5.002  12.121  0.2126 -0.3105  0.5655
 6079TIP3    H139652   0.430   4.944  12.181 -1.2817  0.4397  0.2080
 6079TIP3    H239653   0.547   4.950  12.086 -0.7121 -1.7347  0.7344
 6080TIP3   OH239654   0.209   4.760   1.232  0.0022 -0.3267  0.0261
 6080TIP3    H139655   0.115   4.744   1.240  0.0652 -0.5938  0.2397
 6080TIP3    H239656   0.220   4.794   1.143 -0.4441  0.7919  0.3810
 6081TIP3   OH239657   1.179   6.291  16.674  0.3310 -0.7206 -0.4584
 6081TIP3    H139658   1.170   6.226  16.743  2.1176 -0.7400 -0.2191
 6081TIP3    H239659   1.223   6.365  16.715  0.3317 -0.2577 -1.2740
 6082TIP3   OH239660   2.617   5.070   0.292 -0.4831 -0.0471  0.5773
 6082TIP3    H139661   2.676   5.006   0.250 -0.5946 -0.9441  1.7681
 6082TIP3    H239662   2.673   5.144   0.314 -0.1624 -0.1258  0.0351
 6083TIP3   OH239663   3.073   5.201  16.996 -0.0523 -0.4646  0.3231
 6083TIP3    H139664   3.131   5.218  17.070  0.9165 -0.2243 -0.4888
 6083TIP3    H239665   2.989   5.179  17.036  1.0565 -2.5690  1.5574
 6084TIP3   OH239666   6.661   0.013   0.449  0.0283 -0.1126 -0.8428
 6084TIP3    H139667   6.710   0.040   0.371  1.1146 -1.1742 -0.5357
 6084TIP3    H239668   6.569   0.025   0.424  0.3888  0.3287 -1.9995
 6085TIP3   OH239669   2.815   4.229   2.801  0.0973 -0.1284 -0.1263
 6085TIP3    H139670   2.723   4.247   2.821  0.1908  0.2914 -0.0683
 6085TIP3    H239671   2.816   4.139   2.770 -0.7249  0.7364 -2.7379
 6086TIP3   OH239672   4.999   2.514   3.450 -0.3101  0.2327  0.1393
 6086TIP3    H139673   4.947   2.588   3.419 -0.1980  0.3060  0.1267
 6086TIP3    H239674   5.044   2.547   3.528 -0.5569  0.0628  0.3555
 6087TIP3   OH239675   3.629   0.736  14.373  0.3388  0.1310 -0.4211
 6087TIP3    H139676   3.697   0.767  14.313  1.1337  0.4036  0.5972
 6087TIP3    H239677   3.558   0.799  14.364 -0.5182 -1.0982 -2.7633
 6088TIP3   OH239678   1.217   3.154  15.498 -0.4752 -0.6223 -0.0469
 6088TIP3    H139679   1.243   3.096  15.569 -1.4769 -0.6862  0.2660
 6088TIP3    H239680   1.169   3.225  15.541  0.1528  0.0872 -0.5009
 6089TIP3   OH239681   3.467   1.012   5.893 -0.3092 -0.1504  0.2684
 6089TIP3    H139682   3.411   1.086   5.918  0.7300  0.5429  0.6290
 6089TIP3    H239683   3.533   1.008   5.962  0.0888 -0.9373 -0.1500
 6090TIP3   OH239684   0.032   5.923  16.640 -0.1400 -0.1508  0.5432
 6090TIP3    H139685   0.076   5.978  16.705  1.2036  0.1196 -0.5830
 6090TIP3    H239686  -0.056   5.959  16.634  0.7806  1.9891 -0.2988
 6091TIP3   OH239687   5.543   0.166   3.259  0.2176 -0.0799 -0.2424
 6091TIP3    H139688   5.448   0.165   3.252  0.2803 -1.2840 -1.0694
 6091TIP3    H239689   5.561   0.220   3.336 -1.1640 -0.9408  0.6952
 6092TIP3   OH239690   1.499   1.255  12.325 -0.9621  0.1747 -0.4207
 6092TIP3    H139691   1.447   1.330  12.355  1.4294  1.6909  0.0329
 6092TIP3    H239692   1.514   1.203  12.404  0.4760  1.1674 -0.0202
 6093TIP3   OH239693   1.830   5.393   3.627 -0.7550 -0.0791 -0.2600
 6093TIP3    H139694   1.886   5.460   3.667 -0.6708 -0.3232  0.0413
 6093TIP3    H239695   1.890   5.320   3.609 -0.7575  0.1047 -1.0172
 6094TIP3   OH239696   6.451   2.933  15.077 -0.0342  0.0608  0.2190
 6094TIP3    H139697   6.368   2.979  15.059  0.0845  0.6509  1.1692
 6094TIP3    H239698   6.480   2.968  15.161  1.9019  0.9017 -0.7779
 6095TIP3   OH239699   2.863   2.296  12.926  0.8312 -0.0540 -0.0808
 6095TIP3    H139700   2.778   2.328  12.956  0.8502 -0.1410  0.0716
 6095TIP3    H239701   2.890   2.356  12.857  1.2880  0.8009  0.8182
 6096TIP3   OH239702   6.337   5.395  12.537 -0.3816 -0.2805  0.2397
 6096TIP3    H139703   6.405   5.351  12.486 -0.5618  2.2663 -2.3142
 6096TIP3    H239704   6.355   5.371  12.628  1.8969 -2.3249 -0.7177
 6097TIP3   OH239705   1.875   0.154   3.122  0.1000  0.2500  0.5027
 6097TIP3    H139706   1.911   0.113   3.200 -1.5024 -1.0667  0.5937
 6097TIP3    H239707   1.782   0.166   3.142 -0.5018 -0.7788 -1.4479
 6098TIP3   OH239708   3.912   5.216  14.907 -0.3885  0.0603 -0.3554
 6098TIP3    H139709   3.907   5.197  15.001 -2.5283 -0.9439 -0.6348
 6098TIP3    H239710   3.902   5.311  14.901 -1.2858  0.0207  0.3846
 6099TIP3   OH239711   5.721   0.267   1.423  0.4800 -0.1231  0.2912
 6099TIP3    H139712   5.692   0.249   1.512  0.1625 -1.1687 -0.0186
 6099TIP3    H239713   5.769   0.188   1.397  0.1061 -0.0515 -0.6535
 6100TIP3   OH239714   6.544   5.013  15.404  0.4324 -0.6853  0.2524
 6100TIP3    H139715   6.596   5.004  15.324  0.2159 -0.2706  0.0604
 6100TIP3    H239716   6.513   4.925  15.423 -1.4160 -0.4394 -1.4165
 6101TIP3   OH239717   1.391   5.734  16.761  0.0479  0.2735 -0.6820
 6101TIP3    H139718   1.296   5.730  16.769  0.2116  0.7111  1.6820
 6101TIP3    H239719   1.406   5.793  16.687 -1.5007  0.5652 -0.7804
 6102TIP3   OH239720   0.785   4.872   1.333 -0.8233  0.4843  0.2450
 6102TIP3    H139721   0.859   4.812   1.331 -1.5535 -0.4210 -0.1433
 6102TIP3    H239722   0.809   4.938   1.397 -0.3879 -0.7257  1.3513
 6103TIP3   OH239723   1.693   1.826  11.197 -0.5877 -0.6797  0.1366
 6103TIP3    H139724   1.645   1.748  11.171 -0.0757 -1.2392  0.8379
 6103TIP3    H239725   1.733   1.803  11.281 -0.7653  0.4739  0.5516
 6104TIP3   OH239726   3.355   4.432  16.516 -0.5899  0.1757 -0.0141
 6104TIP3    H139727   3.269   4.471  16.534 -0.9571 -0.8863  0.5820
 6104TIP3    H239728   3.412   4.507  16.499 -1.6596  0.8881 -0.5372
 6105TIP3   OH239729   4.569   0.268  15.491 -0.5550  0.1487  0.6317
 6105TIP3    H139730   4.588   0.174  15.484  1.8428  0.5959  0.5077
 6105TIP3    H239731   4.474   0.273  15.492 -0.7379 -2.4104  2.2140
 6106TIP3   OH239732   5.045   5.925   4.640 -0.4094  0.2204  0.5195
 6106TIP3    H139733   5.018   5.884   4.558 -1.3582  1.4293  0.2016
 6106TIP3    H239734   4.994   5.879   4.707  1.8972 -2.1734  0.6868
 6107TIP3   OH239735   1.203   1.604   4.548 -0.1901  0.1532  0.0197
 6107TIP3    H139736   1.192   1.509   4.542  0.5093  0.1138 -0.6484
 6107TIP3    H239737   1.283   1.622   4.500 -0.5862  1.1460 -0.2720
 6108TIP3   OH239738   6.120   1.124  15.657 -0.8085 -0.2334 -0.1905
 6108TIP3    H139739   6.026   1.123  15.674 -1.0638  0.2089 -1.5774
 6108TIP3    H239740   6.140   1.215  15.635  0.4036  0.2253  2.5483
 6109TIP3   OH239741   6.194   3.346   3.105 -0.0392  0.3449 -0.0071
 6109TIP3    H139742   6.151   3.412   3.051 -2.5705 -0.6603  0.7234
 6109TIP3    H239743   6.134   3.272   3.106  0.4046 -0.0416  3.3395
 6110TIP3   OH239744   4.385   0.683  11.928  0.0271  0.0742  0.3237
 6110TIP3    H139745   4.439   0.604  11.919  1.0598  0.8394 -0.3975
 6110TIP3    H239746   4.445   0.748  11.964 -1.3350  0.0046  2.8496
 6111TIP3   OH239747   3.911   6.770   3.639  0.7632  0.1030  0.1002
 6111TIP3    H139748   3.849   6.701   3.662 -0.2068  0.8635 -0.1999
 6111TIP3    H239749   3.858   6.835   3.593  1.7258  0.9171  0.1359
 6112TIP3   OH239750   3.444   0.090  16.813 -0.3201  0.1689  0.1001
 6112TIP3    H139751   3.489   0.113  16.731 -0.1004  1.1232  0.4870
 6112TIP3    H239752   3.434   0.173  16.859 -2.0619 -0.1049  0.2319
 6113TIP3   OH239753   0.347   6.494  12.417 -0.0154  0.2613 -0.3421
 6113TIP3    H139754   0.265   6.520  12.376 -0.3025 -0.5626 -0.3096
 6113TIP3    H239755   0.403   6.469  12.343  0.1005  0.5414 -0.3471
 6114TIP3   OH239756   4.424   4.584  12.492  0.0940 -0.0946  0.8209
 6114TIP3    H139757   4.476   4.522  12.440 -0.8609 -1.3325  1.3194
 6114TIP3    H239758   4.431   4.666  12.444 -0.2167 -1.0515 -0.9239
 6115TIP3   OH239759   3.252   2.714  15.975 -0.4529 -0.0216  0.1798
 6115TIP3    H139760   3.160   2.736  15.992 -0.7007 -0.6564 -0.3018
 6115TIP3    H239761   3.247   2.634  15.922  0.3660  0.3117 -0.3889
 6116TIP3   OH239762   5.951   0.361   0.635 -1.0529 -0.5132  0.0796
 6116TIP3    H139763   5.902   0.424   0.687 -0.5397  1.7655 -2.0765
 6116TIP3    H239764   6.041   0.369   0.667 -0.6968  1.0418 -1.2076
 6117TIP3   OH239765   1.456   5.697  16.401 -0.3199  0.1347  0.2047
 6117TIP3    H139766   1.527   5.657  16.451 -0.2415 -0.0405 -0.0405
 6117TIP3    H239767   1.475   5.790  16.401 -0.5215  0.1754  0.8193
 6118TIP3   OH239768   3.493   0.728  12.174 -0.4060  0.0592  0.7340
 6118TIP3    H139769   3.476   0.658  12.111  0.2368 -0.8851  1.5907
 6118TIP3    H239770   3.582   0.757  12.154 -0.0750 -0.4725  1.4137
 6119TIP3   OH239771   4.389   3.825   6.235 -0.5705 -0.1790  0.4142
 6119TIP3    H139772   4.456   3.887   6.263  0.6649 -1.0575 -0.5104
 6119TIP3    H239773   4.307   3.874   6.240  0.1396  0.9151  1.5594
 6120TIP3   OH239774   5.337   2.336   4.221 -0.3546  0.3294  0.2805
 6120TIP3    H139775   5.287   2.403   4.175 -0.6015 -0.1525 -0.1600
 6120TIP3    H239776   5.334   2.362   4.313  0.8507  1.7530 -0.0710
 6121TIP3   OH239777   0.871   6.784  16.298 -0.0588  0.1930 -0.2609
 6121TIP3    H139778   0.882   6.838  16.377 -0.2957  0.2238 -0.2471
 6121TIP3    H239779   0.787   6.813  16.262  0.5527  0.9195 -1.1071
 6122TIP3   OH239780   4.045   0.896   4.592  0.3107  0.4523 -0.2467
 6122TIP3    H139781   4.019   0.927   4.505  1.4759  2.6856  0.1770
 6122TIP3    H239782   3.962   0.883   4.638 -0.3772 -1.7991 -1.9840
 6123TIP3   OH239783   1.708   1.114   0.365 -0.1709  0.5365  0.6307
 6123TIP3    H139784   1.779   1.050   0.369 -1.8651 -1.4161  0.1515
 6123TIP3    H239785   1.686   1.131   0.456  1.2798  1.5890  0.7966
 6124TIP3   OH239786   6.547   1.719  17.148 -0.2717 -0.2341 -0.0771
 6124TIP3    H139787   6.535   1.660  17.073  1.3843 -1.3658  0.5353
 6124TIP3    H239788   6.502   1.676  17.220  0.0544 -0.2411  0.1209
 6125TIP3   OH239789   5.919   5.723  11.118  0.3055 -0.6283 -0.3299
 6125TIP3    H139790   5.996   5.692  11.070  0.4727  1.5040 -1.4862
 6125TIP3    H239791   5.867   5.771  11.054 -0.0470  1.2819  1.3187
 6126TIP3   OH239792   6.308   6.401   4.498 -0.0232 -0.4946  0.0852
 6126TIP3    H139793   6.346   6.359   4.575  0.2010 -0.7885 -0.1841
 6126TIP3    H239794   6.280   6.488   4.529 -1.7254 -1.3417  0.9766
 6127TIP3   OH239795   4.240   4.504   1.440  0.1170  0.1649  0.0863
 6127TIP3    H139796   4.304   4.437   1.416  0.6814  0.5631  0.4764
 6127TIP3    H239797   4.271   4.583   1.397 -0.0797  0.3702  0.3225
 6128TIP3   OH239798   3.308   0.867  16.240  0.0211 -0.5077  0.1443
 6128TIP3    H139799   3.242   0.925  16.203  0.9996  0.1490 -0.5880
 6128TIP3    H239800   3.362   0.923  16.295  0.1550 -0.9851  0.5012
 6129TIP3   OH239801   0.493   3.509   5.284 -0.0962  0.3691 -0.2329
 6129TIP3    H139802   0.549   3.438   5.253  0.2988  1.1091 -1.2481
 6129TIP3    H239803   0.542   3.548   5.357 -0.8611 -1.1392  1.1259
 6130TIP3   OH239804   4.142   2.036   0.536  0.5004 -0.6471  0.2380
 6130TIP3    H139805   4.123   2.130   0.540 -2.0758 -1.0870 -0.2541
 6130TIP3    H239806   4.189   2.024   0.454 -1.1259 -0.0581 -0.8054
 6131TIP3   OH239807   4.496   0.989  14.632 -0.6620 -0.1964 -0.7771
 6131TIP3    H139808   4.454   0.941  14.703  0.2338 -0.3318 -0.3290
 6131TIP3    H239809   4.471   1.080  14.646  0.7301 -0.0098  0.5997
 6132TIP3   OH239810   3.583   4.766  14.186  0.3089 -0.0399 -0.1121
 6132TIP3    H139811   3.506   4.820  14.205  0.1451 -0.5732  0.7968
 6132TIP3    H239812   3.574   4.744  14.093  0.4857  1.6378 -0.5299
 6133TIP3   OH239813   3.623   4.488  14.316  0.6092  0.1696 -0.2872
 6133TIP3    H139814   3.579   4.420  14.367  0.8701  0.1423 -0.0967
 6133TIP3    H239815   3.569   4.498  14.238 -0.8050  1.4617  0.8197
 6134TIP3   OH239816   0.545   1.064   1.618 -0.1836  0.1833 -0.2298
 6134TIP3    H139817   0.521   1.007   1.691 -0.7426 -1.1327 -1.4140
 6134TIP3    H239818   0.540   1.153   1.654 -0.6583 -0.4340  1.2664
 6135TIP3   OH239819   0.358   4.609   3.406  0.3122  0.5768  0.0626
 6135TIP3    H139820   0.436   4.555   3.419  0.2397  0.9653  2.3275
 6135TIP3    H239821   0.338   4.600   3.313  1.1899 -2.0774  0.0799
 6136TIP3   OH239822   0.687   0.692  10.599  0.6598 -0.1376 -0.2229
 6136TIP3    H139823   0.730   0.767  10.641 -1.6504  1.0851  0.0432
 6136TIP3    H239824   0.749   0.620  10.608  2.7914  1.6685 -0.1970
 6137TIP3   OH239825   0.781   3.486   5.300 -0.1985  0.6940 -0.5243
 6137TIP3    H139826   0.819   3.448   5.379 -1.6078 -4.2896 -2.0245
 6137TIP3    H239827   0.840   3.558   5.277  2.7287 -0.5655  2.5695
 6138TIP3   OH239828   6.274   1.882   4.657  0.8275 -0.4862 -0.1597
 6138TIP3    H139829   6.326   1.948   4.704 -1.1671  0.5221  0.7171
 6138TIP3    H239830   6.219   1.933   4.598  0.4402 -1.4916 -0.6745
 6139TIP3   OH239831   5.133   3.062   5.510  0.0381 -0.1975 -0.1474
 6139TIP3    H139832   5.137   3.126   5.581  1.2598 -2.2611  1.7189
 6139TIP3    H239833   5.042   3.063   5.482 -0.8894 -0.6049  2.6867
 6140TIP3   OH239834   6.496   0.518  13.946  0.7298  0.6987  0.1803
 6140TIP3    H139835   6.556   0.543  14.016 -0.6775  0.7811  1.3803
 6140TIP3    H239836   6.415   0.565  13.966 -0.4367 -1.0982 -0.1712
 6141TIP3   OH239837   4.410   5.725  14.818 -0.1655 -0.4307  0.3593
 6141TIP3    H139838   4.375   5.814  14.804 -0.8109 -0.7526 -0.1559
 6141TIP3    H239839   4.336   5.677  14.856 -0.0256 -0.9093  0.0287
 6142TIP3   OH239840   6.277   3.755  14.337 -0.6675  0.2307  0.4483
 6142TIP3    H139841   6.325   3.808  14.400 -1.1705 -0.3940  1.3716
 6142TIP3    H239842   6.260   3.814  14.263  0.5286  0.7655  0.5914
 6143TIP3   OH239843   1.594   1.968   3.226 -0.1347  0.5624  0.1483
 6143TIP3    H139844   1.569   1.960   3.134  0.4463  0.2735  0.0105
 6143TIP3    H239845   1.666   2.031   3.226  2.3725 -2.2197 -0.0708
 6144TIP3   OH239846   1.360   2.664   5.761 -0.3219  0.1904  0.1681
 6144TIP3    H139847   1.385   2.587   5.709 -1.2152  0.8262 -1.2034
 6144TIP3    H239848   1.376   2.739   5.704  1.6214  1.1505  1.8942
 6145TIP3   OH239849   5.301   1.088  13.620  0.1677  0.2138  0.0945
 6145TIP3    H139850   5.313   1.115  13.528  0.7364 -0.3608 -0.0017
 6145TIP3    H239851   5.366   1.019  13.633 -0.2541 -0.0490  0.7894
 6146TIP3   OH239852   1.613   2.596  11.199  0.4087 -0.0077  0.2328
 6146TIP3    H139853   1.594   2.687  11.173  2.6418  0.0593 -1.3006
 6146TIP3    H239854   1.686   2.604  11.260 -0.2327 -0.7133  1.1062
 6147TIP3   OH239855   2.833   5.952  16.093 -0.5202  0.7456  0.4832
 6147TIP3    H139856   2.834   6.030  16.037  1.9419  0.0565 -0.4748
 6147TIP3    H239857   2.877   5.980  16.173 -1.0456  0.7768  0.7619
 6148TIP3   OH239858   0.997   1.588   2.369 -0.8990  0.0384  0.6583
 6148TIP3    H139859   0.933   1.521   2.393 -0.4113 -1.3437 -1.7324
 6148TIP3    H239860   0.947   1.650   2.315 -0.8392  0.4110  1.0297
 6149TIP3   OH239861   2.812   5.842   0.499 -0.0795  0.3646  0.9555
 6149TIP3    H139862   2.720   5.817   0.497 -0.6608  2.1899 -3.6451
 6149TIP3    H239863   2.811   5.935   0.522  0.1754  1.3028 -2.4443
 6150TIP3   OH239864   3.816   0.701  10.719  0.2001  0.0434  0.4192
 6150TIP3    H139865   3.877   0.629  10.735  1.2712  0.6998 -0.6780
 6150TIP3    H239866   3.860   0.778  10.754  0.5943  0.7355 -1.5400
 6151TIP3   OH239867   0.988   4.452   3.076  0.1150  1.0026  0.1510
 6151TIP3    H139868   0.994   4.403   2.994 -0.1215  0.9073  0.1904
 6151TIP3    H239869   0.919   4.517   3.061 -3.8146 -2.4569  2.0364
 6152TIP3   OH239870   5.528   2.098  14.736  0.1356 -0.9444 -0.1393
 6152TIP3    H139871   5.531   2.177  14.681 -0.1912 -0.1991  0.8836
 6152TIP3    H239872   5.550   2.130  14.823 -0.7571 -1.8544  0.4233
 6153TIP3   OH239873   1.929   4.034   5.871  0.3420 -0.4330  0.7592
 6153TIP3    H139874   1.921   4.111   5.928  1.8789 -0.4388  1.0035
 6153TIP3    H239875   1.854   4.041   5.811  1.1064  1.8984  0.0035
 6154TIP3   OH239876   5.696   5.959   3.489  0.0786 -0.5589 -0.5360
 6154TIP3    H139877   5.750   6.036   3.510 -3.0381  1.6039 -0.0578
 6154TIP3    H239878   5.709   5.899   3.562  0.9350  0.4207  0.1268
 6155TIP3   OH239879   4.204   4.396   4.848  0.3615  0.6699  0.2564
 6155TIP3    H139880   4.135   4.429   4.791  0.5761 -0.5925 -0.7660
 6155TIP3    H239881   4.165   4.395   4.935 -0.9914 -0.2729 -0.3470
 6156TIP3   OH239882   4.888   1.777   3.203 -0.7427 -0.6943  0.7590
 6156TIP3    H139883   4.898   1.858   3.254 -1.6965  0.4207 -0.7665
 6156TIP3    H239884   4.955   1.718   3.237  1.3302  1.4614  0.5417
 6157TIP3   OH239885   5.110   2.322  11.679 -0.0826 -0.1604 -0.1713
 6157TIP3    H139886   5.187   2.334  11.735  0.0691 -0.5652 -0.2909
 6157TIP3    H239887   5.040   2.300  11.740 -0.1836  0.5532 -0.0288
 6158TIP3   OH239888   2.088   5.247   1.550  0.6090  0.3787 -0.7534
 6158TIP3    H139889   2.047   5.174   1.505 -2.1231  0.1139  1.9833
 6158TIP3    H239890   2.133   5.208   1.625 -0.0282  1.3733  0.1738
 6159TIP3   OH239891   2.596   4.256  16.457 -0.3489  0.1637  0.0874
 6159TIP3    H139892   2.547   4.331  16.490 -0.3590  1.7367 -3.3484
 6159TIP3    H239893   2.530   4.188  16.443 -0.5306 -0.0574  1.9017
 6160TIP3   OH239894   2.042   4.878   5.781 -0.1352 -0.1363 -0.0136
 6160TIP3    H139895   2.077   4.899   5.867 -2.9565  0.5439  1.0100
 6160TIP3    H239896   2.047   4.960   5.732  2.0293 -0.6679 -0.7450
 6161TIP3   OH239897   3.968   5.303  16.511  0.0107  0.7912  0.0569
 6161TIP3    H139898   3.908   5.343  16.573  1.1246  1.0072  1.0196
 6161TIP3    H239899   4.025   5.375  16.483  1.7973 -0.0017  1.5231
 6162TIP3   OH239900   1.347   0.295   3.617  0.0977  0.3307  0.1939
 6162TIP3    H139901   1.340   0.363   3.550 -0.9264  0.8782  0.8574
 6162TIP3    H239902   1.257   0.269   3.635  0.0974  2.2711  3.4749
 6163TIP3   OH239903   5.146   5.260  13.105  0.1267 -0.2215 -0.1553
 6163TIP3    H139904   5.140   5.171  13.070 -1.0682 -0.1027 -0.2559
 6163TIP3    H239905   5.061   5.299  13.087  0.4208  0.7296  0.4772
 6164TIP3   OH239906   1.620   6.485   0.105 -0.0401  0.0376 -0.6823
 6164TIP3    H139907   1.601   6.393   0.087 -0.8762  0.1383 -0.3487
 6164TIP3    H239908   1.539   6.531   0.085 -0.3598  0.4078  1.2858
 6165TIP3   OH239909   3.425   4.698   2.756  0.3771  0.5722  0.3930
 6165TIP3    H139910   3.343   4.678   2.712 -0.5606  4.0731  0.4092
 6165TIP3    H239911   3.488   4.712   2.686  1.0118 -2.0654  0.3804
 6166TIP3   OH239912   4.284   4.598   3.647  0.0856 -0.3955  0.4804
 6166TIP3    H139913   4.317   4.625   3.561 -0.1881 -0.8990  0.2130
 6166TIP3    H239914   4.251   4.679   3.687  0.6398 -0.0810  0.3037
 6167TIP3   OH239915   1.169   4.314   3.989  0.6240  0.1395  0.0234
 6167TIP3    H139916   1.191   4.379   4.055  1.9374 -2.1394  1.9442
 6167TIP3    H239917   1.196   4.230   4.028 -2.7370 -1.7880 -1.5336
 6168TIP3   OH239918   5.690   6.519  16.190 -0.2326 -0.4639  0.0666
 6168TIP3    H139919   5.719   6.582  16.125 -0.5223  0.0602  0.4359
 6168TIP3    H239920   5.608   6.485  16.156  0.3172 -1.2193 -0.5050
 6169TIP3   OH239921   5.487   5.535  16.876 -0.2421  0.9133  0.2285
 6169TIP3    H139922   5.461   5.609  16.820 -1.3866  1.0197  0.9009
 6169TIP3    H239923   5.415   5.525  16.938 -0.2425 -0.9897 -0.0624
 6170TIP3   OH239924   1.426   0.117  12.879  0.2803  0.1827  0.4753
 6170TIP3    H139925   1.335   0.148  12.879  0.2847  0.2165 -0.3392
 6170TIP3    H239926   1.423   0.032  12.921 -0.1306  0.1836  0.4496
 6171TIP3   OH239927   0.670   2.300   4.688 -0.2133  0.0058  0.2148
 6171TIP3    H139928   0.607   2.231   4.668  0.7743 -0.0296 -3.0909
 6171TIP3    H239929   0.755   2.259   4.679  0.3608  1.2718 -0.2313
 6172TIP3   OH239930   5.433   2.520   0.108 -0.4026  0.3509  0.2898
 6172TIP3    H139931   5.384   2.599   0.086 -0.2449  0.3631 -0.0093
 6172TIP3    H239932   5.479   2.496   0.028  0.9192  0.9224  0.8580
 6173TIP3   OH239933   1.657   2.052   4.924  0.8264  0.2934  0.1807
 6173TIP3    H139934   1.741   2.049   4.879  1.0708 -1.3190  0.6840
 6173TIP3    H239935   1.673   2.106   5.001  1.5823 -0.5026  0.5960
 6174TIP3   OH239936   6.348   2.754   0.115  0.1396  0.1181  0.3171
 6174TIP3    H139937   6.353   2.839   0.071  2.5263 -0.5396 -0.7218
 6174TIP3    H239938   6.385   2.692   0.052 -1.8418 -1.7567  0.9510
 6175TIP3   OH239939   0.090   4.153  13.520  0.1818 -0.1452 -0.4403
 6175TIP3    H139940   0.026   4.223  13.533  0.0084 -0.8600  3.1277
 6175TIP3    H239941   0.115   4.160  13.428 -0.3682  4.1542 -0.3793
 6176TIP3   OH239942   0.175   3.323  16.664 -0.1769 -0.2579  0.2068
 6176TIP3    H139943   0.195   3.332  16.757  0.8563  0.2498 -0.0562
 6176TIP3    H239944   0.259   3.303  16.623 -0.4171  0.6919 -0.7775
 6177TIP3   OH239945   6.220   2.570  15.381  0.1945 -0.4529  0.2350
 6177TIP3    H139946   6.243   2.486  15.342 -0.4939 -1.2248  1.4441
 6177TIP3    H239947   6.128   2.561  15.405  0.2801  0.4186  0.9494
 6178TIP3   OH239948   1.111   5.319  15.486  0.1261  0.3868  0.0343
 6178TIP3    H139949   1.160   5.398  15.509  0.5111 -0.2859  1.6111
 6178TIP3    H239950   1.074   5.289  15.569  0.3220 -1.3163 -0.4720
 6179TIP3   OH239951   0.965   1.784   0.334  0.1411  0.4702 -0.1524
 6179TIP3    H139952   1.042   1.830   0.364 -1.3240  3.0792 -0.2648
 6179TIP3    H239953   0.960   1.803   0.240 -0.3462 -0.1221 -0.2524
 6180TIP3   OH239954   3.478   6.406   1.379  0.0669  0.2093 -0.7100
 6180TIP3    H139955   3.513   6.321   1.405  3.7944  1.2897 -1.7132
 6180TIP3    H239956   3.483   6.405   1.283 -0.3297  1.3445 -0.7478
 6181TIP3   OH239957   6.253   0.574   0.311  0.2697 -0.3826  0.2621
 6181TIP3    H139958   6.281   0.659   0.345 -0.1956  0.5588 -1.6402
 6181TIP3    H239959   6.300   0.510   0.365  2.7594  1.1072 -0.0571
 6182TIP3   OH239960   6.526   4.458  11.563  0.1357  0.0962  0.0593
 6182TIP3    H139961   6.531   4.477  11.470  1.0537 -0.7195 -0.0652
 6182TIP3    H239962   6.525   4.545  11.605 -0.9238  0.4753 -0.7214
 6183TIP3   OH239963   0.287   4.705  16.313 -0.3229 -0.0718 -0.1203
 6183TIP3    H139964   0.381   4.695  16.304 -0.3028 -0.9433  0.9854
 6183TIP3    H239965   0.266   4.783  16.261  1.2528  1.2301  1.1480
 6184TIP3   OH239966   3.528   4.228   1.421  0.2764 -0.4788  0.1348
 6184TIP3    H139967   3.578   4.269   1.350 -0.9915  0.2006 -0.3666
 6184TIP3    H239968   3.567   4.264   1.500  3.7532 -3.5447 -0.0389
 6185TIP3   OH239969   4.275   3.109  11.765  0.4984 -0.4084 -0.0040
 6185TIP3    H139970   4.189   3.068  11.753  0.2836 -0.3650  1.4132
 6185TIP3    H239971   4.269   3.193  11.719  0.8048 -1.7274 -2.5923
 6186TIP3   OH239972   3.909   3.850  16.664 -0.3844 -0.2333  0.1356
 6186TIP3    H139973   3.995   3.866  16.702 -0.0987  0.2199 -0.6850
 6186TIP3    H239974   3.847   3.895  16.722 -0.0047  0.0187  0.3406
 6187TIP3   OH239975   2.081   5.547   2.535  0.3001  0.5116 -0.1922
 6187TIP3    H139976   2.169   5.583   2.537 -0.0001  1.4652 -2.5448
 6187TIP3    H239977   2.093   5.454   2.515  0.7583  0.6395 -0.5057
 6188TIP3   OH239978   3.782   2.727  14.715 -0.7250  0.2330 -0.0110
 6188TIP3    H139979   3.754   2.638  14.735  0.0451 -0.2502 -1.0321
 6188TIP3    H239980   3.872   2.732  14.749 -0.1303  0.0430 -1.5244
 6189TIP3   OH239981   2.704   5.521   3.097  0.0556  0.0979 -0.6313
 6189TIP3    H139982   2.689   5.580   3.171 -0.1930 -0.9831  0.1848
 6189TIP3    H239983   2.799   5.508   3.097 -0.0098 -0.4468 -0.0578
 6190TIP3   OH239984   3.310   6.182   0.540  0.6042 -0.4696 -0.6903
 6190TIP3    H139985   3.305   6.237   0.461  2.2346  0.1075 -0.4086
 6190TIP3    H239986   3.384   6.123   0.524  0.7164 -0.5955  0.2524
 6191TIP3   OH239987   2.402   3.969  10.724 -0.4167  0.3224 -0.3689
 6191TIP3    H139988   2.360   4.021  10.655 -1.0130 -0.7762 -0.8641
 6191TIP3    H239989   2.465   4.028  10.764  0.1302  0.9147 -2.0406
 6192TIP3   OH239990   5.465   2.883  15.858 -0.0882 -0.0301  0.2652
 6192TIP3    H139991   5.501   2.898  15.771 -1.7129 -0.0357 -0.4357
 6192TIP3    H239992   5.509   2.804  15.889  0.4358 -0.0780 -0.5910
 6193TIP3   OH239993   1.843   3.137   4.372 -0.0866  0.8601  0.1759
 6193TIP3    H139994   1.929   3.094   4.366 -0.2981  0.6860 -1.9075
 6193TIP3    H239995   1.863   3.227   4.398  0.5506  0.2623  1.8760
 6194TIP3   OH239996   6.762   6.310  14.060 -0.0270  0.3651  0.3042
 6194TIP3    H139997   6.784   6.268  13.977  1.5549 -0.2656  1.0346
 6194TIP3    H239998   6.732   6.398  14.035  3.4539  1.3203 -0.7286
 6195TIP3   OH239999   3.142   1.079   5.953  0.3909 -0.3465  0.5255
 6195TIP3    H140000   3.176   1.168   5.957 -1.2199  0.2939  0.0697
 6195TIP3    H240001   3.091   1.068   6.033 -0.7278 -0.3045 -0.1705
 6196TIP3   OH240002   2.387   4.402   6.395  0.5003  0.1238  0.1013
 6196TIP3    H140003   2.462   4.382   6.450  1.5916  1.6117 -0.8073
 6196TIP3    H240004   2.321   4.337   6.419  1.6708 -0.4872  1.7115
 6197TIP3   OH240005   1.209   0.495   1.776 -0.6521 -0.1228  0.1774
 6197TIP3    H140006   1.157   0.457   1.846 -1.0786 -1.8310 -1.0141
 6197TIP3    H240007   1.146   0.511   1.705  0.2631 -1.4229 -0.9705
 6198TIP3   OH240008   6.248   4.770  13.056 -0.6959 -0.2677 -0.4660
 6198TIP3    H140009   6.266   4.858  13.024 -0.3819  0.2815  1.1834
 6198TIP3    H240010   6.260   4.714  12.979  0.3523  0.9732 -1.2289
 6199TIP3   OH240011   6.376   5.158  14.244 -0.0498 -0.7818 -0.5577
 6199TIP3    H140012   6.360   5.101  14.169 -2.2003 -0.1033 -0.6389
 6199TIP3    H240013   6.366   5.247  14.210  0.3086 -0.4307  0.2345
 6200TIP3   OH240014   5.476   6.009   4.483 -0.0962  0.1024  1.0718
 6200TIP3    H140015   5.564   6.041   4.501  0.5416 -1.1969  0.3074
 6200TIP3    H240016   5.445   6.064   4.411 -0.2373  1.1023  1.8821
 6201TIP3   OH240017   0.002   4.507   1.232 -0.2630  0.0189  0.0382
 6201TIP3    H140018   0.037   4.518   1.144 -0.6481 -0.3952 -0.1683
 6201TIP3    H240019   0.051   4.434   1.269  0.0736  0.3536  0.2610
 6202TIP3   OH240020   2.931   3.163  16.162 -0.6524 -0.1925 -0.0518
 6202TIP3    H140021   2.836   3.160  16.176 -0.8441 -0.0246 -1.2351
 6202TIP3    H240022   2.952   3.076  16.127 -0.4429 -0.0636 -0.2408
 6203TIP3   OH240023   2.560   6.170   4.754 -0.0981  0.2122  0.1323
 6203TIP3    H140024   2.526   6.090   4.792  1.7627  0.1698  1.7705
 6203TIP3    H240025   2.547   6.237   4.822  2.0815  0.4052  0.4036
 6204TIP3   OH240026   0.711   2.019   3.085  0.2898  0.5072  0.0054
 6204TIP3    H140027   0.630   1.984   3.048  0.1301  0.1175  0.7238
 6204TIP3    H240028   0.717   2.108   3.050 -0.3936  0.5034 -0.1232
 6205TIP3   OH240029   1.803   6.563   2.588 -0.1042  0.2230  0.6673
 6205TIP3    H140030   1.873   6.626   2.604 -0.3497  0.0533  2.5184
 6205TIP3    H240031   1.848   6.479   2.579  0.0866  0.4064 -0.0595
 6206TIP3   OH240032   0.812   1.159   5.933 -0.5449  0.3144 -0.0808
 6206TIP3    H140033   0.788   1.157   5.840 -1.8931  1.4780  0.2351
 6206TIP3    H240034   0.765   1.084   5.971 -2.4449  1.6299  0.2246
 6207TIP3   OH240035   4.339   2.305   5.445 -1.1370  0.3239 -0.5076
 6207TIP3    H140036   4.265   2.323   5.388 -1.2725 -2.3044 -1.2427
 6207TIP3    H240037   4.307   2.239   5.507 -0.5814  2.1053  1.7671
 6208TIP3   OH240038   1.348   2.779  11.757 -0.4790 -0.1251  0.5581
 6208TIP3    H140039   1.419   2.842  11.744 -0.8970  0.2979  0.3065
 6208TIP3    H240040   1.299   2.780  11.675 -1.3703  0.3408  1.0936
 6209TIP3   OH240041   6.250   4.931   2.450 -0.6087 -0.0061 -0.5015
 6209TIP3    H140042   6.298   4.862   2.405  0.2140  1.3707 -1.7705
 6209TIP3    H240043   6.209   4.887   2.524  2.4489 -1.2562  0.5278
 6210TIP3   OH240044   3.101   2.068   2.925 -0.1106  0.6254  0.2536
 6210TIP3    H140045   3.189   2.097   2.901 -0.2764  1.2458  0.3973
 6210TIP3    H240046   3.056   2.147   2.953 -0.8532  0.3785 -0.2375
 6211TIP3   OH240047   2.533   1.830   6.359 -0.0027 -0.1549  0.2617
 6211TIP3    H140048   2.581   1.810   6.440  0.0984 -1.1578 -0.0295
 6211TIP3    H240049   2.548   1.923   6.345 -0.7222  0.2195  1.8530
 6212TIP3   OH240050   5.757   5.890  14.347 -0.6599 -0.0721 -0.0217
 6212TIP3    H140051   5.681   5.920  14.397 -1.8144 -2.6453 -0.1634
 6212TIP3    H240052   5.785   5.810  14.392  0.7834 -0.1724 -1.0946
 6213TIP3   OH240053   1.056   2.404   3.511 -0.4423  0.5345 -0.5658
 6213TIP3    H140054   1.045   2.498   3.523  0.9456  0.7691 -1.0023
 6213TIP3    H240055   1.040   2.366   3.597  0.3172  1.3023 -0.0849
 6214TIP3   OH240056   1.767   3.641   1.551 -0.1497  0.2467  0.3162
 6214TIP3    H140057   1.831   3.629   1.481 -1.7197 -1.0889 -0.9362
 6214TIP3    H240058   1.801   3.714   1.603  1.5883  0.5492 -1.2159
 6215TIP3   OH240059   3.962   6.170   4.365  0.0306 -0.4749 -0.0021
 6215TIP3    H140060   3.949   6.182   4.271  1.0979 -0.2017 -0.1189
 6215TIP3    H240061   3.946   6.077   4.380 -4.1056  0.1414  0.2115
 6216TIP3   OH240062   1.368   1.330  14.605 -0.1478 -0.5247 -0.3754
 6216TIP3    H140063   1.316   1.402  14.569 -0.3658  0.0233  0.9872
 6216TIP3    H240064   1.459   1.355  14.587 -0.2605 -0.3651 -0.7343
 6217TIP3   OH240065   0.007   0.038   0.203 -0.0797 -0.2666  0.3892
 6217TIP3    H140066  -0.031  -0.009   0.129  1.3372  2.1066 -1.9474
 6217TIP3    H240067   0.100   0.016   0.200  0.1034  0.4095  1.0402
 6218TIP3   OH240068   0.924   5.758  16.394 -0.3521  0.7275  0.3380
 6218TIP3    H140069   0.976   5.692  16.348  0.9783  1.4872  0.7026
 6218TIP3    H240070   0.958   5.757  16.484 -0.5759  1.6210  0.4449
 6219TIP3   OH240071   1.286   6.595  15.251  0.0178 -0.1056  0.3490
 6219TIP3    H140072   1.212   6.655  15.249  0.1399  0.0391  0.1482
 6219TIP3    H240073   1.306   6.585  15.344 -0.5155 -0.4722  0.4188
 6220TIP3   OH240074   3.055   1.891   0.991 -0.0667 -0.0819 -0.2790
 6220TIP3    H140075   3.096   1.836   1.057 -1.1394 -2.2472 -1.3413
 6220TIP3    H240076   2.966   1.855   0.983 -0.2560  0.7688 -2.1593
 6221TIP3   OH240077   6.104   2.483  13.580 -0.9134 -0.1258  0.7706
 6221TIP3    H140078   6.135   2.474  13.670 -0.4993  2.4326  0.9260
 6221TIP3    H240079   6.168   2.436  13.527 -1.4474 -2.1045  1.8493
 6222TIP3   OH240080   3.282   4.089   6.268  0.2073  0.2103  1.3209
 6222TIP3    H140081   3.304   4.175   6.234  1.3100  0.6424  3.0329
 6222TIP3    H240082   3.310   4.092   6.360  0.4013 -2.0179  1.3614
 6223TIP3   OH240083   5.545   2.608   2.004  0.3401 -0.4338  0.2560
 6223TIP3    H140084   5.477   2.561   1.956  1.2761 -0.6088 -0.9238
 6223TIP3    H240085   5.567   2.551   2.077 -4.1792  1.7204  3.5745
 6224TIP3   OH240086   0.739   5.180  14.085 -0.0052  0.6924  0.3715
 6224TIP3    H140087   0.791   5.257  14.060  0.5340  0.1631 -0.1399
 6224TIP3    H240088   0.803   5.117  14.116 -0.4613  0.4754  0.8882
 6225TIP3   OH240089   5.208   3.768  13.183  0.0294 -0.4991 -1.1176
 6225TIP3    H140090   5.261   3.695  13.216  0.7348 -0.4877 -2.2065
 6225TIP3    H240091   5.179   3.740  13.097 -0.1262  0.2966 -1.3289
 6226TIP3   OH240092   4.951   3.325  17.049 -0.7468 -0.1452 -0.1385
 6226TIP3    H140093   4.880   3.384  17.022 -0.4882 -0.6086 -1.8927
 6226TIP3    H240094   4.959   3.263  16.977  0.9774 -0.5311  0.3672
 6227TIP3   OH240095   6.776   3.621  11.427 -0.0051 -0.6025  0.5622
 6227TIP3    H140096   6.823   3.704  11.431 -0.8084 -0.0337 -1.2744
 6227TIP3    H240097   6.765   3.595  11.518  1.3421  0.6832  1.1044
 6228TIP3   OH240098   3.063   3.393  14.397 -0.0144  0.6688 -0.8378
 6228TIP3    H140099   3.012   3.462  14.440 -2.3158 -1.1191 -0.6034
 6228TIP3    H240100   3.154   3.411  14.422 -1.0062  1.2389  2.5751
 6229TIP3   OH240101   3.793   2.131   0.778 -0.4299  0.2105 -0.2319
 6229TIP3    H140102   3.779   2.106   0.686  0.5652  0.5998 -0.4965
 6229TIP3    H240103   3.823   2.222   0.773  3.1575 -0.8792  0.2157
 6230TIP3   OH240104   1.037   1.963   1.643  0.3842  0.1555  0.4870
 6230TIP3    H140105   1.107   1.970   1.579  0.8750  0.8056  1.0843
 6230TIP3    H240106   1.059   1.886   1.696  0.2881 -0.0326  0.2553
 6231TIP3   OH240107   0.950   4.455  14.679  0.1173 -0.2722 -0.4317
 6231TIP3    H140108   0.994   4.411  14.606 -0.8651 -2.0871  0.0383
 6231TIP3    H240109   0.932   4.385  14.741 -2.3811  0.6357 -0.0992
 6232TIP3   OH240110   0.577   0.432   3.211  0.6502  0.2162 -0.1491
 6232TIP3    H140111   0.500   0.395   3.255  0.0613  1.4218 -0.1371
 6232TIP3    H240112   0.581   0.387   3.127 -0.4131  0.5458 -0.3853
 6233TIP3   OH240113   4.091   0.064  17.043 -0.0453  0.1596 -0.3822
 6233TIP3    H140114   4.106  -0.028  17.018 -0.3611 -0.2897  1.0312
 6233TIP3    H240115   4.062   0.106  16.962  1.9318 -0.5509 -1.5196
 6234TIP3   OH240116   6.506   4.882   4.470 -0.1622  0.0349 -0.3431
 6234TIP3    H140117   6.536   4.966   4.434 -0.5716  0.1966 -0.3118
 6234TIP3    H240118   6.411   4.886   4.462 -0.1930 -0.3358 -0.1355
 6235TIP3   OH240119   2.452   1.957  14.509  0.1753 -0.1486  0.1606
 6235TIP3    H140120   2.368   1.966  14.554 -1.6634 -1.7067 -2.8140
 6235TIP3    H240121   2.476   2.046  14.486 -1.2052  0.2279  0.1137
 6236TIP3   OH240122   0.427   1.060   0.206  0.2823 -0.1438 -0.4915
 6236TIP3    H140123   0.410   1.040   0.298 -0.8484 -1.4554 -0.9714
 6236TIP3    H240124   0.503   1.118   0.208 -0.4594  0.8125  1.3347
 6237TIP3   OH240125   3.871   5.307  10.667 -0.4189  1.0000 -0.2003
 6237TIP3    H140126   3.817   5.367  10.718  0.9480  1.5122  0.6529
 6237TIP3    H240127   3.884   5.352  10.583 -0.6956  1.2018 -0.1370
 6238TIP3   OH240128   5.541   4.007  12.035  0.2095  0.3569 -0.4021
 6238TIP3    H140129   5.553   3.960  12.117 -0.3356 -1.7056 -1.4870
 6238TIP3    H240130   5.448   4.002  12.017  0.6090 -1.0862 -2.2222
 6239TIP3   OH240131   6.474   4.234  15.507 -0.5611  0.3396  0.3921
 6239TIP3    H140132   6.520   4.163  15.463 -1.7516 -1.0429  1.3190
 6239TIP3    H240133   6.420   4.274  15.439  0.9738  1.1136 -0.3905
 6240TIP3   OH240134   4.681   6.375  12.335  0.4792  0.0392  0.2007
 6240TIP3    H140135   4.768   6.337  12.341  0.5478 -0.1163 -1.4589
 6240TIP3    H240136   4.695   6.465  12.304 -0.0271 -0.4585 -1.5063
 6241TIP3   OH240137   5.322   0.255  11.111  0.3513  0.0970 -0.5819
 6241TIP3    H140138   5.418   0.262  11.108  0.3382 -0.3826 -3.5531
 6241TIP3    H240139   5.290   0.334  11.067 -0.6902  0.9917  1.7131
 6242TIP3   OH240140   2.159   4.708   1.905 -0.0668 -0.7792  0.1860
 6242TIP3    H140141   2.162   4.685   1.812  0.2784 -2.4679  0.6119
 6242TIP3    H240142   2.068   4.733   1.920 -0.2757 -1.1445 -0.4490
 6243TIP3   OH240143   6.623   5.142   3.658  0.3295  0.4915 -0.2917
 6243TIP3    H140144   6.536   5.149   3.618 -1.8789 -0.5008  3.9805
 6243TIP3    H240145   6.626   5.052   3.691  1.5471  1.5311  2.5888
 6244TIP3   OH240146   4.859   6.591   5.623  0.4696  0.2347  0.5057
 6244TIP3    H140147   4.850   6.522   5.689 -2.8085 -0.0905 -0.2091
 6244TIP3    H240148   4.844   6.547   5.540 -0.2178  1.5404 -0.0805
 6245TIP3   OH240149   1.353   1.230   0.761  0.1763 -0.0219  0.0972
 6245TIP3    H140150   1.407   1.167   0.808  2.0634  0.3132 -1.5357
 6245TIP3    H240151   1.336   1.188   0.676 -3.9441 -1.0365  1.3095
 6246TIP3   OH240152   2.327   2.839  15.986  0.5178 -0.0258 -0.1720
 6246TIP3    H140153   2.394   2.820  15.920 -0.8461  0.1305 -1.6314
 6246TIP3    H240154   2.321   2.934  15.988  0.8674 -0.0138  0.5128
 6247TIP3   OH240155   6.226   1.443   2.065  0.6471  0.3715 -0.8067
 6247TIP3    H140156   6.310   1.488   2.066  1.9409 -1.9584  0.1216
 6247TIP3    H240157   6.219   1.405   1.978  1.5532 -1.1783 -0.2217
 6248TIP3   OH240158   5.743   5.327  13.512 -0.1798 -0.0339 -0.0529
 6248TIP3    H140159   5.680   5.387  13.554  0.5934 -0.5331  1.8957
 6248TIP3    H240160   5.801   5.300  13.584  2.1252  0.2371 -1.7655
 6249TIP3   OH240161   2.626   5.627  15.003 -0.1879  0.3352 -0.0624
 6249TIP3    H140162   2.592   5.674  15.079  1.8572  0.0977  1.0400
 6249TIP3    H240163   2.685   5.561  15.040 -2.1200 -2.3765 -1.6404
 6250TIP3   OH240164   3.914   1.835  13.966  0.7088  0.1235  0.0389
 6250TIP3    H140165   3.968   1.759  13.985 -0.3005 -0.6769 -0.2468
 6250TIP3    H240166   3.905   1.880  14.050  1.4536  0.0203  0.1717
 6251TIP3   OH240167   0.590   0.675  12.221 -0.1926  0.0220 -0.1979
 6251TIP3    H140168   0.562   0.608  12.283 -0.5952 -0.5718 -1.0188
 6251TIP3    H240169   0.672   0.641  12.185  0.2791  0.5787  0.3272
 6252TIP3   OH240170   6.410   0.234   3.188  0.1562  0.2750  0.6792
 6252TIP3    H140171   6.335   0.213   3.243 -1.7629  2.8871 -0.8172
 6252TIP3    H240172   6.458   0.302   3.236 -0.9950  1.8667 -0.3480
 6253TIP3   OH240173   1.053   1.634   5.495  0.0212 -0.1872  0.2200
 6253TIP3    H140174   0.995   1.590   5.433 -0.2492 -0.6176  0.7806
 6253TIP3    H240175   1.122   1.672   5.441  0.2638 -1.3120 -0.2562
 6254TIP3   OH240176   4.140   2.912   5.033 -0.5844 -0.3160 -0.0223
 6254TIP3    H140177   4.202   2.926   4.961  0.1877 -0.0939  0.6746
 6254TIP3    H240178   4.069   2.974   5.017 -0.2001  0.0399 -0.3439
 6255TIP3   OH240179   2.334   2.217  13.472 -0.0615 -0.0730 -0.2585
 6255TIP3    H140180   2.272   2.163  13.423  0.8666 -0.3700 -1.1185
 6255TIP3    H240181   2.398   2.154  13.506  0.6821  0.4170 -0.7447
 6256TIP3   OH240182   0.859   5.173   0.681 -0.1308  0.0349  0.9979
 6256TIP3    H140183   0.806   5.198   0.605  0.2013 -0.1593  0.6995
 6256TIP3    H240184   0.858   5.077   0.681  1.7651 -0.0142 -0.1140
 6257TIP3   OH240185   6.166   4.717  13.601  0.5867 -0.5461  0.3649
 6257TIP3    H140186   6.140   4.679  13.517 -1.0602 -1.3257  1.2085
 6257TIP3    H240187   6.193   4.806  13.580  1.7073 -1.2396 -1.2146
 6258TIP3   OH240188   5.164   1.004   1.994  0.1559 -0.1623  0.1325
 6258TIP3    H140189   5.250   0.968   2.017 -0.3027 -1.1802  0.2657
 6258TIP3    H240190   5.142   1.063   2.066  0.2347 -0.7661  0.6501
 6259TIP3   OH240191   5.800   5.528  15.443 -0.7809  0.3616 -0.3612
 6259TIP3    H140192   5.756   5.607  15.412  0.9950  0.2408 -3.3349
 6259TIP3    H240193   5.859   5.504  15.372  0.5533 -2.2173  1.5517
 6260TIP3   OH240194   4.446   5.979   3.904 -0.4758  0.1663  0.2228
 6260TIP3    H140195   4.398   5.945   3.829  0.4876  2.4499 -1.4732
 6260TIP3    H240196   4.464   6.070   3.882  2.9260 -0.0915  1.6399
 6261TIP3   OH240197   3.902   3.608   2.198 -0.4228 -0.5131 -0.0246
 6261TIP3    H140198   3.860   3.693   2.209 -0.6247 -0.6640  0.4105
 6261TIP3    H240199   3.834   3.545   2.223 -0.2224 -0.7921 -0.1893
 6262TIP3   OH240200   1.898   0.105  12.774 -0.2509 -0.0285  0.2012
 6262TIP3    H140201   1.944   0.174  12.725 -1.1738 -0.8942 -1.9379
 6262TIP3    H240202   1.807   0.111  12.744 -0.5591 -1.4617  0.8069
 6263TIP3   OH240203   2.400   2.563  12.201  0.4497 -0.0453 -0.6539
 6263TIP3    H140204   2.403   2.537  12.293  2.1962 -0.7471 -0.8986
 6263TIP3    H240205   2.311   2.598  12.189  0.0588 -0.3687  1.1717
 6264TIP3   OH240206   3.788   6.375   5.045 -0.4807 -0.5447 -0.3684
 6264TIP3    H140207   3.785   6.470   5.050 -0.8158 -0.6334  1.3592
 6264TIP3    H240208   3.715   6.351   4.988 -0.9596  0.1694 -0.0456
 6265TIP3   OH240209   3.932   6.296   4.627 -0.2366 -0.2548  0.2713
 6265TIP3    H140210   4.008   6.253   4.667 -0.8073 -1.0607  0.5111
 6265TIP3    H240211   3.924   6.255   4.541  0.3671  0.7417 -0.2621
 6266TIP3   OH240212   3.777   0.024  12.834  0.0201 -0.6644  0.3394
 6266TIP3    H140213   3.697  -0.029  12.831 -1.7737  1.8513  1.5656
 6266TIP3    H240214   3.772   0.078  12.755  1.3057 -1.5263 -0.3593
 6267TIP3   OH240215   2.859   3.124   4.346  0.0315  0.0414 -0.1204
 6267TIP3    H140216   2.824   3.114   4.435  0.3678 -1.7291 -0.1665
 6267TIP3    H240217   2.940   3.174   4.359 -0.2947  0.4314  0.4780
 6268TIP3   OH240218   2.883   5.154  17.191 -0.5281  0.4383 -0.0656
 6268TIP3    H140219   2.912   5.217  17.257 -0.7114 -0.8224  1.2356
 6268TIP3    H240220   2.789   5.168  17.184 -0.6591 -0.0647  0.6371
 6269TIP3   OH240221   5.715   5.886  15.951  0.3899  0.5863 -0.2693
 6269TIP3    H140222   5.793   5.910  16.001 -1.1506  1.4995  1.7271
 6269TIP3    H240223   5.702   5.793  15.970 -0.3017  0.9758  1.1992
 6270TIP3   OH240224   1.770   2.740   1.940 -0.1897 -0.6012  0.1234
 6270TIP3    H140225   1.763   2.814   2.000  0.7864 -0.4203  0.0247
 6270TIP3    H240226   1.736   2.772   1.857 -0.0943 -0.3781  0.1728
 6271TIP3   OH240227   4.456   1.766  11.903 -0.3863 -0.0782  0.7101
 6271TIP3    H140228   4.381   1.709  11.886  0.0836 -0.6592  0.5681
 6271TIP3    H240229   4.532   1.711  11.887  0.0840  0.9608 -0.7073
 6272TIP3   OH240230   5.423   0.231  15.574  0.5702 -0.1142 -0.0135
 6272TIP3    H140231   5.497   0.203  15.520  0.5263 -1.6556  0.6863
 6272TIP3    H240232   5.452   0.313  15.614  2.0982 -0.9516  0.6262
 6273TIP3   OH240233   1.551   2.939   1.085  0.4325 -0.4984  0.4036
 6273TIP3    H140234   1.508   2.861   1.120 -0.0878 -0.8202 -0.9229
 6273TIP3    H240235   1.552   3.000   1.158 -0.5177 -1.2011  1.0179
 6274TIP3   OH240236   0.972   2.920   5.821 -0.4733  0.1844  0.4948
 6274TIP3    H140237   1.045   2.977   5.845 -0.9437  1.5316 -1.2180
 6274TIP3    H240238   0.959   2.935   5.727 -3.1443  0.1882  0.8371
 6275TIP3   OH240239   2.206   4.660   1.651 -0.0682 -0.7498  0.0751
 6275TIP3    H140240   2.166   4.593   1.595 -0.2066 -0.2274 -0.4478
 6275TIP3    H240241   2.263   4.709   1.593 -1.0777  0.5224  0.1328
 6276TIP3   OH240242   4.782   6.704   0.829  0.1152 -0.3153  0.2482
 6276TIP3    H140243   4.770   6.783   0.882  0.1174 -0.3927  0.3649
 6276TIP3    H240244   4.862   6.721   0.779 -0.3355  0.0904 -0.3335
 6277TIP3   OH240245   3.399   2.382  17.138  0.0314  0.5102 -0.7257
 6277TIP3    H140246   3.353   2.401  17.056 -0.7633 -0.0328 -0.4033
 6277TIP3    H240247   3.394   2.463  17.188 -1.4916  0.1396 -0.2544
 6278TIP3   OH240248   6.539   1.520   4.189 -0.3658  0.1211 -0.1190
 6278TIP3    H140249   6.560   1.502   4.098  2.5967  1.9918  0.1141
 6278TIP3    H240250   6.469   1.586   4.186 -1.6543 -1.2668 -0.9869
 6279TIP3   OH240251   4.759   4.489   3.123  0.1632 -0.1745 -0.8915
 6279TIP3    H140252   4.851   4.469   3.140  0.2857 -1.4349 -2.8665
 6279TIP3    H240253   4.758   4.582   3.103  0.1901  1.1117  4.3794
 6280TIP3   OH240254   1.541   6.405   5.179 -0.1479  0.1644 -0.3672
 6280TIP3    H140255   1.455   6.410   5.220 -0.8008  0.8866 -1.8231
 6280TIP3    H240256   1.563   6.495   5.157  0.4903 -0.1454 -1.0172
 6281TIP3   OH240257   1.487   0.726  12.698  0.0156 -0.1943  0.0136
 6281TIP3    H140258   1.537   0.684  12.768 -1.4281 -0.0264  1.1746
 6281TIP3    H240259   1.553   0.769  12.644  1.2735 -1.5128  0.4568
 6282TIP3   OH240260   1.641   3.727  17.113  0.9388 -0.2270  0.1114
 6282TIP3    H140261   1.673   3.659  17.173  1.4800  1.0731  1.3155
 6282TIP3    H240262   1.627   3.803  17.168 -1.2294  0.1850 -0.9579
 6283TIP3   OH240263   1.469   3.253  17.116  0.3436 -0.6581 -0.3658
 6283TIP3    H140264   1.542   3.255  17.055 -0.6169  1.0568 -1.5235
 6283TIP3    H240265   1.397   3.215  17.065 -0.7329  1.6964 -0.6704
 6284TIP3   OH240266   1.839   1.290  11.986  0.2128  0.1811  0.5914
 6284TIP3    H140267   1.890   1.338  12.052  0.8499  0.1993  0.0913
 6284TIP3    H240268   1.826   1.203  12.024  2.1083 -0.3817 -0.0140
 6285TIP3   OH240269   0.536   3.431  13.212 -0.8314  0.5226  0.3990
 6285TIP3    H140270   0.443   3.454  13.210 -0.1120  3.5088 -1.5646
 6285TIP3    H240271   0.572   3.466  13.130  1.8914 -1.2313  0.7735
 6286TIP3   OH240272   6.278   3.213  14.294 -0.6180 -0.0459  0.0679
 6286TIP3    H140273   6.281   3.161  14.214 -0.4158  0.7588 -0.4444
 6286TIP3    H240274   6.322   3.295  14.272  0.8117 -0.4181  1.4549
 6287TIP3   OH240275   6.026   1.440  12.602  0.8530 -0.3527 -0.2607
 6287TIP3    H140276   5.938   1.404  12.590  1.4250 -1.6065 -0.8356
 6287TIP3    H240277   6.038   1.443  12.697  0.5730 -1.1389 -0.1945
 6288TIP3   OH240278   4.400   5.385   1.920 -0.1723  0.4692 -0.1753
 6288TIP3    H140279   4.379   5.447   1.990  0.9234  0.7164 -0.0498
 6288TIP3    H240280   4.491   5.360   1.937 -0.8038 -1.6784  0.1332
 6289TIP3   OH240281   1.250   2.215  11.554 -0.0108 -0.1387  0.8344
 6289TIP3    H140282   1.173   2.168  11.585 -0.1218  0.0656  0.8686
 6289TIP3    H240283   1.305   2.148  11.514  0.8809 -0.7063  2.9078
 6290TIP3   OH240284   4.319   4.932   1.602 -0.6591  0.0873 -0.4215
 6290TIP3    H140285   4.409   4.957   1.585 -0.9145  0.5267 -1.1591
 6290TIP3    H240286   4.280   5.008   1.646 -0.6633 -0.1083 -0.0854
 6291TIP3   OH240287   6.081   1.874   1.433  0.8835 -0.1791 -0.2113
 6291TIP3    H140288   6.063   1.943   1.370 -1.5861 -0.2636  0.3792
 6291TIP3    H240289   6.155   1.907   1.484  0.1228  1.7524 -0.3363
 6292TIP3   OH240290   2.759   1.848   3.653 -0.0008  0.1285 -0.5287
 6292TIP3    H140291   2.732   1.875   3.566 -1.1869  0.3357 -0.0979
 6292TIP3    H240292   2.679   1.818   3.696  0.8550 -1.6167 -0.0943
 6293TIP3   OH240293   1.095   2.404   0.927 -0.5354  0.4543 -0.4285
 6293TIP3    H140294   1.064   2.493   0.909  1.2435  1.0498 -0.6507
 6293TIP3    H240295   1.156   2.385   0.856 -1.0015 -1.0145 -0.4629
 6294TIP3   OH240296   4.141   5.784  14.260  0.3615  0.0127  0.2519
 6294TIP3    H140297   4.194   5.767  14.182  0.2207 -3.6199  0.8563
 6294TIP3    H240298   4.052   5.796  14.227  0.2575 -1.7849 -0.1587
 6295TIP3   OH240299   0.155   5.264   0.641 -0.0051 -0.2170  0.2005
 6295TIP3    H140300   0.138   5.358   0.632  0.0436 -0.2171  0.1106
 6295TIP3    H240301   0.122   5.243   0.729 -4.2416 -1.0134 -1.4530
 6296TIP3   OH240302   0.358   5.458  16.262 -0.2223  0.0336  0.2915
 6296TIP3    H140303   0.305   5.437  16.339 -0.6396 -2.6455 -0.6896
 6296TIP3    H240304   0.446   5.426  16.283  0.1079  0.9713  0.3739
 6297TIP3   OH240305   3.283   1.985  11.539  0.8831  0.5028 -0.1153
 6297TIP3    H140306   3.358   2.013  11.591 -1.1819  0.0715  3.2650
 6297TIP3    H240307   3.223   2.060  11.541 -0.1276 -0.2915 -0.0427
 6298TIP3   OH240308   2.504   3.584   6.030 -0.1111  0.1140  0.0830
 6298TIP3    H140309   2.561   3.524   5.983  1.5454  0.3183  1.7461
 6298TIP3    H240310   2.546   3.594   6.116 -1.5729  1.8723  0.6210
 6299TIP3   OH240311   3.868   5.272  15.659  0.1659  0.2543 -0.0114
 6299TIP3    H140312   3.897   5.183  15.678 -1.4298  0.2419  2.5325
 6299TIP3    H240313   3.940   5.327  15.690  0.2294 -0.0390  0.3607
 6300TIP3   OH240314   4.094   2.072  15.745 -0.7655 -0.3731 -0.2211
 6300TIP3    H140315   4.179   2.110  15.720  0.0209 -2.3552 -0.6951
 6300TIP3    H240316   4.117   1.986  15.782 -2.6272 -1.3837 -1.3518
 6301TIP3   OH240317   3.083   4.543  12.707  0.4878  0.3959 -0.2638
 6301TIP3    H140318   3.157   4.603  12.706  0.5551  0.3252  0.1814
 6301TIP3    H240319   3.025   4.575  12.639  1.5765 -0.3806 -1.5917
 6302TIP3   OH240320   4.780   3.134  14.341 -0.3095 -0.1724 -0.2641
 6302TIP3    H140321   4.864   3.089  14.326  1.0076  1.5800  1.6433
 6302TIP3    H240322   4.721   3.065  14.372  1.0316 -1.0291  0.4384
 6303TIP3   OH240323   1.996   4.858   3.664 -0.0774  0.2716 -0.0534
 6303TIP3    H140324   1.981   4.952   3.656 -0.7829 -0.0092 -2.5638
 6303TIP3    H240325   2.080   4.851   3.709  0.3742  2.1076 -0.5743
 6304TIP3   OH240326   6.611   4.741  16.551 -0.1405  0.1027 -0.9587
 6304TIP3    H140327   6.698   4.776  16.570 -0.1899 -0.0711 -0.4067
 6304TIP3    H240328   6.613   4.652  16.586 -1.7359  1.3079  2.3308
 6305TIP3   OH240329   4.136   5.991  12.512  0.0332 -0.0288 -0.4050
 6305TIP3    H140330   4.094   5.908  12.537 -0.9532 -0.0214 -1.9938
 6305TIP3    H240331   4.179   6.021  12.593 -3.0414 -0.0032  1.2990
 6306TIP3   OH240332   2.993   2.037  12.096  0.4698 -0.1148 -0.0302
 6306TIP3    H140333   2.950   1.955  12.121  1.1407  0.3353  2.8507
 6306TIP3    H240334   3.081   2.011  12.070  0.3584 -0.4096 -0.1207
 6307TIP3   OH240335   2.727   1.813   5.450  0.3504  0.2881  0.0831
 6307TIP3    H140336   2.700   1.903   5.468  1.4345  0.8336 -0.9293
 6307TIP3    H240337   2.691   1.794   5.363  1.0798  0.1492 -0.1946
 6308TIP3   OH240338   5.088   6.575   2.204  0.1517 -0.1619  0.3894
 6308TIP3    H140339   5.020   6.507   2.196  1.7168 -1.5684 -1.3743
 6308TIP3    H240340   5.073   6.632   2.128  2.7833 -2.2435 -1.8044
 6309TIP3   OH240341   4.547   1.748   4.303  0.2894 -0.7048  0.0708
 6309TIP3    H140342   4.600   1.818   4.265 -0.5071 -0.6508 -0.9664
 6309TIP3    H240343   4.580   1.668   4.263  0.4583 -0.8096  0.4168
 6310TIP3   OH240344   2.329   5.104  14.448  0.3081 -0.5741 -0.0979
 6310TIP3    H140345   2.344   5.118  14.542 -1.8006 -0.3914  0.2483
 6310TIP3    H240346   2.284   5.020  14.444 -0.1546 -0.2910 -0.8875
 6311TIP3   OH240347   5.580   1.518  11.937  0.3805  0.0064 -0.4725
 6311TIP3    H140348   5.508   1.578  11.918  0.3049  0.4583  1.1509
 6311TIP3    H240349   5.656   1.574  11.945  0.3175 -0.0891  1.0229
 6312TIP3   OH240350   2.416   6.145   1.082 -0.5826  0.5151 -0.2525
 6312TIP3    H140351   2.361   6.222   1.096 -0.9054  0.2799 -0.2240
 6312TIP3    H240352   2.376   6.101   1.007 -1.0152 -0.1865  0.3895
 6313TIP3   OH240353   3.634   3.756   3.581  0.3719 -0.0399 -0.7850
 6313TIP3    H140354   3.709   3.729   3.527  0.2215 -1.0410 -0.5110
 6313TIP3    H240355   3.563   3.769   3.518  0.5992  0.2654 -0.9801
 6314TIP3   OH240356   3.250   2.015   1.987 -0.5358 -0.6423  0.4764
 6314TIP3    H140357   3.337   1.976   1.981 -0.5323 -0.4214 -1.0269
 6314TIP3    H240358   3.254   2.092   1.931 -1.7830 -0.7804  0.1783
 6315TIP3   OH240359   5.619   1.039   5.012  0.5564  0.3487  0.2453
 6315TIP3    H140360   5.547   1.102   5.012  0.1542 -0.1093  1.1078
 6315TIP3    H240361   5.604   0.987   4.933  0.8426  1.2572 -0.4275
 6316TIP3   OH240362   0.319   5.265   5.448  0.6371 -0.4682 -0.2296
 6316TIP3    H140363   0.396   5.283   5.395 -0.1094  0.2386 -1.0844
 6316TIP3    H240364   0.313   5.338   5.509  0.5710 -0.4500 -0.2574
 6317TIP3   OH240365   2.256   4.648   3.577  0.4866  0.4131  0.1910
 6317TIP3    H140366   2.233   4.690   3.494  0.5962  1.8971  0.8956
 6317TIP3    H240367   2.307   4.713   3.624  1.5164 -0.8787  0.9109
 6318TIP3   OH240368   4.149   6.305  15.924  0.3073 -0.5144  0.5307
 6318TIP3    H140369   4.141   6.254  15.844 -0.0832 -2.0267  1.5119
 6318TIP3    H240370   4.239   6.292  15.953  0.3748 -0.1683  0.4871
 6319TIP3   OH240371   2.359   0.282   5.960  0.0585  0.3639  0.4819
 6319TIP3    H140372   2.287   0.287   5.897  1.3133  2.3135 -0.8369
 6319TIP3    H240373   2.315   0.278   6.045 -1.6294  0.1466 -0.3788
 6320TIP3   OH240374   0.655   0.784   6.543 -0.0627 -0.0286  0.2215
 6320TIP3    H140375   0.687   0.833   6.619  1.4253  0.6780 -0.8354
 6320TIP3    H240376   0.625   0.851   6.482  1.4185 -0.4073 -0.9836
 6321TIP3   OH240377   5.789   1.382   4.428 -0.1674 -0.3675  0.8516
 6321TIP3    H140378   5.753   1.299   4.459  0.1193 -1.3364 -1.2986
 6321TIP3    H240379   5.878   1.384   4.464  0.5030 -1.9307 -0.6089
 6322TIP3   OH240380   1.904   1.087   0.095 -0.0670 -0.6485 -0.2439
 6322TIP3    H140381   1.990   1.054   0.124  0.2892  0.5273  0.0984
 6322TIP3    H240382   1.897   1.173   0.138 -0.8577 -0.1885 -1.2920
 6323TIP3   OH240383   5.803   0.963  11.646  0.7453 -0.1459  0.0041
 6323TIP3    H140384   5.755   1.037  11.686  0.4755 -0.5404  0.4182
 6323TIP3    H240385   5.872   0.943  11.709  1.7411  0.7134 -0.8058
 6324TIP3   OH240386   6.586   4.459   1.070 -0.5839 -0.1313  0.2037
 6324TIP3    H140387   6.646   4.459   1.145 -0.3535  3.1663  0.0960
 6324TIP3    H240388   6.642   4.446   0.994 -0.4491 -0.5248  0.3686
 6325TIP3   OH240389   1.952   2.767   5.535 -0.6206 -0.3862 -0.0144
 6325TIP3    H140390   1.946   2.692   5.476 -0.6226  2.0654 -3.3184
 6325TIP3    H240391   2.046   2.777   5.552 -0.4320 -0.0152 -1.1850
 6326TIP3   OH240392   0.747   6.449  14.821  0.3910  0.1045  0.1709
 6326TIP3    H140393   0.809   6.521  14.824  1.7878 -0.9447 -2.2275
 6326TIP3    H240394   0.796   6.374  14.855 -0.5101 -0.0888  1.0607
 6327TIP3   OH240395   0.249   0.054   0.843 -0.1343  0.4088  0.4537
 6327TIP3    H140396   0.211   0.032   0.928 -1.4605 -0.5410 -0.3651
 6327TIP3    H240397   0.180   0.034   0.780  0.5049  1.9883 -0.7838
 6328TIP3   OH240398   1.171   5.941  14.530  0.3565  0.2622 -0.4826
 6328TIP3    H140399   1.136   6.026  14.504  1.2512  0.9518  0.4849
 6328TIP3    H240400   1.245   5.962  14.586 -0.2449 -1.1503  0.9002
 6329TIP3   OH240401   3.077   0.743   4.654  0.5682 -0.5311  0.0684
 6329TIP3    H140402   3.086   0.648   4.662  1.6559 -0.3910  0.5391
 6329TIP3    H240403   3.139   0.779   4.717  0.4742  0.5013 -0.4136
 6330TIP3   OH240404   2.228   0.928   1.207  0.0111 -0.6186  0.2547
 6330TIP3    H140405   2.300   0.992   1.208  0.3295 -0.9682  2.3826
 6330TIP3    H240406   2.269   0.845   1.232 -0.7649 -1.2628 -0.5660
 6331TIP3   OH240407   6.783   5.888  12.777  0.1493 -0.2678  1.0225
 6331TIP3    H140408   6.834   5.839  12.842 -0.1207  0.9065  2.1589
 6331TIP3    H240409   6.716   5.827  12.748  1.2360 -1.3271  0.6588
 6332TIP3   OH240410   3.186   3.867   1.377  0.1102  0.2109 -0.0358
 6332TIP3    H140411   3.189   3.962   1.387 -0.6294  0.3031 -0.6334
 6332TIP3    H240412   3.225   3.833   1.457  1.2010  1.0308 -0.2015
 6333TIP3   OH240413   5.019   1.313   5.426 -0.3982 -0.0488  0.3982
 6333TIP3    H140414   5.044   1.242   5.485 -1.5036 -0.2751  0.6198
 6333TIP3    H240415   5.078   1.305   5.351  2.0860  1.2073  2.1338
 6334TIP3   OH240416   5.545   4.577   1.746  0.6179  0.3437 -0.2909
 6334TIP3    H140417   5.481   4.507   1.737 -1.6281  2.3762 -0.6866
 6334TIP3    H240418   5.550   4.592   1.840 -0.0444  0.6504 -0.2988
 6335TIP3   OH240419   5.554   5.622  14.070  0.5203  0.2004  0.4237
 6335TIP3    H140420   5.515   5.597  13.986  0.9559  2.9516 -0.6372
 6335TIP3    H240421   5.644   5.588  14.065  0.6504  0.6510 -0.3619
 6336TIP3   OH240422   5.728   3.036   2.787  0.0865  0.2175 -0.0411
 6336TIP3    H140423   5.770   3.051   2.871 -1.2859  0.0512  0.6961
 6336TIP3    H240424   5.727   3.122   2.745 -2.2446  1.0276  1.5645
 6337TIP3   OH240425   1.727   3.917   3.499  0.0063 -0.2133  0.3388
 6337TIP3    H140426   1.641   3.946   3.528 -1.1383 -3.2328  0.1082
 6337TIP3    H240427   1.755   3.982   3.435 -1.2008  1.8678  1.8959
 6338TIP3   OH240428   2.538   2.394   0.850  0.1681  0.0826  0.6065
 6338TIP3    H140429   2.512   2.447   0.925  2.3253 -1.0283  2.1870
 6338TIP3    H240430   2.589   2.454   0.795 -0.1836  0.5177  0.7528
 6339TIP3   OH240431   1.482   3.493  16.700 -0.4091 -0.4625  0.2341
 6339TIP3    H140432   1.488   3.572  16.646 -2.4717 -0.5641 -0.1588
 6339TIP3    H240433   1.569   3.486  16.740  0.1783  1.3387 -0.6467
 6340TIP3   OH240434   0.276   0.978  11.705  0.4972  0.1679  0.2787
 6340TIP3    H140435   0.187   0.970  11.670  0.9559 -0.2872 -0.8126
 6340TIP3    H240436   0.304   1.066  11.679  0.2890  0.3951  0.8154
 6341TIP3   OH240437   5.988   3.729   5.309  0.3661 -0.1767 -0.4983
 6341TIP3    H140438   5.981   3.723   5.213 -0.6661  1.7176 -0.5603
 6341TIP3    H240439   5.912   3.780   5.336 -0.2762 -2.1548  1.5355
 6342TIP3   OH240440   5.782   1.871   5.437  0.8446  0.3294 -0.6206
 6342TIP3    H140441   5.776   1.826   5.521  1.6221 -1.2010 -1.3680
 6342TIP3    H240442   5.832   1.812   5.381 -0.3354  0.9639 -2.3998
 6343TIP3   OH240443   1.558   5.226   3.508 -0.5027 -0.8103  0.5441
 6343TIP3    H140444   1.515   5.306   3.475 -1.8515 -1.2719  1.1522
 6343TIP3    H240445   1.541   5.227   3.602 -1.0798 -2.1407  0.4654
 6344TIP3   OH240446   2.801   4.378  12.348  0.1978 -0.1166  0.8129
 6344TIP3    H140447   2.824   4.297  12.394  0.6453 -0.1118  0.5958
 6344TIP3    H240448   2.744   4.350  12.276  0.0569 -0.1968  0.9543
 6345TIP3   OH240449   2.304   4.378  14.555  0.6664  0.0989  0.2071
 6345TIP3    H140450   2.254   4.370  14.474  0.1023 -1.2736  0.6784
 6345TIP3    H240451   2.249   4.433  14.611  0.2860 -0.3185  0.2491
 6346TIP3   OH240452   0.889   2.647   2.976  0.4286 -0.1586 -0.2725
 6346TIP3    H140453   0.920   2.574   3.031 -3.1865 -0.9696  0.8340
 6346TIP3    H240454   0.850   2.605   2.900  0.5382  0.7251 -0.8183
 6347TIP3   OH240455   1.356   5.694  15.761 -0.5234 -0.6969  0.4394
 6347TIP3    H140456   1.294   5.646  15.816  0.6051  1.6745  3.9187
 6347TIP3    H240457   1.301   5.751  15.707 -1.5155 -0.6142  1.5227
 6348TIP3   OH240458   0.656   4.576  13.557 -0.3778 -0.1765  0.9450
 6348TIP3    H140459   0.573   4.598  13.513 -1.0790 -0.7618  1.9481
 6348TIP3    H240460   0.704   4.658  13.561 -1.1129  0.2637  0.7696
 6349TIP3   OH240461   5.481   2.843   5.006  0.6448  0.4868  0.0582
 6349TIP3    H140462   5.448   2.930   5.030 -2.0433 -0.3091 -0.6189
 6349TIP3    H240463   5.443   2.784   5.072  0.5227 -0.5046 -0.8914
 6350TIP3   OH240464   3.273   4.750  13.238 -0.0071 -0.0255  0.0293
 6350TIP3    H140465   3.241   4.674  13.189 -0.1680  0.3745 -0.4959
 6350TIP3    H240466   3.355   4.774  13.195  0.4947 -0.4540  0.7628
 6351TIP3   OH240467   2.289   6.450   2.586 -0.2296 -0.4170 -1.4105
 6351TIP3    H140468   2.369   6.398   2.590  0.7362  1.1720  0.0575
 6351TIP3    H240469   2.229   6.407   2.647 -0.0671 -0.8827 -1.5787
 6352TIP3   OH240470   5.966   3.559  11.478  0.4175 -0.1769 -0.0961
 6352TIP3    H140471   5.992   3.587  11.390  0.6687 -0.1113 -0.0017
 6352TIP3    H240472   6.028   3.603  11.537 -0.3732  0.5722  0.1803
 6353TIP3   OH240473   2.771   0.083  12.742  0.8316  0.3092  0.3560
 6353TIP3    H140474   2.710   0.094  12.669  3.0637 -0.9387 -1.7701
 6353TIP3    H240475   2.730   0.016  12.797  0.1803 -0.3741 -0.9395
 6354TIP3   OH240476   4.240   5.211   5.995  0.7421 -0.1765  0.0084
 6354TIP3    H140477   4.151   5.208   6.030 -0.8515  3.2341 -3.3079
 6354TIP3    H240478   4.249   5.130   5.944 -0.8788 -0.0787 -0.4580
 6355TIP3   OH240479   0.395   3.165   3.360  0.1648 -0.4089 -0.2448
 6355TIP3    H140480   0.332   3.198   3.296  1.4608 -0.5139 -1.6072
 6355TIP3    H240481   0.434   3.088   3.318  1.7967  0.1546  0.2057
 6356TIP3   OH240482   3.354   5.289  12.477  0.5213 -0.5599 -0.3682
 6356TIP3    H140483   3.435   5.282  12.427  0.0308 -0.5428 -1.1737
 6356TIP3    H240484   3.377   5.345  12.552  0.8579  0.7529 -1.4372
 6357TIP3   OH240485   0.349   1.414   3.090 -0.1832  0.0884 -0.7923
 6357TIP3    H140486   0.336   1.411   3.185  1.8085  0.4906 -0.4978
 6357TIP3    H240487   0.314   1.330   3.059 -0.2522 -0.3242  0.3606
 6358TIP3   OH240488   0.171   3.344   2.158 -0.1063  0.0767 -0.3282
 6358TIP3    H140489   0.240   3.365   2.221  2.4971 -1.0264 -2.6780
 6358TIP3    H240490   0.113   3.284   2.205  0.2098  1.4310  1.8693
 6359TIP3   OH240491   3.973   2.399  16.882  0.3842  0.3172 -0.1925
 6359TIP3    H140492   4.045   2.357  16.836 -0.3533 -0.6611 -0.4514
 6359TIP3    H240493   4.012   2.431  16.963  1.1410 -0.0796 -0.4002
 6360TIP3   OH240494   4.909   6.499  14.780  0.0989  0.0263 -0.5410
 6360TIP3    H140495   4.941   6.537  14.698  1.1944 -1.0651 -0.6340
 6360TIP3    H240496   4.908   6.405  14.764 -2.2756 -0.0332 -0.1961
 6361TIP3   OH240497   1.428   3.576  15.793  0.3110 -0.4633 -0.5709
 6361TIP3    H140498   1.437   3.638  15.720  0.7405 -0.9439 -0.9239
 6361TIP3    H240499   1.466   3.495  15.761 -1.6895 -1.3875 -0.6773
 6362TIP3   OH240500   5.790   2.293  15.511  0.0549  0.1313 -0.1657
 6362TIP3    H140501   5.746   2.303  15.427  1.0675  0.0740 -0.7091
 6362TIP3    H240502   5.758   2.209  15.545 -2.1118  1.2286  0.5847
 6363TIP3   OH240503   6.694   2.110   6.302 -0.3012 -0.7408 -0.1831
 6363TIP3    H140504   6.624   2.159   6.345  0.0207 -0.9577  0.6010
 6363TIP3    H240505   6.750   2.177   6.264  0.2566 -0.4796  1.0713
 6364TIP3   OH240506   3.925   0.325   1.655 -0.2041  0.2863 -0.6378
 6364TIP3    H140507   3.915   0.395   1.719 -2.2678 -0.0045 -0.6026
 6364TIP3    H240508   3.988   0.359   1.591 -0.0801  1.5838  0.1743
 6365TIP3   OH240509   0.992   1.207  13.816 -0.4476  0.3784 -0.3283
 6365TIP3    H140510   1.052   1.195  13.743 -0.4920 -1.6715 -0.0759
 6365TIP3    H240511   1.044   1.249  13.884  1.1840 -2.7055  0.4259
 6366TIP3   OH240512   1.225   0.809   4.608 -0.0832  0.2266 -0.0744
 6366TIP3    H140513   1.263   0.760   4.535 -3.3565 -1.6505 -0.6342
 6366TIP3    H240514   1.252   0.761   4.686 -0.8557 -0.8271 -0.4378
 6367TIP3   OH240515   4.257   4.653   2.149  0.2702 -0.1073 -0.0475
 6367TIP3    H140516   4.210   4.647   2.066 -1.0986 -1.0328  0.7749
 6367TIP3    H240517   4.236   4.739   2.183 -0.7054 -0.4542  0.2375
 6368TIP3   OH240518   3.435   0.484   0.179  0.2365  0.2547 -0.0180
 6368TIP3    H140519   3.403   0.410   0.232  0.8915 -0.0309 -0.0024
 6368TIP3    H240520   3.389   0.560   0.213  0.9786  0.1472  1.3014
 6369TIP3   OH240521   4.388   3.895   3.153 -0.2080  0.3073  0.0795
 6369TIP3    H140522   4.392   3.866   3.244  1.0008 -0.9942 -0.3769
 6369TIP3    H240523   4.372   3.989   3.159 -2.0193 -0.0570  1.5968
 6370TIP3   OH240524   0.129   0.992  13.564  0.0496  0.1534  0.0581
 6370TIP3    H140525   0.195   1.057  13.540 -0.8899  1.1220  0.0945
 6370TIP3    H240526   0.065   0.994  13.493  0.1686 -0.9645 -0.1015
 6371TIP3   OH240527   2.420   4.281   3.321 -0.1358 -0.1513 -0.2438
 6371TIP3    H140528   2.497   4.273   3.265 -0.1273 -0.3561 -0.2021
 6371TIP3    H240529   2.416   4.199   3.370 -0.9190 -0.5391 -0.9417
 6372TIP3   OH240530   1.948   1.052   2.935  0.2744 -0.0746 -0.4765
 6372TIP3    H140531   1.880   1.118   2.945 -1.7308 -1.9424 -1.4805
 6372TIP3    H240532   1.967   1.025   3.025 -0.7913 -0.0163 -0.2232
 6373TIP3   OH240533   3.097   3.869  12.578  0.0753 -0.3084 -0.0300
 6373TIP3    H140534   3.109   3.834  12.490  1.5063  2.1256 -0.8630
 6373TIP3    H240535   3.183   3.861  12.619 -0.7891 -2.2393  1.5021
 6374TIP3   OH240536   3.723   0.584   0.860  0.2458 -0.0434  0.6700
 6374TIP3    H140537   3.715   0.540   0.944  0.9226 -0.7902  0.3502
 6374TIP3    H240538   3.665   0.660   0.867 -1.0888 -1.0789  1.1561
 6375TIP3   OH240539   3.977   5.131  15.396 -0.4870  0.0959  0.0079
 6375TIP3    H140540   3.938   5.210  15.433  1.4237  0.7806  0.6152
 6375TIP3    H240541   3.975   5.068  15.468 -1.1005 -0.0829 -0.1677
 6376TIP3   OH240542   5.446   5.663  10.730  0.4184  0.1340 -0.1710
 6376TIP3    H140543   5.444   5.706  10.644 -0.8968  1.0349  0.3043
 6376TIP3    H240544   5.537   5.635  10.740  0.5642 -0.1385 -1.9363
 6377TIP3   OH240545   4.283   2.673   6.083  0.7070 -0.1068  0.4836
 6377TIP3    H140546   4.378   2.678   6.076  0.8387  0.0560  2.2219
 6377TIP3    H240547   4.264   2.579   6.084  0.8639 -0.1402  0.2617
 6378TIP3   OH240548   1.234   4.563  15.315  0.0670  0.2744  0.4187
 6378TIP3    H140549   1.244   4.468  15.313 -0.3361  0.2356  0.1926
 6378TIP3    H240550   1.140   4.578  15.305  0.0987  0.6869  0.7082
 6379TIP3   OH240551   3.846   2.821  16.964 -0.1401 -0.3053  0.7524
 6379TIP3    H140552   3.929   2.799  16.921 -0.7612 -3.8677  1.1956
 6379TIP3    H240553   3.872   2.849  17.052  0.7473  1.2782  0.0040
 6380TIP3   OH240554   4.207   0.522  13.879  0.2510  0.0577  0.1523
 6380TIP3    H140555   4.142   0.545  13.813  0.6238 -0.4761 -0.4052
 6380TIP3    H240556   4.287   0.506  13.829  1.0004  1.4101  0.8948
 6381TIP3   OH240557   2.174   2.342  14.384 -0.2649  0.0801  0.6296
 6381TIP3    H140558   2.115   2.396  14.436 -3.1243 -1.5929 -0.7322
 6381TIP3    H240559   2.158   2.370  14.294  0.0463 -1.3408  0.1303
 6382TIP3   OH240560   1.735   2.612   5.262 -0.8294  0.5630  0.0340
 6382TIP3    H140561   1.812   2.595   5.316 -0.3625 -2.9426 -1.6087
 6382TIP3    H240562   1.663   2.623   5.325  0.2073 -0.6788  1.4584
 6383TIP3   OH240563   1.001   1.060  13.038  0.0954 -0.1070  0.6226
 6383TIP3    H140564   0.963   1.144  13.063  1.6279  0.3982  1.2449
 6383TIP3    H240565   0.979   1.050  12.945 -0.3065  0.8498  0.6161
 6384TIP3   OH240566   1.264   6.231   2.594  0.5187  0.2461 -0.6120
 6384TIP3    H140567   1.286   6.324   2.590 -1.0734  0.6477 -0.5521
 6384TIP3    H240568   1.250   6.205   2.503 -0.3261  0.3961 -0.5270
 6385TIP3   OH240569   4.193   6.657  14.196 -0.2166 -0.0398  0.5330
 6385TIP3    H140570   4.284   6.679  14.179  0.0384  0.6060  2.5628
 6385TIP3    H240571   4.160   6.623  14.113  2.1772 -1.3892  0.0943
 6386TIP3   OH240572   2.843   4.451  13.269  0.2061  0.4100  0.2641
 6386TIP3    H140573   2.888   4.379  13.315  1.5775  0.9045 -0.2906
 6386TIP3    H240574   2.760   4.412  13.239  0.0404 -0.3787  1.6976
 6387TIP3   OH240575   2.656   6.662  12.875  0.1641 -0.6817  0.2135
 6387TIP3    H140576   2.690   6.591  12.930 -2.5740 -0.3636  2.4206
 6387TIP3    H240577   2.562   6.661  12.891 -0.2237  1.8424 -1.7016
 6388TIP3   OH240578   3.800   2.145  15.074 -0.0446 -0.1421 -0.1509
 6388TIP3    H140579   3.864   2.210  15.102  1.3771 -0.8424 -1.6828
 6388TIP3    H240580   3.828   2.120  14.986 -1.5718 -1.5614 -0.2666
 6389TIP3   OH240581   1.761   5.581  15.331  0.3902 -0.1988 -0.6048
 6389TIP3    H140582   1.666   5.588  15.334  0.4705  0.1036  1.7683
 6389TIP3    H240583   1.784   5.526  15.406  2.2231  1.4610  0.1092
 6390TIP3   OH240584   4.016   3.194   3.446  0.1494  0.0955  0.1073
 6390TIP3    H140585   3.930   3.201   3.486  0.0481  0.0270 -0.1000
 6390TIP3    H240586   4.044   3.105   3.464  1.2759  0.8738  2.4122
 6391TIP3   OH240587   2.438   1.766  14.857  0.1736 -0.2274  0.2858
 6391TIP3    H140588   2.397   1.834  14.911 -0.3960  0.3810 -0.8898
 6391TIP3    H240589   2.525   1.755  14.894 -0.8526 -1.1686  2.5192
 6392TIP3   OH240590   0.445   0.704  13.967 -0.3476 -0.2754  0.0538
 6392TIP3    H140591   0.411   0.655  13.892  1.0531 -2.9101  1.0509
 6392TIP3    H240592   0.446   0.640  14.039  1.4995  1.2259  1.4287
 6393TIP3   OH240593   5.621   5.156  13.993 -0.2420 -0.0155 -0.3428
 6393TIP3    H140594   5.683   5.229  13.986 -2.6986  2.3164  1.0601
 6393TIP3    H240595   5.609   5.125  13.903 -0.6891  2.6463 -1.2278
 6394TIP3   OH240596   4.204   1.690   5.406 -0.2123  0.5791  0.3174
 6394TIP3    H140597   4.201   1.781   5.437 -1.6198  0.4704  0.5310
 6394TIP3    H240598   4.137   1.645   5.458  0.2321 -0.5065 -0.0436
 6395TIP3   OH240599   2.796   3.425  13.954 -0.4874 -0.3533 -0.3783
 6395TIP3    H140600   2.882   3.419  13.913 -0.5263 -0.8983 -0.3840
 6395TIP3    H240601   2.738   3.377  13.894 -1.0082  0.9675 -0.9609
 6396TIP3   OH240602   2.444   5.321  13.659  0.6130 -0.5450  0.4273
 6396TIP3    H140603   2.475   5.351  13.574 -0.2148 -1.6082 -0.2651
 6396TIP3    H240604   2.516   5.268  13.694  1.7379  1.4761  1.2825
 6397TIP3   OH240605   3.657   0.725  15.809  0.2413  0.1060 -0.4302
 6397TIP3    H140606   3.601   0.798  15.784  0.0276 -0.0131 -0.2982
 6397TIP3    H240607   3.633   0.705  15.899  0.8797  0.4094 -0.1882
 6398TIP3   OH240608   6.213   0.597  16.333  0.4101  0.8424 -0.0091
 6398TIP3    H140609   6.160   0.559  16.403 -1.5190  2.5789 -0.4595
 6398TIP3    H240610   6.168   0.570  16.252  1.5987  0.3367 -0.5095
 6399TIP3   OH240611   4.781   0.995  14.627  0.3594  0.1474 -0.2392
 6399TIP3    H140612   4.753   1.086  14.619  0.0963  0.0009 -1.0680
 6399TIP3    H240613   4.704   0.944  14.603  0.3394 -0.3024  0.7650
 6400TIP3   OH240614   5.089   5.004   2.584  0.5358  0.4325 -0.8297
 6400TIP3    H140615   5.011   5.047   2.620  0.6278 -1.1210  1.2997
 6400TIP3    H240616   5.156   5.072   2.584  0.2784  0.7070  1.1220
 6401TIP3   OH240617   3.849   1.086   0.762 -0.3455 -0.1199 -0.5965
 6401TIP3    H140618   3.878   1.177   0.759  3.9346 -1.3758 -0.6129
 6401TIP3    H240619   3.845   1.066   0.856  0.7726 -0.4899 -0.6202
 6402TIP3   OH240620   0.628   2.299  11.291 -0.7041  0.4464 -1.0343
 6402TIP3    H140621   0.604   2.299  11.198 -1.7906  3.2530 -0.7861
 6402TIP3    H240622   0.625   2.391  11.317 -0.0526 -0.2610  1.7152
 6403TIP3   OH240623   5.771   5.889   2.984 -0.0511 -0.0758  0.5333
 6403TIP3    H140624   5.845   5.831   2.968  1.5606  2.3503 -1.2198
 6403TIP3    H240625   5.743   5.917   2.897 -1.8058  0.5313  1.2641
 6404TIP3   OH240626   1.114   1.763   1.812  0.1404  0.4145  0.4609
 6404TIP3    H140627   1.190   1.721   1.853  1.6678 -0.1152 -2.7531
 6404TIP3    H240628   1.041   1.702   1.829  1.1004 -0.6392  0.8700
 6405TIP3   OH240629   2.462   0.065  16.532 -0.3959  0.6099 -0.1670
 6405TIP3    H140630   2.537   0.116  16.563  1.8992 -2.5018 -0.3052
 6405TIP3    H240631   2.471   0.065  16.437 -0.1828 -0.2586 -0.1552
 6406TIP3   OH240632   4.097   2.900   5.858 -0.0316  0.1761 -0.7536
 6406TIP3    H140633   4.098   2.809   5.888  0.3262  0.2828 -0.4429
 6406TIP3    H240634   4.167   2.905   5.793  1.4807  0.7843  0.8766
 6407TIP3   OH240635   4.973   6.208   5.257  0.1939 -0.0895 -0.1390
 6407TIP3    H140636   5.034   6.161   5.199 -1.8488 -1.3969 -1.3139
 6407TIP3    H240637   4.958   6.292   5.213  0.6982 -0.0039 -0.1468
 6408TIP3   OH240638   2.405   5.925   3.064 -0.0986  0.1789  0.4860
 6408TIP3    H140639   2.401   5.842   3.112 -0.3172 -0.7748 -1.1386
 6408TIP3    H240640   2.341   5.916   2.993 -0.0056  1.6716  0.1828
 6409TIP3   OH240641   1.840   0.865   5.519  0.2176 -0.2957  0.0133
 6409TIP3    H140642   1.798   0.781   5.537  0.6794 -0.0940  2.1634
 6409TIP3    H240643   1.768   0.925   5.503 -0.1295 -0.9567 -1.0024
 6410TIP3   OH240644   6.333   3.204  11.708 -0.1298 -0.1511 -0.2674
 6410TIP3    H140645   6.389   3.142  11.661  0.0707 -1.2581  1.4041
 6410TIP3    H240646   6.342   3.285  11.658  0.7175 -1.0727 -1.6752
 6411TIP3   OH240647   4.680   1.084  13.537  0.0649  0.6938  0.2780
 6411TIP3    H140648   4.655   1.094  13.445  1.2440  0.3233 -0.1002
 6411TIP3    H240649   4.765   1.129  13.543  0.7798 -0.6841  0.7914
 6412TIP3   OH240650   2.670   3.786  14.334  0.3228 -0.1414 -0.1377
 6412TIP3    H140651   2.733   3.740  14.278  0.6130 -0.1568  0.1969
 6412TIP3    H240652   2.709   3.782  14.421 -0.0297  0.0567  0.0297
 6413TIP3   OH240653   2.894   2.059  16.852 -0.1405 -0.2302  0.0005
 6413TIP3    H140654   2.862   2.146  16.875  0.6974 -0.3836  1.8293
 6413TIP3    H240655   2.868   2.004  16.926  1.0822 -1.1234 -0.2240
 6414TIP3   OH240656   4.669   1.829  16.834  0.3147 -0.1207 -0.7736
 6414TIP3    H140657   4.583   1.821  16.874  0.3545 -1.6973 -0.9402
 6414TIP3    H240658   4.652   1.836  16.740  0.3525 -0.1050 -0.7795
 6415TIP3   OH240659   4.823   2.812  13.953 -0.8147 -0.7210  0.2080
 6415TIP3    H140660   4.889   2.863  13.908 -1.0522  0.3575  1.0562
 6415TIP3    H240661   4.741   2.858  13.937 -0.7738  0.2338  2.5054
 6416TIP3   OH240662   5.486   5.795   2.501  0.4910 -0.4410  0.5741
 6416TIP3    H140663   5.456   5.728   2.563 -1.9226 -0.7967 -0.9092
 6416TIP3    H240664   5.497   5.874   2.555 -0.9300 -0.9145  1.6094
 6417TIP3   OH240665   2.726   1.436  15.672 -0.0138 -0.0429  0.0680
 6417TIP3    H140666   2.799   1.430  15.733 -0.3559  0.7814  0.5640
 6417TIP3    H240667   2.731   1.526  15.638 -0.1319 -0.3318 -0.7321
 6418TIP3   OH240668   6.383   4.496  14.990 -0.8680 -0.5413 -0.2413
 6418TIP3    H140669   6.323   4.424  15.011 -1.0600 -0.5964 -0.9495
 6418TIP3    H240670   6.330   4.575  14.999 -1.1045 -0.6024 -1.0477
 6419TIP3   OH240671   2.781   4.812  12.620  0.0876 -0.5901  0.2150
 6419TIP3    H140672   2.871   4.782  12.608 -0.5907 -2.6114 -0.0032
 6419TIP3    H240673   2.740   4.799  12.534 -0.0211  1.8145 -0.1422
 6420TIP3   OH240674   1.219   3.429  14.713 -0.9050  0.2845  0.5069
 6420TIP3    H140675   1.159   3.494  14.751 -0.2614  1.4087 -0.3505
 6420TIP3    H240676   1.289   3.482  14.674  1.0544 -1.0214  2.1498
 6421TIP3   OH240677   2.999   0.819  15.509  0.3688 -0.1180  0.1840
 6421TIP3    H140678   3.001   0.780  15.421 -1.5625  0.4226 -0.1293
 6421TIP3    H240679   3.002   0.745  15.568 -1.0825 -0.6448 -0.3858
 6422TIP3   OH240680   1.354   2.693   4.802 -0.2455 -0.1952 -0.9822
 6422TIP3    H140681   1.297   2.714   4.728 -1.6933  0.8523  0.4043
 6422TIP3    H240682   1.380   2.779   4.836 -0.6726 -0.6677  0.5510
 6423TIP3   OH240683   1.206   3.773  11.688 -0.2115 -0.1364  0.2649
 6423TIP3    H140684   1.112   3.785  11.704 -0.2859 -1.0157  0.5316
 6423TIP3    H240685   1.211   3.690  11.640  0.3872  0.1768 -0.2189
 6424TIP3   OH240686   5.156   4.079  12.939 -0.1542  0.3031  0.2112
 6424TIP3    H140687   5.096   4.068  13.012  0.4014  2.4631  1.0251
 6424TIP3    H240688   5.117   4.028  12.868 -1.6363 -0.3398  1.4730
 6425TIP3   OH240689   1.482   4.808  13.177 -0.0970 -0.1161  0.0384
 6425TIP3    H140690   1.578   4.811  13.180 -0.1198  1.5335 -0.2291
 6425TIP3    H240691   1.455   4.862  13.252 -0.8045  0.1645 -0.4151
 6426TIP3   OH240692   2.837   3.769   4.917  0.3416 -0.1479 -0.8468
 6426TIP3    H140693   2.901   3.805   4.978  1.9134 -0.7353 -2.1250
 6426TIP3    H240694   2.755   3.814   4.939  0.9083 -0.1846  1.5396
 6427TIP3   OH240695   0.480   3.884  14.026  0.3431 -0.5351 -0.2931
 6427TIP3    H140696   0.489   3.963  13.973  0.3871 -1.4286 -1.6361
 6427TIP3    H240697   0.569   3.852  14.037  0.3027 -0.5309  0.0491
 6428TIP3   OH240698   1.048   2.103  14.422 -0.5551  0.2482  0.4228
 6428TIP3    H140699   1.092   2.152  14.492 -1.8524  0.8482  0.8437
 6428TIP3    H240700   1.028   2.169  14.355 -2.4230  0.3663  1.0504
 6429TIP3   OH240701   0.194   6.157   2.576  0.2549  0.1194 -0.3853
 6429TIP3    H140702   0.107   6.159   2.536 -0.8916 -0.5811  1.9976
 6429TIP3    H240703   0.242   6.090   2.527 -1.3122 -1.1344 -0.2386
 6430TIP3   OH240704   0.070   2.336  13.488  0.6087 -0.0748 -0.7574
 6430TIP3    H140705   0.162   2.337  13.462  0.7659  0.7137 -0.2060
 6430TIP3    H240706   0.036   2.253  13.456  0.6289  1.1162 -4.0128
 6431TIP3   OH240707   6.682   3.291  14.354 -0.2239  0.0868  0.0354
 6431TIP3    H140708   6.739   3.305  14.279  1.1477 -1.4438  0.7704
 6431TIP3    H240709   6.624   3.367  14.354  0.7130  0.8343 -1.6996
 6432TIP3   OH240710   6.092   3.122  11.234 -0.3689 -0.1571  0.2928
 6432TIP3    H140711   6.121   3.133  11.143  2.3034 -2.0050  0.8701
 6432TIP3    H240712   6.049   3.037  11.236  0.1251 -0.3978  0.8754
 6433TIP3   OH240713   0.547   2.307  15.910  0.0445  0.2936 -1.0446
 6433TIP3    H140714   0.581   2.262  15.987  1.1006  0.9050 -1.1413
 6433TIP3    H240715   0.453   2.285  15.909  0.4694 -1.6214 -0.9250
 6434TIP3   OH240716   2.644   3.019  16.804 -0.1477 -0.0012 -0.2137
 6434TIP3    H140717   2.613   3.027  16.895  0.0953  2.3413 -0.3207
 6434TIP3    H240718   2.600   3.090  16.758  2.8025  1.3044 -1.0889
 6435TIP3   OH240719   3.492   6.345  13.049  0.6110  0.4163 -0.1764
 6435TIP3    H140720   3.490   6.437  13.022  0.3796  0.0296 -1.5327
 6435TIP3    H240721   3.409   6.309  13.017  1.8015 -0.8597 -1.8934
 6436TIP3   OH240722   5.786   6.491  15.377 -0.1270  0.3458  0.2746
 6436TIP3    H140723   5.709   6.441  15.401  0.2015 -1.4538 -2.2201
 6436TIP3    H240724   5.857   6.427  15.376  1.0023  1.5791  0.5846
 6437TIP3   OH240725   3.806   6.053  14.848  0.2467  0.1278 -0.6413
 6437TIP3    H140726   3.861   6.128  14.867  1.3429 -0.7170 -0.4402
 6437TIP3    H240727   3.717   6.084  14.863  0.7138  1.2645 -0.1774
 6438TIP3   OH240728   3.700   5.327   1.013  0.0662 -0.8811 -1.2969
 6438TIP3    H140729   3.686   5.333   1.107  2.4156  0.1882 -0.9695
 6438TIP3    H240730   3.674   5.238   0.990 -0.9591 -0.9973  0.2613
 6439TIP3   OH240731   0.896   5.216  16.373  0.4554  0.2392  0.5354
 6439TIP3    H140732   0.925   5.182  16.458 -0.6127 -1.2311  0.3303
 6439TIP3    H240733   0.859   5.302  16.393 -1.0998 -0.6980  1.7960
 6440TIP3   OH240734   1.648   0.685   1.715  0.1645 -0.0137  0.6179
 6440TIP3    H140735   1.712   0.742   1.672 -0.5981  0.6880  0.4094
 6440TIP3    H240736   1.619   0.626   1.645  2.0011 -1.6384  1.1498
 6441TIP3   OH240737   3.916   5.631  11.220 -0.1325 -0.8784 -0.0215
 6441TIP3    H140738   3.881   5.616  11.133  0.0817  1.2902 -0.5166
 6441TIP3    H240739   4.011   5.627  11.209 -0.0665  0.7007 -0.1752
 6442TIP3   OH240740   2.159   2.059   2.046  0.7015  0.3905 -0.7703
 6442TIP3    H140741   2.152   1.969   2.079 -2.5626  1.3804  1.4569
 6442TIP3    H240742   2.087   2.067   1.983  1.1347  1.3626 -1.1474
 6443TIP3   OH240743   2.491   4.251  11.180  0.5706  0.7763 -0.1982
 6443TIP3    H140744   2.560   4.302  11.139  0.2902  1.1085 -0.2515
 6443TIP3    H240745   2.486   4.285  11.269  0.1686  1.0575 -0.3271
 6444TIP3   OH240746   2.519   2.829   5.013  0.2954 -0.2615 -0.4321
 6444TIP3    H140747   2.531   2.888   5.088 -0.0607 -1.2251  0.3969
 6444TIP3    H240748   2.596   2.772   5.016  1.4468  1.1309 -2.1616
 6445TIP3   OH240749   1.797   0.587   2.511  0.1632  0.7470 -0.1082
 6445TIP3    H140750   1.709   0.570   2.478  0.2573 -0.0315  0.0311
 6445TIP3    H240751   1.784   0.650   2.583 -0.6686 -1.9245  2.1814
 6446TIP3   OH240752   3.788   4.520   1.701 -0.6956 -1.0246  0.0311
 6446TIP3    H140753   3.864   4.544   1.754 -0.7390  0.8954 -0.7234
 6446TIP3    H240754   3.747   4.603   1.679 -2.3714 -1.9800 -0.5309
 6447TIP3   OH240755   5.405   0.270  16.397 -0.3497 -0.1056  0.1076
 6447TIP3    H140756   5.324   0.297  16.441  0.2823  1.1546  0.5254
 6447TIP3    H240757   5.474   0.305  16.452  0.4687  1.3293 -1.8076
 6448TIP3   OH240758   1.703   5.257   2.292  0.4171 -0.5367  0.4216
 6448TIP3    H140759   1.732   5.178   2.247 -1.8758 -1.0518 -0.2300
 6448TIP3    H240760   1.708   5.326   2.226 -0.7686 -0.8339  0.0060
 6449TIP3   OH240761   2.320   5.755  16.072  0.6208  0.7861 -0.0863
 6449TIP3    H140762   2.274   5.714  16.145  1.7034  1.4803  0.9984
 6449TIP3    H240763   2.251   5.800  16.023 -0.2323 -0.3864  0.0141
 6450TIP3   OH240764   1.393   4.380   2.583 -0.3762 -0.1506 -0.3332
 6450TIP3    H140765   1.405   4.318   2.512 -2.9511 -0.9461 -0.1561
 6450TIP3    H240766   1.441   4.342   2.657 -0.3726 -0.9786 -0.7570
 6451TIP3   OH240767   5.910   0.762   0.847  0.1683  0.4906  0.6023
 6451TIP3    H140768   5.985   0.745   0.904  1.7742  2.7546 -0.7341
 6451TIP3    H240769   5.846   0.805   0.904 -0.7632 -2.6934  2.0870
 6452TIP3   OH240770   0.773   2.381  16.171 -0.3998  0.3047  0.1923
 6452TIP3    H140771   0.766   2.446  16.241  1.9091  1.1673 -0.3030
 6452TIP3    H240772   0.849   2.410  16.120  0.6643 -2.7695 -0.0637
 6453TIP3   OH240773   4.500   4.274   1.178  0.1011  0.5597  0.2957
 6453TIP3    H140774   4.542   4.313   1.101 -0.2924  1.8079  0.7148
 6453TIP3    H240775   4.425   4.227   1.142 -0.5703  1.8367 -0.0066
 6454TIP3   OH240776   0.183   3.970   3.697  0.4538 -0.1118  0.7159
 6454TIP3    H140777   0.241   4.002   3.766  0.3006 -0.3918  0.9743
 6454TIP3    H240778   0.170   4.046   3.640  0.7532  0.0607  0.8766
 6455TIP3   OH240779   2.221   1.376   2.353  0.3110 -0.2805 -0.6207
 6455TIP3    H140780   2.279   1.437   2.399 -0.6129  1.4979 -1.7379
 6455TIP3    H240781   2.156   1.350   2.418  0.6587  0.0043 -0.1584
 6456TIP3   OH240782   1.569   0.398  16.931 -0.0527  0.0694 -0.2764
 6456TIP3    H140783   1.533   0.420  17.016  1.0381 -0.6781  0.3903
 6456TIP3    H240784   1.654   0.359  16.950 -0.3543 -1.3053 -1.6277
 6457TIP3   OH240785   5.083   3.112  13.485 -0.5986 -0.4777 -0.6358
 6457TIP3    H140786   4.992   3.101  13.515 -0.0385  1.7120  2.0933
 6457TIP3    H240787   5.130   3.039  13.526 -0.5222  0.3777  0.8361
 6458TIP3   OH240788   3.196   6.137  12.541  0.2016  0.0645  0.3967
 6458TIP3    H140789   3.210   6.080  12.465 -0.4001 -0.3941  0.6210
 6458TIP3    H240790   3.174   6.077  12.612 -1.5329  0.6454  0.3690
 6459TIP3   OH240791   2.453   2.519  12.794  0.0393 -0.9152 -0.2073
 6459TIP3    H140792   2.400   2.447  12.759 -0.5012 -0.1419 -1.0028
 6459TIP3    H240793   2.391   2.573  12.843  0.1426 -0.1873 -0.8610
 6460TIP3   OH240794   1.496   2.960  14.627  0.2645  0.0978  0.5204
 6460TIP3    H140795   1.541   2.883  14.662 -0.1812 -0.2633  0.3085
 6460TIP3    H240796   1.487   3.020  14.701  2.3322  0.7646  0.2630
 6461TIP3   OH240797   3.348   4.593   5.746 -0.3187  0.0245 -0.3907
 6461TIP3    H140798   3.336   4.559   5.835 -0.4596 -0.6268 -0.6522
 6461TIP3    H240799   3.432   4.558   5.718 -0.1310  0.4810 -0.4017
 6462TIP3   OH240800   0.188   2.182   2.746 -0.5683 -0.6121  0.0118
 6462TIP3    H140801   0.163   2.216   2.832 -1.2485 -0.2163 -0.3346
 6462TIP3    H240802   0.104   2.171   2.700 -0.2618 -1.5842 -0.3136
 6463TIP3   OH240803   6.773   1.173   1.683  0.4112 -0.5344  0.1397
 6463TIP3    H140804   6.730   1.173   1.597 -0.3941 -0.8015  0.5354
 6463TIP3    H240805   6.865   1.155   1.663 -0.2239 -3.5237 -0.4818
 6464TIP3   OH240806   5.374   2.297  15.363 -0.0283 -0.1674  0.1917
 6464TIP3    H140807   5.449   2.320  15.417 -0.5823  2.4883 -0.0800
 6464TIP3    H240808   5.412   2.261  15.283  0.8381 -2.1348  1.4544
 6465TIP3   OH240809   3.874   1.815  12.095 -0.3439 -0.2321 -0.8916
 6465TIP3    H140810   3.967   1.822  12.074  0.0930  2.9818  1.6591
 6465TIP3    H240811   3.832   1.881  12.040 -0.8443 -0.4430 -0.7628
 6466TIP3   OH240812   2.972   1.074  14.994 -0.5174 -0.0575 -0.0795
 6466TIP3    H140813   2.970   1.101  14.902 -0.0115  0.7573  0.1483
 6466TIP3    H240814   2.902   1.125  15.035  0.6683  1.1911  0.4228
 6467TIP3   OH240815   3.945   4.530   1.062  0.1975  0.3835 -0.2301
 6467TIP3    H140816   3.941   4.541   0.967  0.4861 -0.8338 -0.3870
 6467TIP3    H240817   3.912   4.442   1.077  0.5849  0.4060  0.7673
 6468TIP3   OH240818   3.047   2.431  11.336 -0.2514  0.3682 -0.1441
 6468TIP3    H140819   3.092   2.511  11.362  1.0426 -0.4408  0.1439
 6468TIP3    H240820   3.048   2.433  11.240  0.7409  0.1902 -0.1493
 6469TIP3   OH240821   3.899   0.306   5.051 -0.5387 -0.3293 -0.6291
 6469TIP3    H140822   3.976   0.250   5.042  0.9113  1.6903 -1.2499
 6469TIP3    H240823   3.895   0.327   5.144 -0.1908 -0.2557 -0.6303
 6470TIP3   OH240824   3.850   2.498   1.621 -0.6879 -0.4288 -0.1908
 6470TIP3    H140825   3.771   2.512   1.569 -1.6008 -1.5445  0.8737
 6470TIP3    H240826   3.842   2.558   1.695  0.1303  0.4464 -0.8073
 6471TIP3   OH240827   5.253   6.255   4.837 -0.1579  0.3854 -0.0739
 6471TIP3    H140828   5.166   6.278   4.870 -1.2876  1.5428 -3.6145
 6471TIP3    H240829   5.309   6.326   4.867 -1.1165  1.3203 -0.4487
 6472TIP3   OH240830   3.505   2.128  17.041  0.4221  0.0980  0.4172
 6472TIP3    H140831   3.537   2.090  17.123 -0.3394  0.6803  0.9899
 6472TIP3    H240832   3.461   2.209  17.067  0.7939  0.6509 -0.6478
 6473TIP3   OH240833   0.680   1.443   5.445 -1.3305  0.4629 -0.3916
 6473TIP3    H140834   0.685   1.538   5.451 -0.5176  0.5047 -1.5384
 6473TIP3    H240835   0.632   1.426   5.364  1.4112 -0.0779 -1.9924
 6474TIP3   OH240836   3.398   6.107   5.915  0.1163 -0.3089  0.1967
 6474TIP3    H140837   3.370   6.153   5.994  0.0182 -0.1912  0.0961
 6474TIP3    H240838   3.442   6.028   5.946 -2.3341 -1.6621  0.3484
 6475TIP3   OH240839   5.581   1.561   4.475 -0.1042  0.1999 -0.6716
 6475TIP3    H140840   5.646   1.502   4.437 -0.4095 -0.5466 -0.0546
 6475TIP3    H240841   5.519   1.578   4.404 -1.2068 -1.9523 -0.2798
 6476TIP3   OH240842   4.104   0.572   1.607  0.1444 -0.3571  0.4507
 6476TIP3    H140843   4.011   0.573   1.584 -0.0604  0.1972  1.2703
 6476TIP3    H240844   4.108   0.616   1.692  1.0700 -1.0110  0.7551
 6477TIP3   OH240845   5.331   6.368  12.049  0.0636 -0.3175  0.5201
 6477TIP3    H140846   5.341   6.274  12.065 -0.5325 -0.6539 -1.0474
 6477TIP3    H240847   5.405   6.408  12.095  1.3274 -1.6950 -0.2909
 6478TIP3   OH240848   1.854   2.276   2.219  0.2138 -0.0807  0.7766
 6478TIP3    H140849   1.864   2.184   2.196  0.1858 -0.4005  1.9894
 6478TIP3    H240850   1.938   2.316   2.196 -0.0486 -0.2465 -0.4768
 6479TIP3   OH240851   2.567   1.462   2.001  0.1209 -0.6671 -0.3511
 6479TIP3    H140852   2.536   1.498   2.084 -1.3317 -0.5142 -0.9352
 6479TIP3    H240853   2.622   1.388   2.026 -1.5195 -1.5579  0.7147
 6480TIP3   OH240854   4.538   3.440  14.919  0.5951  0.5984  0.4546
 6480TIP3    H140855   4.563   3.475  15.005  1.3403  1.1519  0.0171
 6480TIP3    H240856   4.620   3.432  14.872  0.1642  0.4432 -0.2719
 6481TIP3   OH240857   0.452   2.325   2.779 -0.3877  0.1267  0.1628
 6481TIP3    H140858   0.366   2.295   2.749 -0.3322  0.0547  0.0800
 6481TIP3    H240859   0.480   2.388   2.713  0.6154 -1.4618 -0.9685
 6482TIP3   OH240860   0.919   0.661  16.296  0.5766 -0.4235 -0.3677
 6482TIP3    H140861   0.997   0.709  16.324 -0.8215  2.9879 -2.0592
 6482TIP3    H240862   0.946   0.616  16.216  0.4358  2.1308 -1.9211
 6483TIP3   OH240863   4.071   4.007   2.177 -0.4215 -0.3469  0.2211
 6483TIP3    H140864   4.086   3.993   2.271  1.2937  2.9018  0.4970
 6483TIP3    H240865   4.110   3.930   2.135  0.1091 -1.1338  2.0758
 6484TIP3   OH240866   4.187   1.323  15.086  0.4738  0.6492  0.3754
 6484TIP3    H140867   4.238   1.321  15.167 -0.7099  1.9063  1.1677
 6484TIP3    H240868   4.136   1.242  15.087  0.2936  0.7747  0.9837
 6485TIP3   OH240869   2.419   2.925  11.136 -0.3338  0.0149 -0.0831
 6485TIP3    H140870   2.496   2.931  11.192 -0.2548  1.3497 -0.2958
 6485TIP3    H240871   2.437   2.987  11.065 -0.9106 -0.8427 -0.9837
 6486TIP3   OH240872   2.364   2.351   2.492 -0.2347 -0.1335 -0.4639
 6486TIP3    H140873   2.275   2.346   2.527  0.3640 -0.4942  1.0512
 6486TIP3    H240874   2.420   2.327   2.566  1.1316  0.2546 -1.3565
 6487TIP3   OH240875   2.873   5.346  11.952 -0.1739 -0.1334  0.2157
 6487TIP3    H140876   2.789   5.369  11.993  0.0230  1.0836 -0.0347
 6487TIP3    H240877   2.852   5.278  11.889 -1.3207  1.5716 -1.2930
 6488TIP3   OH240878   1.258   0.344  16.341  0.3057 -0.1400 -0.4591
 6488TIP3    H140879   1.261   0.440  16.336  2.7865 -0.1081  0.7834
 6488TIP3    H240880   1.169   0.325  16.369  0.0530  1.8807  0.2112
 6489TIP3   OH240881   6.483   4.660   3.668 -0.1010 -0.4298 -0.3645
 6489TIP3    H140882   6.569   4.618   3.673 -0.7137 -1.6580  0.3464
 6489TIP3    H240883   6.427   4.593   3.629 -0.4271  0.8824 -2.1788
 6490TIP3   OH240884   1.863   0.257   5.835 -0.0598  0.1726 -0.6915
 6490TIP3    H140885   1.854   0.349   5.810  0.3788 -0.1568 -2.1292
 6490TIP3    H240886   1.887   0.213   5.753  0.8237 -1.0464  0.2100
 6491TIP3   OH240887   5.789   0.424  16.022 -0.6728  0.7408 -0.9152
 6491TIP3    H140888   5.773   0.331  16.037 -0.1491  1.0980  2.1667
 6491TIP3    H240889   5.846   0.427  15.945  2.0209 -1.7148  0.8645
 6492TIP3   OH240890   1.117   6.495  12.738  0.0491  0.1180  0.3738
 6492TIP3    H140891   1.183   6.527  12.800  0.2934 -0.5065  0.4430
 6492TIP3    H240892   1.052   6.451  12.793 -0.2498  0.4327  0.2740
 6493TIP3   OH240893   0.893   2.412   1.121 -0.0111 -0.5310  0.1093
 6493TIP3    H140894   0.826   2.361   1.074 -0.9084  0.3110  0.4659
 6493TIP3    H240895   0.963   2.424   1.056 -0.3767 -1.0729 -0.3943
 6494TIP3   OH240896   4.995   3.561  12.421 -0.0057 -0.3321  0.1598
 6494TIP3    H140897   5.077   3.529  12.384 -0.4688 -0.7391 -0.5409
 6494TIP3    H240898   4.946   3.482  12.443 -0.6748 -0.0995 -0.4748
 6495TIP3   OH240899   1.133   3.852   3.169 -0.2605 -0.1448 -0.1377
 6495TIP3    H140900   1.130   3.782   3.234 -1.9540 -1.5958 -1.7408
 6495TIP3    H240901   1.042   3.865   3.143  0.1952  1.6544 -0.9325
 6496TIP3   OH240902   3.097   1.766   6.490 -0.4720 -0.0812 -0.0995
 6496TIP3    H140903   3.087   1.799   6.579  0.6173  2.7376 -0.9804
 6496TIP3    H240904   3.017   1.717   6.473 -1.4754  0.8661  1.8105
 6497TIP3   OH240905   0.383   3.836   0.965  0.3264  0.8905  0.1355
 6497TIP3    H140906   0.366   3.821   1.058  0.5626  2.1927  0.3964
 6497TIP3    H240907   0.409   3.928   0.960 -1.1562  1.2391 -1.4245
 6498TIP3   OH240908   5.178   0.850  16.980 -0.1587 -0.1365 -0.1428
 6498TIP3    H140909   5.096   0.803  16.993  0.0907  0.0183  2.1842
 6498TIP3    H240910   5.232   0.790  16.928 -1.2748 -0.7721 -0.5820
 6499TIP3   OH240911   0.330   1.464   6.216 -0.3838  0.4215  0.6993
 6499TIP3    H140912   0.386   1.393   6.248  0.4325  1.1606  0.9108
 6499TIP3    H240913   0.346   1.537   6.275 -1.1537  0.8228  0.4258
 6500TIP3   OH240914   5.665   5.054   2.460 -0.3900 -0.0235  0.1710
 6500TIP3    H140915   5.729   5.000   2.506 -0.9484 -0.3367  0.5883
 6500TIP3    H240916   5.696   5.056   2.369 -0.1098 -0.6665  0.2489
 6501TIP3   OH240917   2.638   5.316   4.215 -0.5778  0.2491  0.6799
 6501TIP3    H140918   2.715   5.372   4.220 -0.6990  0.4799 -0.0849
 6501TIP3    H240919   2.645   5.273   4.130 -1.5837  0.7010  0.3627
 6502TIP3   OH240920   6.462   3.633  16.338 -1.1744 -0.3014  0.2899
 6502TIP3    H140921   6.545   3.678  16.325 -0.7710 -1.3332 -0.7991
 6502TIP3    H240922   6.452   3.629  16.433 -0.3661  0.5226  0.4231
 6503TIP3   OH240923   6.744   3.560  12.855 -0.1736 -0.1894 -0.6234
 6503TIP3    H140924   6.666   3.505  12.854 -0.4307  0.1653 -0.1588
 6503TIP3    H240925   6.762   3.575  12.948 -0.1558  0.5836 -0.7486
 6504TIP3   OH240926   6.276   6.103   3.633 -0.2698  0.5750  0.3663
 6504TIP3    H140927   6.307   6.136   3.548 -1.5260  2.3737  0.5573
 6504TIP3    H240928   6.342   6.132   3.696 -0.1787  0.6915  0.2180
 6505TIP3   OH240929   4.493   3.074   1.987 -0.6378 -0.1147 -0.1642
 6505TIP3    H140930   4.489   2.978   1.986 -0.1349 -0.1265 -1.5300
 6505TIP3    H240931   4.512   3.098   1.897  0.3956  1.2389  0.4101
 6506TIP3   OH240932   4.268   1.656  15.869 -0.0366  0.8458 -0.4140
 6506TIP3    H140933   4.344   1.701  15.905 -0.7990  0.3972  1.7921
 6506TIP3    H240934   4.279   1.565  15.895  0.5800  0.0319 -3.3383
 6507TIP3   OH240935   6.203   1.524  16.627 -0.1631 -0.6489 -0.0971
 6507TIP3    H140936   6.278   1.578  16.600 -2.0382  1.1266 -1.8915
 6507TIP3    H240937   6.164   1.572  16.700 -1.0761 -0.2313 -0.8572
 6508TIP3   OH240938   5.507   5.382   4.575  0.3757  0.1766  0.0649
 6508TIP3    H140939   5.452   5.441   4.627  0.6386  1.2614 -0.8694
 6508TIP3    H240940   5.593   5.424   4.574  0.8434 -0.7753  0.2937
 6509TIP3   OH240941   5.370   1.680   2.574 -0.5372  0.4165 -0.1693
 6509TIP3    H140942   5.278   1.705   2.578 -0.4209  0.5161  2.9410
 6509TIP3    H240943   5.397   1.670   2.665  1.5024 -3.4035 -1.0622
 6510TIP3   OH240944   5.903   4.578   5.213 -0.2236  0.2727 -0.0878
 6510TIP3    H140945   5.824   4.595   5.264 -1.1271  0.5228 -1.5458
 6510TIP3    H240946   5.876   4.588   5.122  1.1119 -1.1558 -0.6771
 6511TIP3   OH240947   3.197   3.315   0.986  0.0466 -0.3981 -0.1363
 6511TIP3    H140948   3.253   3.329   1.063 -1.3555 -1.8913  1.1894
 6511TIP3    H240949   3.259   3.291   0.917  1.1344 -1.3873  1.1404
 6512TIP3   OH240950   6.425   0.163   3.925 -0.2127 -0.1327 -0.0122
 6512TIP3    H140951   6.422   0.257   3.945 -2.5968  0.0314 -1.0220
 6512TIP3    H240952   6.435   0.159   3.830 -2.0203 -0.8777 -0.1867
 6513TIP3   OH240953   4.953   5.391   3.316  0.0151  0.5388  0.5365
 6513TIP3    H140954   4.987   5.320   3.262  0.1758  1.6504 -0.8812
 6513TIP3    H240955   4.906   5.347   3.387 -0.4930 -0.9872 -0.6993
 6514TIP3   OH240956   2.970   0.336   1.893 -0.0028 -0.1114 -1.0292
 6514TIP3    H140957   2.900   0.273   1.881 -2.4635  2.0731  1.2451
 6514TIP3    H240958   3.011   0.311   1.977  0.2763  0.1517 -1.0837
 6515TIP3   OH240959   5.221   2.996   2.020 -0.1575  0.0476 -0.1094
 6515TIP3    H140960   5.248   2.924   2.078 -0.9891 -0.6516 -0.5733
 6515TIP3    H240961   5.303   3.038   1.995  0.4345 -1.4171 -0.6875
 6516TIP3   OH240962   6.392   4.526   1.955  0.1027 -0.4115  0.9845
 6516TIP3    H140963   6.455   4.598   1.946  0.7052 -0.9755  0.5944
 6516TIP3    H240964   6.344   4.526   1.872 -1.0306  0.5816  1.6249
 6517TIP3   OH240965   5.990   3.702  14.083 -0.5224 -0.2716 -0.1795
 6517TIP3    H140966   5.944   3.619  14.095 -3.6707  1.5984  1.3886
 6517TIP3    H240967   6.024   3.723  14.170 -3.2091  1.9840  0.3752
 6518TIP3   OH240968   6.234   6.203   0.084  0.3231  0.0985  0.0007
 6518TIP3    H140969   6.154   6.251   0.105  0.6723  0.0919  1.4369
 6518TIP3    H240970   6.241   6.137   0.153  1.2379 -0.2956 -0.4536
 6519TIP3   OH240971   0.694   4.001   0.454  0.2585  0.1299  0.5242
 6519TIP3    H140972   0.679   3.921   0.504  0.6536 -1.0161 -1.1742
 6519TIP3    H240973   0.674   4.072   0.516  0.2993 -1.2636  2.1581
 6520TIP3   OH240974   4.822   2.501  14.346  0.4810  0.5398  0.1439
 6520TIP3    H140975   4.908   2.540  14.361  1.0405 -0.9436  0.9373
 6520TIP3    H240976   4.836   2.440  14.273  0.5799 -1.0886  1.4798
 6521TIP3   OH240977   3.123   1.901   4.660 -0.1205 -0.8134  0.0800
 6521TIP3    H140978   3.107   1.822   4.710  2.1624 -0.6463  1.1013
 6521TIP3    H240979   3.217   1.916   4.666 -0.6883  2.7811  1.1325
 6522TIP3   OH240980   2.048   6.141   1.205  0.3507  0.2267  0.1987
 6522TIP3    H140981   2.037   6.083   1.281 -1.4455 -1.7868 -1.5212
 6522TIP3    H240982   2.084   6.222   1.241 -0.4618 -0.6931  3.1884
 6523TIP3   OH240983   0.713   3.793   2.868  0.9189 -0.2435 -0.1291
 6523TIP3    H140984   0.665   3.865   2.828  0.0478  0.6241  2.3835
 6523TIP3    H240985   0.659   3.716   2.852 -0.3439  0.3978  0.9274
 6524TIP3   OH240986   4.915   5.162   2.727  0.6274  0.4482  0.1941
 6524TIP3    H140987   4.839   5.176   2.784  0.7249  0.4071  0.3316
 6524TIP3    H240988   4.937   5.250   2.695 -0.9665  0.1845 -1.7252
 6525TIP3   OH240989   5.941   4.854   3.728  0.0046  0.5528 -0.1525
 6525TIP3    H140990   5.961   4.763   3.706 -1.1930  0.4216 -0.7870
 6525TIP3    H240991   5.938   4.857   3.823  0.5991  0.0455 -0.1236
 6526TIP3   OH240992   3.538   4.056   5.838  0.5069  0.0075  0.2357
 6526TIP3    H140993   3.488   4.137   5.840 -0.9242 -0.8284 -1.0731
 6526TIP3    H240994   3.519   4.014   5.922 -1.7421 -0.7284 -0.6010
 6527TIP3   OH240995   1.433   6.342  12.694  0.0563  0.7436  0.1657
 6527TIP3    H140996   1.398   6.400  12.762 -0.9932  0.1587  0.1440
 6527TIP3    H240997   1.465   6.401  12.626 -1.4484  1.3183 -0.0729
 6528TIP3   OH240998   0.694   6.573   4.667 -0.6431  0.3438 -0.3548
 6528TIP3    H140999   0.694   6.496   4.610  0.5087  0.2737 -0.2644
 6528TIP3    H241000   0.639   6.548   4.742  0.3020 -0.6389  0.0135
 6529TIP3   OH241001   4.063   1.917  12.741  0.6340  0.2008  0.0064
 6529TIP3    H141002   4.038   1.827  12.762  2.1760 -0.6135 -1.5813
 6529TIP3    H241003   4.008   1.971  12.799 -0.0979 -1.7497  1.1744
 6530TIP3   OH241004   0.602   2.277   6.161  0.2708 -0.0588  0.5708
 6530TIP3    H141005   0.670   2.234   6.111 -1.0266 -0.1145 -1.1892
 6530TIP3    H241006   0.587   2.360   6.116 -1.4414 -0.4474  0.3703
 6531TIP3   OH241007   2.249   2.962  14.464  0.0140 -0.3923  0.1795
 6531TIP3    H141008   2.291   2.930  14.544 -0.8971  0.0349  0.8378
 6531TIP3    H241009   2.317   3.013  14.420  1.0727 -2.1020 -0.2263
 6532TIP3   OH241010   1.981   5.898   0.066  0.1447  0.2366 -0.1196
 6532TIP3    H141011   1.888   5.903   0.041  0.3000 -0.4545 -0.8454
 6532TIP3    H241012   1.988   5.814   0.112  0.3174  0.5049  0.3465
 6533TIP3   OH241013   3.617   0.087  10.618 -0.2665 -0.5371 -0.7029
 6533TIP3    H141014   3.571   0.115  10.539  0.3861  3.1744  0.1353
 6533TIP3    H241015   3.710   0.104  10.599 -0.1094  0.3680  0.8259
 6534TIP3   OH241016   5.640   1.358   3.858  0.4973  0.1293 -0.2326
 6534TIP3    H141017   5.652   1.442   3.902  3.0078 -0.2198 -0.2090
 6534TIP3    H241018   5.569   1.374   3.796 -0.8208  1.5331  1.5772
 6535TIP3   OH241019   1.303   5.585  11.277  0.0072  1.0034 -0.1324
 6535TIP3    H141020   1.213   5.618  11.275 -0.5049 -0.1745  1.6223
 6535TIP3    H241021   1.356   5.662  11.297 -1.1487  0.9592  3.6407
 6536TIP3   OH241022   2.128   0.413  11.088 -0.7181  0.5595 -0.2243
 6536TIP3    H141023   2.171   0.449  11.010 -0.1162  1.7091  0.6087
 6536TIP3    H241024   2.193   0.355  11.127 -0.5446  0.9717  0.1059
 6537TIP3   OH241025   4.898   4.613  17.201  0.3441  0.2862  0.8497
 6537TIP3    H141026   4.978   4.623  17.252  1.7766 -1.8523 -0.9202
 6537TIP3    H241027   4.920   4.550  17.133 -2.7668 -0.1305  0.1543
 6538TIP3   OH241028   5.727   5.887  12.775 -0.1409 -0.0049 -0.1182
 6538TIP3    H141029   5.819   5.904  12.794 -0.3143 -0.6240  1.3314
 6538TIP3    H241030   5.721   5.792  12.768 -0.9142 -0.0551  1.1134
 6539TIP3   OH241031   1.716   3.331  15.694 -0.0736 -0.2559 -0.1954
 6539TIP3    H141032   1.720   3.409  15.639 -2.1438 -1.0045 -1.4633
 6539TIP3    H241033   1.807   3.302  15.703  0.8315  2.8620  1.1562
 6540TIP3   OH241034   1.629   2.209   0.939 -0.6218  0.4978  0.4402
 6540TIP3    H141035   1.704   2.217   0.998  0.0864 -3.0642  0.1511
 6540TIP3    H241036   1.553   2.202   0.998 -0.2642  0.0532  0.8544
 6541TIP3   OH241037   6.786   4.653  13.897  0.5436  0.6425  0.0028
 6541TIP3    H141038   6.761   4.744  13.910  1.0025  0.3508  3.4834
 6541TIP3    H241039   6.726   4.603  13.953  2.2662 -0.8975  0.5320
 6542TIP3   OH241040   4.318   3.494  14.088  0.3330  0.5112 -0.5417
 6542TIP3    H141041   4.413   3.497  14.076  0.4178  1.9210  0.3370
 6542TIP3    H241042   4.305   3.521  14.179 -0.9436  0.7958 -0.7975
 6543TIP3   OH241043   6.066   5.344  16.730  0.1408 -0.4976 -0.2195
 6543TIP3    H141044   6.014   5.412  16.773 -1.1725 -1.2300 -0.6054
 6543TIP3    H241045   6.148   5.342  16.779  0.0925  1.1686 -0.0369
 6544TIP3   OH241046   2.081   0.771  15.685 -0.2246 -0.2942 -0.0952
 6544TIP3    H141047   2.101   0.783  15.592 -0.1967 -1.3220 -0.2278
 6544TIP3    H241048   1.987   0.792  15.692 -0.4178 -1.0010 -0.5090
 6545TIP3   OH241049   6.539   4.388   4.583 -0.2462  0.1795  0.2375
 6545TIP3    H141050   6.575   4.438   4.656  1.4274 -0.7519  0.0625
 6545TIP3    H241051   6.479   4.449   4.539 -1.6854  0.5864  2.6842
 6546TIP3   OH241052   4.790   6.400  11.459 -0.3273  0.6004  0.3561
 6546TIP3    H141053   4.715   6.341  11.450 -0.2284  0.3509  1.1173
 6546TIP3    H241054   4.861   6.343  11.487  0.0289  0.9184  0.0990
 6547TIP3   OH241055   2.765   3.650  12.495 -0.2694  0.0527 -0.1390
 6547TIP3    H141056   2.856   3.628  12.513 -0.7650 -1.4204  0.5915
 6547TIP3    H241057   2.738   3.588  12.427 -0.5485  0.8921 -0.8061
 6548TIP3   OH241058   6.640   0.082   2.029 -0.0983 -0.1024  0.3155
 6548TIP3    H141059   6.591   0.073   1.947  0.5266 -1.1951  0.0522
 6548TIP3    H241060   6.712   0.141   2.008  0.0552 -0.3736  0.0872
 6549TIP3   OH241061   5.462   3.111   1.951  0.5681  0.4891 -0.0692
 6549TIP3    H141062   5.506   3.171   1.891 -1.3634  0.1045 -1.9580
 6549TIP3    H241063   5.499   3.025   1.931  0.4534  0.4678 -0.1891
 6550TIP3   OH241064   2.881   0.462   6.423  0.0468  0.1647 -0.1487
 6550TIP3    H141065   2.867   0.377   6.381  0.2333  0.5592 -1.0283
 6550TIP3    H241066   2.915   0.441   6.510 -0.7646 -0.6761 -0.0356
 6551TIP3   OH241067   4.101   3.438   2.059 -0.0152  0.5474  0.1022
 6551TIP3    H141068   4.040   3.426   1.987  0.9316  0.0895 -0.6213
 6551TIP3    H241069   4.046   3.467   2.132 -0.9304  1.2818 -0.8718
 6552TIP3   OH241070   5.702   4.887  15.460  0.4385 -0.2724  0.0883
 6552TIP3    H141071   5.690   4.962  15.402 -0.9753  0.4284  1.2647
 6552TIP3    H241072   5.777   4.910  15.514  0.2043  0.1550  0.2324
 6553TIP3   OH241073   6.509   1.093   6.424 -0.5033 -0.8834 -0.1392
 6553TIP3    H141074   6.429   1.043   6.414 -0.4367 -1.0315  0.0652
 6553TIP3    H241075   6.513   1.114   6.517  0.0187 -1.4218 -0.0351
 6554TIP3   OH241076   1.835   1.534   0.926 -0.5372 -0.4342 -0.8945
 6554TIP3    H141077   1.827   1.627   0.947  0.0652 -0.5634 -0.0494
 6554TIP3    H241078   1.910   1.505   0.977 -1.5295 -1.6849 -0.1164
 6555TIP3   OH241079   4.692   5.464  15.505 -0.1318 -0.1798  0.1335
 6555TIP3    H141080   4.627   5.533  15.493 -1.1200 -1.2322 -0.6777
 6555TIP3    H241081   4.767   5.491  15.451  0.0778  0.9857  0.9951
 6556TIP3   OH241082   1.859   0.177   6.418  0.7669 -0.0583  0.0171
 6556TIP3    H141083   1.789   0.199   6.357  1.4385  0.8955 -0.4155
 6556TIP3    H241084   1.835   0.222   6.499  1.1922  0.7547 -0.3116
 6557TIP3   OH241085   5.365   2.354   1.938 -0.0695  0.2195 -0.2966
 6557TIP3    H141086   5.446   2.326   1.895 -0.3335  0.0100 -0.6569
 6557TIP3    H241087   5.321   2.272   1.962 -0.1741  0.3333 -0.1000
 6558TIP3   OH241088   3.202   3.034   4.800 -0.5130 -0.5212  0.3783
 6558TIP3    H141089   3.145   2.958   4.788 -1.6734  0.4413 -0.4285
 6558TIP3    H241090   3.141   3.106   4.817  0.5399  0.3347  0.5363
 6559TIP3   OH241091   4.078   5.478   5.856 -0.1343  0.1385  0.3456
 6559TIP3    H141092   4.026   5.398   5.857  1.9371 -1.2483  0.8734
 6559TIP3    H241093   4.103   5.492   5.947  1.1439  0.2735 -0.0082
 6560TIP3   OH241094   1.002   1.599   0.599  0.0211  0.2663 -0.4424
 6560TIP3    H141095   0.930   1.536   0.595  0.0513  0.1765  0.3781
 6560TIP3    H241096   1.070   1.562   0.542 -0.3065  0.0064 -0.6662
 6561TIP3   OH241097   1.757   5.479   5.245  0.2185 -0.1797  0.5646
 6561TIP3    H141098   1.789   5.567   5.228  0.0362 -0.2776 -0.3040
 6561TIP3    H241099   1.824   5.440   5.302  0.6432  0.2818  0.3868
 6562TIP3   OH241100   2.883   4.881  14.588  0.1453 -0.4417 -0.3036
 6562TIP3    H141101   2.848   4.808  14.639  0.8489 -0.2918  0.4057
 6562TIP3    H241102   2.978   4.870  14.593  0.2568  0.6657  0.0143
 6563TIP3   OH241103   3.923   1.044  16.161 -0.0924 -0.0289 -0.1736
 6563TIP3    H141104   3.844   1.053  16.108 -0.4752  0.4649  0.4614
 6563TIP3    H241105   3.936   1.131  16.199  0.2077 -0.3593  0.4917
 6564TIP3   OH241106   5.378   0.063  14.371 -0.0654 -0.7075  0.0903
 6564TIP3    H141107   5.409   0.034  14.285 -0.7455  2.8291 -1.4543
 6564TIP3    H241108   5.456   0.102  14.412 -0.3494  0.0884 -0.1034
 6565TIP3   OH241109   3.267   0.233   5.259 -0.0504 -0.4474  0.2459
 6565TIP3    H141110   3.214   0.154   5.250 -0.0278 -0.3244 -1.1535
 6565TIP3    H241111   3.347   0.214   5.209  1.9700 -1.2383  3.5994
 6566TIP3   OH241112   6.339   1.554  16.066  0.2631  0.5320  0.4035
 6566TIP3    H141113   6.271   1.553  16.133 -0.8446  0.7967 -0.6954
 6566TIP3    H241114   6.382   1.469  16.074 -0.3521  0.2687  0.9625
 6567TIP3   OH241115   4.558   3.110  14.713 -0.2924 -0.2104  0.0835
 6567TIP3    H141116   4.647   3.146  14.713 -1.2531  2.3784  1.6919
 6567TIP3    H241117   4.510   3.166  14.651 -1.3746  0.0997  1.1765
 6568TIP3   OH241118   5.701   6.782  12.292 -0.2800 -0.3995 -0.6786
 6568TIP3    H141119   5.785   6.828  12.284 -0.0141 -0.7378  0.1130
 6568TIP3    H241120   5.708   6.710  12.229  0.0840 -0.5064 -0.5211
 6569TIP3   OH241121   3.719   2.634   3.709  0.0127  0.6070 -0.0226
 6569TIP3    H141122   3.633   2.665   3.738 -0.3929 -1.9300  1.6923
 6569TIP3    H241123   3.705   2.542   3.685  2.0818  0.3604 -0.4431
 6570TIP3   OH241124   2.162   1.796   3.550  1.0083 -0.2849  0.4201
 6570TIP3    H141125   2.158   1.826   3.640  1.2500  1.1652 -0.0356
 6570TIP3    H241126   2.091   1.842   3.505  1.7670  0.0866 -0.4271
 6571TIP3   OH241127   1.196   5.295  10.446  0.1408  0.1220 -0.2588
 6571TIP3    H141128   1.163   5.209  10.420 -0.3504 -0.0762  0.9840
 6571TIP3    H241129   1.289   5.294  10.423  0.3200 -1.0523  0.4883
 6572TIP3   OH241130   1.838   0.479  14.484 -0.4001  0.1005 -0.0191
 6572TIP3    H141131   1.897   0.520  14.420 -1.2274  0.8894 -0.2908
 6572TIP3    H241132   1.880   0.494  14.568 -0.5990  1.3535 -0.1367
 6573TIP3   OH241133   6.196   2.931  15.503  0.8749  0.1162  0.0729
 6573TIP3    H141134   6.169   2.889  15.422 -0.6876 -0.1664  0.7285
 6573TIP3    H241135   6.263   2.873  15.539  2.4286  0.8283 -1.5638
 6574TIP3   OH241136   0.916   3.233  17.032  0.0585  0.1325 -0.0588
 6574TIP3    H141137   0.939   3.143  17.054 -0.7187  0.0517  0.4408
 6574TIP3    H241138   0.890   3.272  17.116 -1.9360  0.1136 -0.6476
 6575TIP3   OH241139   2.160   3.830  12.237  0.1525 -0.4149 -0.2954
 6575TIP3    H141140   2.135   3.881  12.160  0.2457  0.1608  0.0468
 6575TIP3    H241141   2.191   3.896  12.300  0.5168 -0.9217  0.0590
 6576TIP3   OH241142   0.686   0.352  11.734  0.1206  0.2667 -0.0962
 6576TIP3    H141143   0.723   0.348  11.822 -0.6900 -0.4635  0.2213
 6576TIP3    H241144   0.600   0.310  11.742  0.4201 -0.6280 -1.4332
 6577TIP3   OH241145   1.980   2.282  15.945  0.7028  0.5232  0.1680
 6577TIP3    H141146   1.950   2.281  15.854  1.4408 -0.7620 -0.0779
 6577TIP3    H241147   1.900   2.295  15.996  0.1275  0.1661 -0.6217
 6578TIP3   OH241148   0.358   1.540  13.072  1.1441 -0.3884 -0.4730
 6578TIP3    H141149   0.370   1.461  13.125 -2.5469 -0.2852  0.6505
 6578TIP3    H241150   0.334   1.507  12.985  0.7368 -0.5178 -0.3117
 6579TIP3   OH241151   4.367   5.503  15.577 -0.2776  0.3806  0.4269
 6579TIP3    H141152   4.445   5.548  15.609 -0.6917  0.8593  0.7779
 6579TIP3    H241153   4.295   5.560  15.601 -0.7440 -0.0765  0.1358
 6580TIP3   OH241154   5.746   1.055  10.785 -0.3290  0.1024  0.4428
 6580TIP3    H141155   5.675   0.999  10.818 -1.2381  2.3167  2.3799
 6580TIP3    H241156   5.714   1.088  10.701 -0.7032 -0.5591  0.3231
 6581TIP3   OH241157   4.391   1.237  14.659 -0.2430 -0.0223 -0.0766
 6581TIP3    H141158   4.373   1.270  14.571  1.1092  1.1467  0.0600
 6581TIP3    H241159   4.304   1.225  14.698 -0.8303  1.6848 -0.7700
 6582TIP3   OH241160   5.224   0.049  10.936 -0.3014  0.1099 -0.7665
 6582TIP3    H141161   5.265   0.100  11.006 -1.4419 -0.2532  0.1817
 6582TIP3    H241162   5.271   0.075  10.857  0.2263  1.4086 -0.0483
 6583TIP3   OH241163   6.103   0.832   2.481 -0.4545  0.1790 -0.1967
 6583TIP3    H141164   6.175   0.820   2.419 -1.4032  0.1178 -1.3155
 6583TIP3    H241165   6.122   0.770   2.552  1.1518  0.9389  0.0556
 6584TIP3   OH241166   5.039   3.917   3.539  0.2507 -0.5470 -0.3522
 6584TIP3    H141167   4.980   3.841   3.543 -1.2071  0.6122  0.5173
 6584TIP3    H241168   5.022   3.957   3.454  3.6544 -3.2082 -2.4669
 6585TIP3   OH241169   2.888   4.159  12.496  0.5360  0.1043  0.4521
 6585TIP3    H141170   2.889   4.064  12.507 -0.1134  0.1711  1.1349
 6585TIP3    H241171   2.913   4.193  12.582 -0.9387  0.5833  0.6932
 6586TIP3   OH241172   6.757   0.674  15.743 -0.9290 -0.1870 -0.3354
 6586TIP3    H141173   6.671   0.715  15.752 -0.6978  0.0604  0.8708
 6586TIP3    H241174   6.762   0.647  15.651 -2.3152 -0.2561 -0.3961
 6587TIP3   OH241175   6.567   3.739  15.418 -0.2622 -0.1512  0.5483
 6587TIP3    H141176   6.523   3.715  15.336  0.1413  1.5564 -0.1882
 6587TIP3    H241177   6.660   3.738  15.397 -0.1709  0.5750  0.9153
 6588TIP3   OH241178   3.880   5.062   1.078 -0.1899  0.0469  0.1980
 6588TIP3    H141179   3.929   5.145   1.075  0.1648 -0.1360  0.9863
 6588TIP3    H241180   3.834   5.064   1.162  0.3862 -0.8805  0.5395
 6589TIP3   OH241181   5.246   2.928  12.249  0.3262 -0.1047 -0.7335
 6589TIP3    H141182   5.307   3.002  12.241  0.8650 -0.4417  0.0551
 6589TIP3    H241183   5.219   2.908  12.160  2.3200 -0.7080 -1.2279
 6590TIP3   OH241184   0.433   1.994   2.926 -0.0925  0.4410 -0.3808
 6590TIP3    H141185   0.417   1.925   2.862  0.6600  0.8215 -0.9961
 6590TIP3    H241186   0.375   2.065   2.899 -1.5027 -0.2430  0.7606
 6591TIP3   OH241187   3.310   6.662  16.078  0.2650  0.3395 -0.2895
 6591TIP3    H141188   3.375   6.612  16.128  0.5508  0.5786 -0.4241
 6591TIP3    H241189   3.345   6.665  15.989 -0.0310  0.2893 -0.4093
 6592TIP3   OH241190   3.114   6.104  16.122  0.5484 -0.0943  0.0085
 6592TIP3    H141191   3.148   6.018  16.099  1.1844 -0.0918  0.9008
 6592TIP3    H241192   3.067   6.134  16.044 -0.7647 -1.7847  0.1423
 6593TIP3   OH241193   0.718   6.655   0.319  0.0606 -0.6287 -0.0830
 6593TIP3    H141194   0.685   6.725   0.376 -2.1057 -2.3525  0.8360
 6593TIP3    H241195   0.650   6.645   0.252 -0.4853 -3.0104  0.7981
 6594TIP3   OH241196   2.918   6.721  11.770 -0.3851 -0.6299 -0.2301
 6594TIP3    H141197   2.855   6.657  11.804 -0.7317 -0.3637 -0.3723
 6594TIP3    H241198   2.864   6.787  11.727  0.0585 -0.9659 -1.3091
 6595TIP3   OH241199   1.401   1.957   3.907  0.2257 -0.1483  0.6772
 6595TIP3    H141200   1.326   1.975   3.965  0.9390  0.7320  1.3396
 6595TIP3    H241201   1.468   1.920   3.965  1.6730  2.5904  0.8367
 6596TIP3   OH241202   2.357   3.729  11.401 -0.0507 -0.3077  0.0910
 6596TIP3    H141203   2.439   3.735  11.449 -0.5699 -0.9406  1.0520
 6596TIP3    H241204   2.294   3.696  11.464 -1.2701  1.0729 -0.3715
 6597TIP3   OH241205   6.376   6.622   4.096 -0.0651 -0.3357  0.5448
 6597TIP3    H141206   6.450   6.683   4.101 -0.2405 -0.0925  0.2304
 6597TIP3    H241207   6.355   6.620   4.002 -0.0163 -0.9300  0.5475
 6598TIP3   OH241208   5.615   0.083  13.508  0.4173  0.2546  0.2054
 6598TIP3    H141209   5.675   0.125  13.569  1.0297  1.0625 -0.9419
 6598TIP3    H241210   5.649   0.104  13.421 -0.9131 -0.1745 -0.4441
 6599TIP3   OH241211   1.097   1.470  12.389 -0.0821 -0.0551 -0.2426
 6599TIP3    H141212   1.094   1.530  12.464 -0.3998  1.3638 -1.3744
 6599TIP3    H241213   1.023   1.411  12.404  1.4032 -1.4603  1.9098
 6600TIP3   OH241214   0.794   0.606   0.782 -0.2650  0.1621 -0.5473
 6600TIP3    H141215   0.713   0.577   0.741 -1.5154  2.0711  0.5564
 6600TIP3    H241216   0.778   0.601   0.876  1.0040  0.2814 -0.3072
 6601TIP3   OH241217   3.034   2.732  14.776  0.1077  0.0160 -0.3689
 6601TIP3    H141218   3.002   2.821  14.766  0.7085 -0.0377 -3.1099
 6601TIP3    H241219   3.048   2.722  14.871  0.0469  2.8144 -0.0251
 6602TIP3   OH241220   0.252   3.188  17.125 -0.2934  0.3475  0.1857
 6602TIP3    H141221   0.274   3.116  17.066 -0.7422  1.3873 -1.2828
 6602TIP3    H241222   0.282   3.159  17.211  0.1340 -1.3029 -0.5077
 6603TIP3   OH241223   5.697   0.279  15.072  0.0265  0.8471 -0.9794
 6603TIP3    H141224   5.722   0.338  15.143 -0.5481  0.5186 -0.4934
 6603TIP3    H241225   5.716   0.328  14.992  2.0406  0.6785 -0.6443
 6604TIP3   OH241226   6.670   1.083   4.049  0.0598  0.2788  0.3593
 6604TIP3    H141227   6.589   1.065   4.097  0.9489 -2.0667  1.0990
 6604TIP3    H241228   6.670   1.177   4.034 -4.4909 -0.1065 -2.7564
 6605TIP3   OH241229   1.859   4.450  13.068 -0.5522 -0.3016 -0.1301
 6605TIP3    H141230   1.808   4.462  13.148 -0.3221 -1.1553  0.1487
 6605TIP3    H241231   1.849   4.533  13.020  0.4186  0.7444  1.4072
 6606TIP3   OH241232   4.580   1.640  12.407 -0.1987 -0.4250  0.0922
 6606TIP3    H141233   4.547   1.681  12.327 -1.4718  1.8615  1.7313
 6606TIP3    H241234   4.675   1.648  12.400 -0.3341  0.5531 -0.7924
 6607TIP3   OH241235   4.078   4.349   5.852 -0.4022 -0.0398 -0.0254
 6607TIP3    H141236   4.114   4.434   5.827  1.2807 -1.4054 -2.4623
 6607TIP3    H241237   4.011   4.331   5.787  0.2930 -1.2385 -0.4242
 6608TIP3   OH241238   1.000   5.747  14.442  0.6971  0.4736  0.2957
 6608TIP3    H141239   1.072   5.685  14.460  1.0016  1.1104  1.3215
 6608TIP3    H241240   1.039   5.833  14.455  0.1784  0.8773 -0.7982
 6609TIP3   OH241241   6.621   4.505  12.416  0.2793 -0.0142 -0.1451
 6609TIP3    H141242   6.641   4.433  12.476 -1.4242 -0.0805  0.3602
 6609TIP3    H241243   6.566   4.465  12.348 -0.0357  0.6466 -0.2824
 6610TIP3   OH241244   3.134   4.525  15.130 -0.9280  0.0496 -0.0758
 6610TIP3    H141245   3.168   4.443  15.095  0.8535  0.9570 -0.4984
 6610TIP3    H241246   3.206   4.587  15.120 -0.9554  0.7852  3.5271
 6611TIP3   OH241247   1.195   6.280   0.815 -0.2062  0.0957  0.9821
 6611TIP3    H141248   1.224   6.336   0.743  0.3550 -1.3179  0.0799
 6611TIP3    H241249   1.145   6.338   0.872 -0.9750  1.1802 -0.7394
 6612TIP3   OH241250   5.576   2.097   3.727  0.1759  0.0025  0.2771
 6612TIP3    H141251   5.652   2.137   3.769 -0.4004 -0.0845  1.3979
 6612TIP3    H241252   5.590   2.003   3.735  1.3244 -0.0807 -1.9982
 6613TIP3   OH241253   4.245   0.115  14.911  0.5973 -0.4193  0.0119
 6613TIP3    H141254   4.325   0.111  14.963  1.3757 -1.0473 -1.2128
 6613TIP3    H241255   4.219   0.207  14.913  1.9936 -0.0077 -0.5320
 6614TIP3   OH241256   5.118   6.332  14.138  0.6218 -0.3304 -0.1765
 6614TIP3    H141257   5.210   6.305  14.147  1.0163  1.0860  0.2396
 6614TIP3    H241258   5.104   6.392  14.212 -0.7631 -0.8709  0.0055
 6615TIP3   OH241259   2.125   4.612   3.329  0.2378 -0.0736  0.0205
 6615TIP3    H141260   2.141   4.520   3.350 -1.2318 -0.2288  0.5094
 6615TIP3    H241261   2.030   4.623   3.338  0.0927  0.9380 -2.2139
 6616TIP3   OH241262   0.393   0.049  14.045  0.4191 -0.2483  0.4327
 6616TIP3    H141263   0.415   0.138  14.019  0.2418 -0.9664 -2.4078
 6616TIP3    H241264   0.298   0.045  14.039  0.5123 -0.9745 -0.7749
 6617TIP3   OH241265   4.452   2.522  14.754 -0.0619  0.4424  0.2062
 6617TIP3    H141266   4.419   2.577  14.825  2.4789  0.8844  1.0903
 6617TIP3    H241267   4.542   2.502  14.779 -0.4746 -2.9815 -0.7734
 6618TIP3   OH241268   2.671   6.607   1.131  0.6215  0.5563 -0.0580
 6618TIP3    H141269   2.711   6.529   1.171  0.7150  0.5272 -0.2077
 6618TIP3    H241270   2.597   6.573   1.081 -0.0849  0.6962  0.8741
 6619TIP3   OH241271   2.095   1.427   5.477  0.0709  0.6615  0.3566
 6619TIP3    H141272   2.175   1.456   5.521 -0.9272  0.8860  2.0585
 6619TIP3    H241273   2.065   1.352   5.527 -0.6967  0.4809 -0.3625
 6620TIP3   OH241274   5.893   5.771   5.111 -0.1583  0.0967  0.1666
 6620TIP3    H141275   5.979   5.730   5.104 -0.4128 -0.9922  2.8232
 6620TIP3    H241276   5.831   5.704   5.082 -0.6806 -2.0825  5.6765
 6621TIP3   OH241277   6.740   4.191   4.021  0.2194 -0.0715  0.6745
 6621TIP3    H141278   6.692   4.230   4.094 -0.7917  1.5779 -0.8290
 6621TIP3    H241279   6.832   4.211   4.040  0.0124 -0.1028  1.7497
 6622TIP3   OH241280   5.079   3.191  11.953  0.0867 -0.6263  0.3947
 6622TIP3    H141281   5.127   3.146  11.884 -1.2446 -3.2585  1.1110
 6622TIP3    H241282   5.048   3.272  11.912 -1.1075 -2.3525 -2.2536
 6623TIP3   OH241283   3.131   0.727   2.955 -0.1065  0.0410 -0.1701
 6623TIP3    H141284   3.102   0.637   2.943  0.3710 -0.0050 -1.0271
 6623TIP3    H241285   3.150   0.734   3.048  0.9450 -1.0721 -0.2936
 6624TIP3   OH241286   3.595   3.676  10.581 -0.2537  0.1519  0.3695
 6624TIP3    H141287   3.518   3.665  10.525  0.1686  0.7391 -0.3422
 6624TIP3    H241288   3.562   3.665  10.670 -0.7446 -1.7854 -0.0278
 6625TIP3   OH241289   2.743   3.567   4.766  0.2730 -0.7900  0.1874
 6625TIP3    H141290   2.703   3.601   4.687 -2.7895 -2.0967  1.0940
 6625TIP3    H241291   2.761   3.644   4.820 -0.4532 -0.1096 -0.5379
 6626TIP3   OH241292   5.795   2.459  14.232 -0.9221 -0.0880  0.0146
 6626TIP3    H141293   5.862   2.414  14.283 -0.6448 -0.2464 -0.4869
 6626TIP3    H241294   5.812   2.552  14.246  0.5830 -0.0864 -1.6130
 6627TIP3   OH241295   4.141   3.019  15.278  0.1956  0.4633 -0.4809
 6627TIP3    H141296   4.112   3.028  15.369 -2.0304 -1.0567 -0.9950
 6627TIP3    H241297   4.118   2.929  15.255  1.8283  0.4605 -2.2053
 6628TIP3   OH241298   3.937   6.644  15.683 -0.6251  0.0905  0.2726
 6628TIP3    H141299   3.931   6.558  15.641 -0.0063 -0.0333  0.4316
 6628TIP3    H241300   3.975   6.627  15.769  1.0775  0.7119 -0.3390
 6629TIP3   OH241301   0.993   2.423   4.861 -0.1168  0.3581  0.0382
 6629TIP3    H141302   0.901   2.448   4.867 -0.5554 -1.3222  0.5560
 6629TIP3    H241303   0.997   2.360   4.789  0.9818  1.8447 -1.2658
 6630TIP3   OH241304   1.786   6.132   0.518  0.4513  0.0336 -0.3549
 6630TIP3    H141305   1.789   6.098   0.428  1.1748  1.0996 -0.7429
 6630TIP3    H241306   1.795   6.226   0.508  1.1228  0.1058  0.8897
 6631TIP3   OH241307   3.188   0.568  16.015 -0.6804 -0.7827  0.1245
 6631TIP3    H141308   3.211   0.564  16.108 -0.2229 -0.7138  0.0167
 6631TIP3    H241309   3.220   0.485  15.979  1.7775  0.3824 -0.5507
 6632TIP3   OH241310   5.209   3.401  13.133 -0.0133  0.1606  0.2807
 6632TIP3    H141311   5.187   3.311  13.159 -1.8128  0.8417  1.2099
 6632TIP3    H241312   5.126   3.449  13.139  0.3509  1.3204 -2.7143
 6633TIP3   OH241313   6.125   3.250  16.175  0.2508 -0.2771 -0.3939
 6633TIP3    H141314   6.090   3.162  16.163 -0.9347  0.2793 -1.0658
 6633TIP3    H241315   6.193   3.240  16.242 -1.6192 -1.2528  1.3942
 6634TIP3   OH241316   5.439   4.450   4.915 -0.0561 -0.1384  0.2197
 6634TIP3    H141317   5.404   4.534   4.886 -0.8586 -0.7033 -0.4907
 6634TIP3    H241318   5.494   4.421   4.843 -0.2251 -0.4763  0.2245
 6635TIP3   OH241319   1.009   6.452  13.956 -0.0218  0.3115 -0.1735
 6635TIP3    H141320   0.984   6.362  13.975  0.5495 -0.2078 -1.7676
 6635TIP3    H241321   0.959   6.505  14.018  0.4276 -1.1540  1.4771
 6636TIP3   OH241322   0.158   5.462  14.364 -0.8395  0.7781 -0.4864
 6636TIP3    H141323   0.074   5.460  14.409  0.4691 -1.4905  2.0685
 6636TIP3    H241324   0.191   5.372  14.372  2.6817  2.0668  0.3360
 6637TIP3   OH241325   5.688   0.060   2.324 -0.0005  0.1763  0.3244
 6637TIP3    H141326   5.770   0.098   2.356  0.1274  0.2745 -0.1129
 6637TIP3    H241327   5.693   0.069   2.229 -1.0406  1.2475  0.3611
 6638TIP3   OH241328   5.694   0.592  14.626  0.4011  0.4352  0.4680
 6638TIP3    H141329   5.755   0.645  14.676 -0.7994  1.0629  1.3119
 6638TIP3    H241330   5.608   0.611  14.665  0.1566 -3.7409  2.2236
 6639TIP3   OH241331   6.757   0.503   4.554  0.3022 -0.3356  0.1097
 6639TIP3    H141332   6.820   0.431   4.552  0.5393 -0.1208 -2.0501
 6639TIP3    H241333   6.703   0.489   4.476 -0.9851  0.6608  0.8075
 6640TIP3   OH241334   0.945   2.897  14.275 -0.5118  0.0493 -1.0433
 6640TIP3    H141335   1.036   2.919  14.253  0.2638 -0.3159  1.6496
 6640TIP3    H241336   0.912   2.973  14.323 -1.2237 -0.3313 -0.9265
 6641TIP3   OH241337   2.410   2.313   6.002 -0.4930  0.2305 -0.5081
 6641TIP3    H141338   2.408   2.318   5.906 -1.2299 -0.0346 -0.5073
 6641TIP3    H241339   2.343   2.249   6.024 -0.0533 -0.0010  0.1712
 6642TIP3   OH241340   6.703   0.081   5.782 -0.3608 -0.1645 -0.6271
 6642TIP3    H141341   6.631   0.133   5.746  0.7011  1.8345  0.0405
 6642TIP3    H241342   6.767   0.146   5.810  0.5291 -1.8144  1.2788
 6643TIP3   OH241343   2.592   1.319  16.932 -0.1026  0.1489 -0.4456
 6643TIP3    H141344   2.665   1.365  16.893 -0.7197 -0.7803 -2.7638
 6643TIP3    H241345   2.517   1.379  16.922 -0.4777 -0.5103 -1.6369
 6644TIP3   OH241346   3.095   6.141  15.263  0.1624  0.6648  0.1092
 6644TIP3    H141347   3.138   6.216  15.222 -0.8076  0.2561 -1.7411
 6644TIP3    H241348   3.106   6.155  15.357 -1.3225  3.9367 -0.1203
 6645TIP3   OH241349   0.574   2.102   4.999  0.2691  0.0921  0.0828
 6645TIP3    H141350   0.656   2.151   5.005  0.5022 -0.4066  0.9989
 6645TIP3    H241351   0.531   2.117   5.084  0.9385 -2.3375  0.8792
 6646TIP3   OH241352   3.527   0.386  15.658 -0.5811 -0.5932  0.1242
 6646TIP3    H141353   3.610   0.410  15.699 -0.4084 -1.3227  0.2055
 6646TIP3    H241354   3.550   0.355  15.571 -0.7217 -1.2266  0.3090
 6647TIP3   OH241355   0.431   6.533   2.917 -0.0171 -0.3880 -0.4417
 6647TIP3    H141356   0.364   6.495   2.973 -0.3905  2.8117  1.4043
 6647TIP3    H241357   0.507   6.544   2.974 -0.0491  1.9280 -0.8005
 6648TIP3   OH241358   5.843   1.010   1.775  0.7638 -0.3323 -0.2873
 6648TIP3    H141359   5.826   0.980   1.686 -0.0656  1.9939 -0.9569
 6648TIP3    H241360   5.757   1.031   1.811  0.9334 -2.7693  1.6574
 6649TIP3   OH241361   5.264   4.535  12.502 -0.5736  0.1591 -0.1917
 6649TIP3    H141362   5.193   4.598  12.509 -1.4032 -0.4883 -2.3586
 6649TIP3    H241363   5.256   4.499  12.414  0.6124 -2.0943  0.5683
 6650TIP3   OH241364   4.008   0.679   0.008 -0.0916 -0.7217 -0.1038
 6650TIP3    H141365   3.948   0.658   0.079 -1.3771  1.2991 -0.5593
 6650TIP3    H241366   4.022   0.595  -0.037 -1.8022 -1.4043  0.6011
 6651TIP3   OH241367   5.306   0.649   1.878  0.0879  0.4073 -0.3711
 6651TIP3    H141368   5.255   0.720   1.839  0.0609  1.0297  0.7753
 6651TIP3    H241369   5.396   0.666   1.852 -0.1795 -0.3502 -1.8873
 6652TIP3   OH241370   6.596   0.233   3.427 -0.4221  0.0518  0.1854
 6652TIP3    H141371   6.617   0.158   3.371 -0.1045  0.3118 -0.0501
 6652TIP3    H241372   6.672   0.291   3.418  0.3535 -0.6198  2.1429
 6653TIP3   OH241373   4.147   3.062   1.877  0.0270  0.2411 -0.2906
 6653TIP3    H141374   4.201   2.996   1.834  0.5060  0.2912  0.2293
 6653TIP3    H241375   4.165   3.143   1.829 -1.8993 -0.3429 -2.0644
 6654TIP3   OH241376   0.419   3.447   0.136  0.6165  0.0230 -0.0437
 6654TIP3    H141377   0.329   3.432   0.167  0.3819  0.9537 -0.2508
 6654TIP3    H241378   0.411   3.523   0.078  1.9672  1.8506  2.0670
 6655TIP3   OH241379   4.163   4.333  10.868 -0.3237 -0.2987  0.3774
 6655TIP3    H141380   4.155   4.373  10.781 -0.1339 -0.8205  0.1167
 6655TIP3    H241381   4.248   4.289  10.866 -0.4925 -0.6382  0.6965
 6656TIP3   OH241382   4.751   5.236   4.165 -0.1320 -0.2728  0.8187
 6656TIP3    H141383   4.801   5.175   4.111  1.4571  1.2388  0.5400
 6656TIP3    H241384   4.667   5.244   4.119  1.0866  0.7492 -1.2913
 6657TIP3   OH241385   3.818   0.095  15.624 -0.1967  0.4975 -0.3432
 6657TIP3    H141386   3.869   0.016  15.643  1.0562  1.6916  1.4185
 6657TIP3    H241387   3.730   0.075  15.656  0.7861  0.7908  2.7550
 6658TIP3   OH241388   0.425   5.203   4.569  0.0471 -0.1148 -0.5077
 6658TIP3    H141389   0.514   5.211   4.535  0.0624 -2.0352 -0.9757
 6658TIP3    H241390   0.425   5.120   4.617 -1.4034  0.0165 -0.2626
 6659TIP3   OH241391   0.098   3.766  12.618 -0.0394 -0.2123 -0.1237
 6659TIP3    H141392   0.037   3.833  12.587 -0.4417 -1.5832 -2.3935
 6659TIP3    H241393   0.133   3.726  12.538 -0.8953 -3.6840  1.1406
 6660TIP3   OH241394   5.945   3.926  11.430  0.6207  0.5819  0.3981
 6660TIP3    H141395   5.911   3.836  11.434  1.0011  0.3669 -0.9056
 6660TIP3    H241396   5.947   3.946  11.337  1.8155  1.4611  0.6092
 6661TIP3   OH241397   2.815   0.363  16.206  0.0734 -0.5313 -0.1229
 6661TIP3    H141398   2.738   0.358  16.263  0.8217 -0.1859  0.9229
 6661TIP3    H241399   2.889   0.365  16.266  0.7583  2.7842 -1.0158
 6662TIP3   OH241400   3.283   2.362  16.600  0.1661 -0.0453 -0.1518
 6662TIP3    H141401   3.190   2.339  16.608  0.1784  0.1066  0.5093
 6662TIP3    H241402   3.319   2.296  16.541 -0.5273  0.3665 -1.0528
 6663TIP3   OH241403   2.931   2.966  14.659 -0.6421 -0.0072  0.3081
 6663TIP3    H141404   2.937   3.058  14.632 -1.3235  0.2382  0.9764
 6663TIP3    H241405   2.843   2.957  14.694 -0.5177 -0.8811  0.4135
 6664TIP3   OH241406   3.230   5.438  16.352  0.5186 -0.0960  0.2215
 6664TIP3    H141407   3.258   5.418  16.441  0.6154 -0.7545  0.0483
 6664TIP3    H241408   3.305   5.481  16.312  1.0660 -1.2845 -0.0509
 6665TIP3   OH241409   4.567   5.643   0.456 -0.2674  0.1267 -0.1525
 6665TIP3    H141410   4.530   5.731   0.449  0.9628  0.6426 -0.3345
 6665TIP3    H241411   4.652   5.650   0.411 -0.9765 -1.6159 -1.7861
 6666TIP3   OH241412   1.692   4.390  16.816  0.2538 -0.0281  0.1309
 6666TIP3    H141413   1.696   4.294  16.814  3.0125  0.0384 -2.0206
 6666TIP3    H241414   1.783   4.417  16.828 -0.3085  2.3206 -0.6453
 6667TIP3   OH241415   3.929   3.381  15.894 -0.3396 -0.4813 -0.2331
 6667TIP3    H141416   3.969   3.416  15.815  0.4510 -0.1307  0.3156
 6667TIP3    H241417   3.835   3.391  15.880 -0.1382  1.2937 -0.3435
 6668TIP3   OH241418   0.769   4.573   4.172 -0.0994 -0.4666  0.1776
 6668TIP3    H141419   0.700   4.574   4.106 -0.1380 -1.4954  0.1935
 6668TIP3    H241420   0.736   4.514   4.240  1.4007 -2.0708 -0.4600
 6669TIP3   OH241421   1.090   4.492   1.551  0.1913  0.0043  0.2250
 6669TIP3    H141422   1.112   4.427   1.485 -0.0308 -0.0011  0.1563
 6669TIP3    H241423   1.174   4.512   1.594  0.2701 -0.2856  0.2116
 6670TIP3   OH241424   0.533   4.089  11.943 -0.9154  0.0326  0.4929
 6670TIP3    H141425   0.624   4.079  11.915 -1.6028 -0.0323 -1.7981
 6670TIP3    H241426   0.529   4.044  12.027  1.3716  0.7884  1.0577
 6671TIP3   OH241427   2.008   0.574  14.289 -0.0270  0.0251  0.6816
 6671TIP3    H141428   1.949   0.625  14.234 -2.0673 -4.4438 -1.5052
 6671TIP3    H241429   2.083   0.555  14.233 -1.8697 -4.0805 -0.6092
 6672TIP3   OH241430   0.584   6.758  16.195 -0.0707  0.1266  0.1960
 6672TIP3    H141431   0.558   6.821  16.128  0.8178  1.1824  0.8245
 6672TIP3    H241432   0.597   6.676  16.147 -5.1427 -0.6754 -0.0548
 6673TIP3   OH241433   2.631   5.747  12.827 -0.0560 -0.0076  0.7171
 6673TIP3    H141434   2.545   5.708  12.847  0.3760 -0.0089  2.6985
 6673TIP3    H241435   2.685   5.673  12.802 -0.1747 -0.2379  1.1324
 6674TIP3   OH241436   3.408   1.439   2.068 -0.4848  0.1374  0.2159
 6674TIP3    H141437   3.417   1.405   2.158 -1.4389  0.7387  0.5440
 6674TIP3    H241438   3.361   1.521   2.078 -0.7295  0.1335 -0.8626
 6675TIP3   OH241439   1.690   6.367  13.413  0.7746 -0.5122 -0.0869
 6675TIP3    H141440   1.770   6.337  13.370  0.8995 -0.1994 -0.0773
 6675TIP3    H241441   1.647   6.287  13.444  1.8480 -0.5967  1.2541
 6676TIP3   OH241442   1.848   2.828   6.461 -0.2980  0.0301 -0.6558
 6676TIP3    H141443   1.786   2.788   6.523 -0.0407  0.3315 -0.1966
 6676TIP3    H241444   1.927   2.842   6.513 -0.3815  1.1231 -0.8178
 6677TIP3   OH241445   4.108   2.964   0.493 -0.2400  0.6425 -0.2714
 6677TIP3    H141446   4.036   2.902   0.482  0.6917 -0.4351 -0.3322
 6677TIP3    H241447   4.132   2.989   0.404 -0.9738  1.5258 -0.2321
 6678TIP3   OH241448   2.197   3.161  11.779  0.1966  0.3463  0.3051
 6678TIP3    H141449   2.284   3.138  11.813 -0.5574 -0.6010  1.6294
 6678TIP3    H241450   2.152   3.201  11.853 -1.1558 -0.9297  0.1975
 6679TIP3   OH241451   5.173   1.474  12.027  0.2670 -0.5732 -0.3148
 6679TIP3    H141452   5.206   1.415  11.959 -1.4453  0.8283 -2.4557
 6679TIP3    H241453   5.223   1.555  12.015  1.0577 -0.8405  1.1421
 6680TIP3   OH241454   1.397   0.943  16.990 -0.1298 -0.4209  0.2940
 6680TIP3    H141455   1.370   0.991  16.911 -0.5516 -1.1231  0.0089
 6680TIP3    H241456   1.493   0.942  16.985 -0.1867 -2.1621 -1.2580
 6681TIP3   OH241457   1.058   4.340  12.892 -0.0150 -0.5973  0.3857
 6681TIP3    H141458   1.023   4.312  12.976  0.9521  0.9315  1.3229
 6681TIP3    H241459   0.996   4.306  12.828 -0.3147 -2.4965  1.6385
 6682TIP3   OH241460   2.902   5.907   2.768 -0.0255  0.1726 -0.0611
 6682TIP3    H141461   2.951   5.979   2.809  0.2099 -0.3626  0.6121
 6682TIP3    H241462   2.883   5.847   2.840 -0.6739 -0.1883 -0.5289
 6683TIP3   OH241463   5.888   0.973   2.378 -0.1281 -0.1622  0.2930
 6683TIP3    H141464   5.960   0.911   2.392 -0.4331 -0.4910  0.4068
 6683TIP3    H241465   5.910   1.017   2.296  0.7356  0.4741  0.8559
 6684TIP3   OH241466   3.146   5.781   3.757  0.7932  0.9387 -0.0455
 6684TIP3    H141467   3.069   5.799   3.812 -0.0860  1.3598 -1.4011
 6684TIP3    H241468   3.217   5.767   3.820 -0.8348 -1.5988  1.3079
 6685TIP3   OH241469   3.783   2.776   3.470 -0.0778  0.5977 -0.5018
 6685TIP3    H141470   3.761   2.726   3.548  1.3245  0.0199 -0.4584
 6685TIP3    H241471   3.807   2.863   3.503  0.8160  0.2626 -0.2471
 6686TIP3   OH241472   4.620   5.147   3.660  0.0616  0.2622 -0.2698
 6686TIP3    H141473   4.561   5.223   3.667 -1.2659 -0.7732  0.1541
 6686TIP3    H241474   4.573   5.077   3.705  0.4814 -1.2775 -2.1788
 6687TIP3   OH241475   4.762   5.412  12.435  0.1060  0.3955 -0.5529
 6687TIP3    H141476   4.799   5.493  12.400 -0.3567  0.7829 -0.1587
 6687TIP3    H241477   4.684   5.440  12.482  0.7232 -0.0931  0.8176
 6688TIP3   OH241478   2.291   3.248   3.576 -0.2676  0.5125 -0.0926
 6688TIP3    H141479   2.266   3.190   3.504  1.2277  0.1493 -0.3337
 6688TIP3    H241480   2.208   3.285   3.607 -1.0256 -0.1451 -1.2998
 6689TIP3   OH241481   1.643   0.389  13.490  0.6098  0.1837  0.2671
 6689TIP3    H141482   1.713   0.386  13.556  1.9161 -1.6181 -1.1719
 6689TIP3    H241483   1.632   0.298  13.463 -1.8911  0.5386  0.0264
 6690TIP3   OH241484   0.268   1.793  11.681  0.5695  0.1842 -0.1789
 6690TIP3    H141485   0.228   1.787  11.594 -0.6008  0.2077  0.3551
 6690TIP3    H241486   0.253   1.883  11.709 -1.3399 -0.5206  1.1295
 6691TIP3   OH241487   6.325   5.441   2.621  0.4706 -0.1393 -0.0765
 6691TIP3    H141488   6.263   5.456   2.550 -0.4773  0.5464  0.8703
 6691TIP3    H241489   6.402   5.491   2.596  0.3257 -0.2931 -0.8530
 6692TIP3   OH241490   2.962   6.760  13.533 -0.9366  0.8728  0.3701
 6692TIP3    H141491   2.986   6.799  13.617 -0.6073 -0.2391  0.7947
 6692TIP3    H241492   3.029   6.790  13.472  1.0393 -1.4327  1.3377
 6693TIP3   OH241493   1.365   4.771   1.743 -0.3910 -0.1449 -0.5032
 6693TIP3    H141494   1.289   4.827   1.760  1.2246  2.3800 -1.3034
 6693TIP3    H241495   1.424   4.786   1.816  0.1913 -0.5906 -0.8733
 6694TIP3   OH241496   6.654   5.068  16.451  0.1667 -0.6094  0.1898
 6694TIP3    H141497   6.580   5.104  16.501  1.3141  0.3530  1.2283
 6694TIP3    H241498   6.717   5.040  16.518  1.4364  0.0803 -0.6839
 6695TIP3   OH241499   1.868   6.637  12.737  0.0047  0.2790 -0.1047
 6695TIP3    H141500   1.936   6.612  12.675  0.7413  0.2148  0.7301
 6695TIP3    H241501   1.878   6.731  12.747 -0.6244  0.4141 -0.6787
 6696TIP3   OH241502   2.760   2.607  14.945 -0.1059  0.1671 -0.1354
 6696TIP3    H141503   2.745   2.644  14.858 -1.0276 -2.6768 -1.2244
 6696TIP3    H241504   2.852   2.583  14.946  0.5124  2.4095  0.5964
 6697TIP3   OH241505   3.370   2.768   3.061 -0.1716  0.6170 -0.1466
 6697TIP3    H141506   3.282   2.755   3.097  0.1804 -0.4615  0.3347
 6697TIP3    H241507   3.420   2.805   3.134  0.2983 -0.6913  0.2133
 6698TIP3   OH241508   3.920   3.150   0.336  0.5646  0.2373  0.0356
 6698TIP3    H141509   3.980   3.077   0.324  1.0180  0.5759  0.2510
 6698TIP3    H241510   3.860   3.120   0.405 -1.0049 -1.0356 -1.8062
 6699TIP3   OH241511   4.173   5.961  11.633 -0.6000 -0.6007  0.3108
 6699TIP3    H141512   4.144   5.900  11.565 -0.4010 -1.8048  1.2995
 6699TIP3    H241513   4.267   5.945  11.640 -0.4668  0.1549  0.2447
 6700TIP3   OH241514   1.636   6.780  16.483 -0.0168 -0.6031 -0.1424
 6700TIP3    H141515   1.716   6.729  16.498 -1.1966 -2.0038  1.4526
 6700TIP3    H241516   1.658   6.868  16.515  1.9228 -0.0871 -2.6360
 6701TIP3   OH241517   6.162   5.331   3.096  0.2165  0.0008 -0.4349
 6701TIP3    H141518   6.176   5.304   3.005 -0.1527  1.8181 -1.0573
 6701TIP3    H241519   6.079   5.291   3.120  1.7050 -2.9175  0.1095
 6702TIP3   OH241520   0.591   4.483   3.957  0.6487  0.0006 -0.3748
 6702TIP3    H141521   0.602   4.405   3.904 -0.4852 -1.0653  0.9141
 6702TIP3    H241522   0.503   4.515   3.935 -0.2888 -1.0814  1.6112
 6703TIP3   OH241523   0.433   3.906  15.954  0.0730 -0.2129 -0.6031
 6703TIP3    H141524   0.449   3.985  16.005 -0.0815 -1.7015  1.8063
 6703TIP3    H241525   0.508   3.899  15.895  0.4478  1.3105 -0.3056
 6704TIP3   OH241526   6.150   5.931  15.774  0.1811 -0.1424 -0.6558
 6704TIP3    H141527   6.083   5.888  15.720 -0.7521  1.4524 -0.8014
 6704TIP3    H241528   6.172   6.011  15.725  0.6991  0.3638  0.3952
 6705TIP3   OH241529   2.424   4.265  13.495  0.4876  0.2003  0.7602
 6705TIP3    H141530   2.363   4.337  13.484  1.4460  1.2300  2.0534
 6705TIP3    H241531   2.376   4.200  13.546 -0.2965  0.0179 -0.2007
 6706TIP3   OH241532   2.360   4.139  16.968  0.2908  0.1910 -0.4073
 6706TIP3    H141533   2.338   4.181  17.051  1.6200 -0.2058  0.1636
 6706TIP3    H241534   2.369   4.212  16.906  0.1863  0.5576  0.0043
 6707TIP3   OH241535   3.429   2.471  12.091 -0.1394 -0.0418  0.0126
 6707TIP3    H141536   3.452   2.563  12.102  1.9072 -0.2803 -2.0360
 6707TIP3    H241537   3.343   2.472  12.049 -0.2961  0.9192  0.3451
 6708TIP3   OH241538   0.917   6.629  12.595  0.3989 -0.2702  0.1377
 6708TIP3    H141539   0.964   6.556  12.635  0.7830  0.1178  0.3875
 6708TIP3    H241540   0.926   6.615  12.501  0.1955 -0.7248  0.1843
 6709TIP3   OH241541   0.315   5.522  11.353  0.4706  0.1813  0.9718
 6709TIP3    H141542   0.347   5.459  11.288 -1.0322  1.7306 -1.3259
 6709TIP3    H241543   0.223   5.501  11.364  0.5123  0.4910  1.9748
 6710TIP3   OH241544   4.166   4.509   6.313 -0.4605 -0.3698  0.1393
 6710TIP3    H141545   4.251   4.552   6.318 -0.7989  0.5965 -1.7032
 6710TIP3    H241546   4.185   4.416   6.323  0.9270 -0.2453 -1.1406
 6711TIP3   OH241547   0.486   2.580   4.004 -1.1682 -0.8327 -0.5559
 6711TIP3    H141548   0.470   2.561   4.096 -2.6479  0.3487 -0.5560
 6711TIP3    H241549   0.400   2.602   3.968 -0.4324 -0.1542 -1.9555
 6712TIP3   OH241550   3.644   2.682   0.421  0.5283 -0.6030  0.4578
 6712TIP3    H141551   3.552   2.691   0.396  0.3323 -1.3683  0.8935
 6712TIP3    H241552   3.650   2.594   0.458  1.5685 -0.7800 -0.1246
 6713TIP3   OH241553   6.510   6.400   2.964 -0.5659  0.0381 -0.1622
 6713TIP3    H141554   6.548   6.487   2.961 -1.4357  0.3883 -1.5137
 6713TIP3    H241555   6.479   6.384   2.874  0.0628 -1.8673 -0.0581
 6714TIP3   OH241556   4.606   1.256  14.360  0.0774 -0.0632 -0.1056
 6714TIP3    H141557   4.687   1.233  14.406 -0.1610 -0.3687  0.1654
 6714TIP3    H241558   4.584   1.343  14.392  0.5651  0.2258 -0.5525
 6715TIP3   OH241559   6.580   4.674   0.071 -0.4497 -0.0253  0.0043
 6715TIP3    H141560   6.580   4.751   0.013  0.4189 -0.6512 -0.8560
 6715TIP3    H241561   6.650   4.619   0.036  0.1007 -0.4198  1.6652
 6716TIP3   OH241562   1.943   2.802   4.831  0.7762 -0.1402 -0.5460
 6716TIP3    H141563   1.897   2.808   4.914 -0.5474 -1.8417 -1.1150
 6716TIP3    H241564   1.910   2.876   4.780  1.0808  0.5082  0.1845
 6717TIP3   OH241565   4.371   3.975  16.674  0.4571 -0.6901 -0.6101
 6717TIP3    H141566   4.455   4.020  16.662  1.7524 -2.2155  2.2284
 6717TIP3    H241567   4.380   3.895  16.623  0.7169 -0.8225 -0.3604
 6718TIP3   OH241568   2.418   2.538   5.141 -0.0035  0.1152  0.2156
 6718TIP3    H141569   2.412   2.448   5.108 -1.6594 -0.9734  3.2272
 6718TIP3    H241570   2.346   2.584   5.099  1.2052  0.2249 -1.7964
 6719TIP3   OH241571   3.286   4.619   1.425  0.3568 -0.2579  0.0505
 6719TIP3    H141572   3.346   4.616   1.351  1.0554 -0.9293  0.6392
 6719TIP3    H241573   3.299   4.705   1.464 -1.3462  0.8335 -1.6945
 6720TIP3   OH241574   5.060   6.553  11.179 -0.1551  0.7901  0.0526
 6720TIP3    H141575   5.082   6.647  11.182  0.3922  0.6638  0.0407
 6720TIP3    H241576   4.966   6.551  11.158 -0.2601  1.3434  0.4659
 6721TIP3   OH241577   1.919   4.012   1.400 -0.3209  0.2084  0.5227
 6721TIP3    H141578   1.871   3.942   1.445  0.2605 -0.8351 -0.4766
 6721TIP3    H241579   1.933   3.979   1.312  1.8929  0.6585  0.6725
 6722TIP3   OH241580   0.729   3.769   1.008  0.4977  0.1545 -0.3486
 6722TIP3    H141581   0.771   3.813   1.083  0.4727  0.3319 -0.4373
 6722TIP3    H241582   0.638   3.799   1.011  0.4409 -0.0236 -0.3121
 6723TIP3   OH241583   3.961   0.323   1.049  0.9349 -0.0608 -0.2145
 6723TIP3    H141584   3.972   0.255   0.982 -1.0422  0.2637 -0.9062
 6723TIP3    H241585   3.890   0.290   1.104  1.2751  0.5625  0.6066
 6724TIP3   OH241586   6.317   4.165  14.601 -0.2381  0.6880 -0.3404
 6724TIP3    H141587   6.251   4.106  14.566  1.4372 -0.3127 -1.9203
 6724TIP3    H241588   6.328   4.232  14.534  3.4287 -1.5763 -2.1744
 6725TIP3   OH241589   5.284   6.117  10.469 -0.5334  0.0943  0.6034
 6725TIP3    H141590   5.318   6.158  10.390 -2.0209 -0.5393 -0.3861
 6725TIP3    H241591   5.362   6.098  10.522  0.6733 -1.4625 -1.6610
 6726TIP3   OH241592   1.930   5.839  10.782 -0.3635  0.7550  0.5146
 6726TIP3    H141593   1.942   5.918  10.835  0.5798 -1.4833  3.8248
 6726TIP3    H241594   1.847   5.802  10.812  0.6203 -1.0182  1.1407
 6727TIP3   OH241595   5.267   4.430  16.774  0.6310 -0.0502 -0.2645
 6727TIP3    H141596   5.287   4.519  16.746  1.5646 -0.0595  0.3645
 6727TIP3    H241597   5.334   4.409  16.839  0.4054 -1.2038 -0.3930
 6728TIP3   OH241598   0.000   6.592   1.866  0.6859  0.0555 -0.1736
 6728TIP3    H141599  -0.009   6.499   1.847  0.1694  0.4329 -1.9026
 6728TIP3    H241600  -0.082   6.631   1.837 -0.0108  0.7549  2.6575
 6729TIP3   OH241601   6.651   5.512   1.901 -0.2671 -0.1809  0.0563
 6729TIP3    H141602   6.727   5.457   1.880  0.2583  1.0747 -1.4877
 6729TIP3    H241603   6.688   5.594   1.933 -1.0255 -0.4153  1.5651
 6730TIP3   OH241604   4.731   4.954   0.102  0.4575 -0.0105  0.0674
 6730TIP3    H141605   4.716   5.005   0.023 -0.1272  0.6083  0.5782
 6730TIP3    H241606   4.704   4.865   0.079  0.0205  0.2273 -0.3348
 6731TIP3   OH241607   6.133   0.951   1.587 -0.0179  0.1276  0.1173
 6731TIP3    H141608   6.098   0.938   1.499  0.4469 -0.4216  0.0044
 6731TIP3    H241609   6.215   0.998   1.573  0.1350 -0.1004  0.2422
 6732TIP3   OH241610   1.052   1.511   5.751 -0.5683  0.4588 -0.4856
 6732TIP3    H141611   1.086   1.531   5.664 -0.3144  0.4885 -0.3807
 6732TIP3    H241612   0.977   1.454   5.735 -1.6869  1.9956 -0.8081
 6733TIP3   OH241613   3.611   6.625  16.603  0.2706  0.1888 -0.2590
 6733TIP3    H141614   3.552   6.660  16.537  0.2520 -3.6995 -2.4321
 6733TIP3    H241615   3.654   6.550  16.561  2.6579 -0.4592  3.0690
 6734TIP3   OH241616   4.179   3.599   0.328  0.5521  0.0174 -0.1656
 6734TIP3    H141617   4.221   3.626   0.410 -2.3771  1.5719  0.8857
 6734TIP3    H241618   4.168   3.680   0.279  2.0860 -0.8771 -2.0507
 6735TIP3   OH241619   0.846   2.327   6.369  0.4556  0.3866  0.1873
 6735TIP3    H141620   0.887   2.414   6.372  2.9342 -0.7403  0.9749
 6735TIP3    H241621   0.918   2.268   6.348 -1.3177 -1.4228 -0.9289
 6736TIP3   OH241622   6.784   5.201  12.793 -0.3615 -0.0682 -0.5178
 6736TIP3    H141623   6.751   5.128  12.846 -0.3352 -0.6314 -1.2538
 6736TIP3    H241624   6.863   5.166  12.752  0.2093  0.7163 -0.0951
 6737TIP3   OH241625   0.951   2.556  13.757  0.6627  0.0470  0.4379
 6737TIP3    H141626   0.911   2.473  13.783 -0.8365  0.5350 -0.2356
 6737TIP3    H241627   0.879   2.606  13.718  1.6852  1.4180  0.2655
 6738TIP3   OH241628   5.515   4.807  14.692  0.1237  0.0099  0.2759
 6738TIP3    H141629   5.520   4.902  14.681 -0.5477  0.2096  1.5053
 6738TIP3    H241630   5.507   4.772  14.604  0.1095  1.1253 -0.1663
 6739TIP3   OH241631   5.051   1.396   0.586 -0.3437  0.0631 -0.2156
 6739TIP3    H141632   5.000   1.444   0.652  1.0162  0.7087  0.3926
 6739TIP3    H241633   5.086   1.464   0.529  1.8328 -0.1602  0.8159
 6740TIP3   OH241634   3.065   1.105  12.943 -0.5289  0.1895 -0.2328
 6740TIP3    H141635   3.064   1.080  13.035  1.4068 -0.0640 -0.2662
 6740TIP3    H241636   3.032   1.194  12.941 -1.0085  0.0307  0.6588
 6741TIP3   OH241637   5.140   3.664   2.689 -0.3600 -0.0757  0.4149
 6741TIP3    H141638   5.065   3.646   2.746 -1.0410  1.5898  0.0781
 6741TIP3    H241639   5.101   3.683   2.603  0.6299 -2.1794 -0.5268
 6742TIP3   OH241640   4.627   1.440  16.728  0.0448 -0.5894 -0.4744
 6742TIP3    H141641   4.585   1.406  16.806  1.4343 -1.0659  0.0788
 6742TIP3    H241642   4.716   1.463  16.756 -0.0941  1.2367 -1.3974
 6743TIP3   OH241643   5.810   6.446  14.750 -0.5689  0.5548  0.2805
 6743TIP3    H141644   5.800   6.357  14.784  0.9481  0.7281  1.2396
 6743TIP3    H241645   5.858   6.435  14.667  0.0420  0.4941  0.6330
 6744TIP3   OH241646   0.627   4.018  12.831  0.5911  0.1401 -0.2230
 6744TIP3    H141647   0.599   3.979  12.748  1.1805 -0.0384 -0.3419
 6744TIP3    H241648   0.680   3.949  12.872 -1.9833 -0.8120  1.5651
 6745TIP3   OH241649   0.202   0.135  13.657 -0.4012 -0.4209  0.5100
 6745TIP3    H141650   0.258   0.059  13.652 -2.1744 -1.6296 -2.3196
 6745TIP3    H241651   0.260   0.210  13.643  1.0976 -1.3102  1.8517
 6746TIP3   OH241652   5.170   6.382   0.166 -0.1056  0.5916  0.1372
 6746TIP3    H141653   5.175   6.476   0.148 -0.6131  0.3090 -1.5274
 6746TIP3    H241654   5.080   6.358   0.143  0.3305 -0.5080 -0.4495
 6747TIP3   OH241655   2.576   0.808  16.983 -0.0324  0.3987  0.4715
 6747TIP3    H141656   2.511   0.755  16.937  1.6685 -0.0096 -1.5649
 6747TIP3    H241657   2.637   0.744  17.019  1.8359  0.8835 -1.6946
 6748TIP3   OH241658   6.657   5.701   2.881  0.9035  0.0239 -0.0345
 6748TIP3    H141659   6.594   5.752   2.932  0.2498  0.1960 -1.0037
 6748TIP3    H241660   6.711   5.767   2.837  0.6274 -0.1156 -0.5868
 6749TIP3   OH241661   3.878   2.385   0.091 -0.2061  0.2102  0.4700
 6749TIP3    H141662   3.852   2.451   0.155  0.1860 -0.5151  1.3861
 6749TIP3    H241663   3.808   2.385   0.026 -0.8181  0.6563  1.1260
 6750TIP3   OH241664   0.190   6.499   2.414 -0.9079 -0.0169  0.6334
 6750TIP3    H141665   0.141   6.425   2.378  0.0410  0.0009 -0.7325
 6750TIP3    H241666   0.248   6.459   2.479  1.6567 -0.9631 -2.0803
 6751TIP3   OH241667   0.606   1.076  12.989 -0.4551  0.5252 -0.2446
 6751TIP3    H141668   0.667   1.067  13.062  1.8220  0.5232 -2.0821
 6751TIP3    H241669   0.546   1.002  12.998  0.5734 -0.1729  0.9228
 6752TIP3   OH241670   3.803   3.410   3.107 -0.4327 -0.3980 -0.1944
 6752TIP3    H141671   3.761   3.496   3.119 -0.3953 -0.3029 -0.7604
 6752TIP3    H241672   3.897   3.430   3.106 -0.4615 -0.3049 -1.4866
 6753TIP3   OH241673   3.546   5.629  12.008  0.5900 -0.1662 -0.2300
 6753TIP3    H141674   3.545   5.717  12.045  1.3019 -0.2992  0.0993
 6753TIP3    H241675   3.476   5.582  12.054  0.6999  0.0076  0.1108
 6754TIP3   OH241676   1.105   1.570  17.035  0.2845 -0.1928  0.1749
 6754TIP3    H141677   1.197   1.563  17.059  0.6267 -3.7334 -1.8458
 6754TIP3    H241678   1.107   1.605  16.945 -0.5220  2.2383  1.0487
 6755TIP3   OH241679   3.488   4.940   3.399 -0.0507 -0.4484 -0.1838
 6755TIP3    H141680   3.429   4.867   3.419 -1.6441  1.3142  1.6970
 6755TIP3    H241681   3.560   4.930   3.462 -0.6113 -0.0395  0.5362
 6756TIP3   OH241682   0.726   2.976   5.878 -0.2370 -0.3580  0.3998
 6756TIP3    H141683   0.819   2.959   5.865 -0.5072 -0.2718 -1.7314
 6756TIP3    H241684   0.723   3.062   5.920  0.5955  0.2476 -0.7751
 6757TIP3   OH241685   0.021   0.536  12.526 -0.3276  0.1065  0.5290
 6757TIP3    H141686   0.067   0.455  12.548 -0.2383 -0.1343 -0.4763
 6757TIP3    H241687   0.040   0.596  12.598  2.4366  0.3440 -0.3180
 6758TIP3   OH241688   6.236   1.388   1.563  0.3922  0.4236 -0.3464
 6758TIP3    H141689   6.291   1.320   1.524  0.5580  0.4658 -0.1859
 6758TIP3    H241690   6.159   1.392   1.506 -0.1028 -0.6228  0.2289
 6759TIP3   OH241691   1.480   5.690   4.568  0.8200 -0.2634 -0.1668
 6759TIP3    H141692   1.467   5.610   4.619  1.5345 -0.2465  0.0505
 6759TIP3    H241693   1.492   5.659   4.478  2.4231 -0.5233  0.1029
 6760TIP3   OH241694   1.920   6.017  12.820  0.1395  0.4863  0.1717
 6760TIP3    H141695   1.971   6.079  12.770 -1.8283  0.7707 -1.5633
 6760TIP3    H241696   1.832   6.055  12.824 -1.0782 -2.0542 -0.8141
 6761TIP3   OH241697   0.413   4.593   4.299 -0.0156 -0.3718  0.1268
 6761TIP3    H141698   0.483   4.636   4.348 -0.6649  1.0412 -0.1396
 6761TIP3    H241699   0.381   4.661   4.239 -0.4311 -1.5272 -0.9895
 6762TIP3   OH241700   5.659   2.443  11.779 -0.0428  0.3429 -0.2088
 6762TIP3    H141701   5.665   2.517  11.839  0.7151  0.0702  0.0558
 6762TIP3    H241702   5.607   2.476  11.705  1.1138  1.4453 -0.5485
 6763TIP3   OH241703   0.990   5.752   0.306  0.6809  0.1416  0.2050
 6763TIP3    H141704   0.989   5.773   0.399 -1.1534  1.9810 -0.1998
 6763TIP3    H241705   1.020   5.832   0.263 -0.3779 -0.0559 -0.9340
 6764TIP3   OH241706   6.713   4.771   5.200 -0.5308 -0.3738 -0.5781
 6764TIP3    H141707   6.787   4.785   5.259 -1.6631 -0.6703  0.9427
 6764TIP3    H241708   6.656   4.711   5.248 -1.9372  0.1642 -1.5641
 6765TIP3   OH241709   0.145   2.673   4.873  0.4079 -0.1250 -0.2379
 6765TIP3    H141710   0.066   2.720   4.900 -0.0993 -0.8834 -0.4107
 6765TIP3    H241711   0.174   2.629   4.953  1.0032  0.6376 -0.0222
 6766TIP3   OH241712   3.234   0.224   1.287  0.1349 -0.4015 -0.1010
 6766TIP3    H141713   3.193   0.168   1.353  1.0915  0.2822  1.0954
 6766TIP3    H241714   3.327   0.226   1.311  0.0930  1.8698  0.0410
 6767TIP3   OH241715   0.509   3.183  11.646  0.3375 -0.1035 -0.9111
 6767TIP3    H141716   0.446   3.167  11.576 -1.0304  2.1017 -0.2353
 6767TIP3    H241717   0.592   3.197  11.602 -0.5945  1.6823 -2.1353
 6768TIP3   OH241718   2.951   6.178  15.026  0.2688 -0.1002  0.0241
 6768TIP3    H141719   2.957   6.122  15.104 -2.3573  0.8512  0.9808
 6768TIP3    H241720   2.968   6.266  15.059 -0.9844  0.3225 -0.4334
 6769TIP3   OH241721   2.968   4.382   3.630 -0.8810 -0.5987  0.5157
 6769TIP3    H141722   2.935   4.318   3.693  0.3432  0.1225  1.9071
 6769TIP3    H241723   2.913   4.369   3.552  1.3702 -5.5046 -0.4422
 6770TIP3   OH241724   4.715   0.016  14.305 -0.5304 -0.4894 -0.4538
 6770TIP3    H141725   4.744   0.030  14.395  1.8432 -0.7200 -1.1540
 6770TIP3    H241726   4.623   0.044  14.305  0.3291  2.5838  1.2761
 6771TIP3   OH241727   2.939   4.281  13.478  0.1506 -0.0467 -0.1186
 6771TIP3    H141728   2.969   4.284  13.569  0.4500  0.4804 -0.2350
 6771TIP3    H241729   2.844   4.287  13.484  0.3028  3.0896  0.0273
 6772TIP3   OH241730   2.928   3.758   4.434  0.1365 -0.2536  0.2067
 6772TIP3    H141731   2.869   3.804   4.374  0.2650 -0.2245  0.1022
 6772TIP3    H241732   2.909   3.797   4.520  0.5388  0.2894  0.0500
 6773TIP3   OH241733   0.039   4.116  11.297  0.3570 -0.0821 -0.2259
 6773TIP3    H141734   0.005   4.155  11.377  0.6203  0.0673 -0.1844
 6773TIP3    H241735  -0.038   4.085  11.250  0.0066  1.9593 -1.0239
 6774TIP3   OH241736   0.452   5.170  17.109 -0.5034  0.7441 -0.0486
 6774TIP3    H141737   0.492   5.091  17.073 -1.0252  1.1444 -1.5200
 6774TIP3    H241738   0.493   5.180  17.195  2.1285  0.8320 -1.2655
 6775TIP3   OH241739   5.539   0.091  14.591 -0.0817 -0.1017 -0.2158
 6775TIP3    H141740   5.597   0.018  14.609 -1.4787 -0.9732  0.7971
 6775TIP3    H241741   5.597   0.167  14.582  1.1714 -0.8798  1.2304
 6776TIP3   OH241742   2.252   2.078   1.677  0.0322  0.0863 -0.3186
 6776TIP3    H141743   2.288   2.117   1.757 -0.9969  1.7995 -0.6577
 6776TIP3    H241744   2.329   2.054   1.625  0.7226 -1.6411  1.4257
 6777TIP3   OH241745   1.921   4.092  10.883  0.2800 -0.2225 -0.8511
 6777TIP3    H141746   2.000   4.048  10.851 -0.1119  0.8270 -3.3303
 6777TIP3    H241747   1.856   4.023  10.890  0.2981 -0.4444 -2.6285
 6778TIP3   OH241748   4.312   0.893   6.160 -0.7786  0.4135 -0.2811
 6778TIP3    H141749   4.286   0.956   6.228 -2.0545 -1.7216  1.2461
 6778TIP3    H241750   4.231   0.847   6.138  0.2325 -0.9967 -1.0555
 6779TIP3   OH241751   6.765   3.707   4.961  0.0947 -0.2463  0.6093
 6779TIP3    H141752   6.755   3.694   5.055  2.2074 -0.5791  0.8060
 6779TIP3    H241753   6.830   3.777   4.953 -0.4676  0.1656 -0.6145
 6780TIP3   OH241754   0.034   5.526  14.145  0.1359  0.2708  0.3380
 6780TIP3    H141755  -0.039   5.587  14.143  0.4396  0.6373  0.2053
 6780TIP3    H241756   0.063   5.526  14.237  1.7897  2.3473 -0.1187
 6781TIP3   OH241757   3.027   0.564   0.726 -0.1259 -0.1414  0.5875
 6781TIP3    H141758   3.119   0.580   0.745  1.2959 -5.8216 -0.6895
 6781TIP3    H241759   3.017   0.587   0.633  0.4455 -1.0512  0.2938
 6782TIP3   OH241760   0.003   3.316   4.924 -0.0958 -0.6041 -0.3315
 6782TIP3    H141761  -0.006   3.221   4.917 -1.0174 -0.5049 -0.5288
 6782TIP3    H241762   0.056   3.329   5.002  1.1445 -1.3246 -1.0287
 6783TIP3   OH241763   4.350   5.817   5.178 -0.0513  0.4892 -0.6672
 6783TIP3    H141764   4.256   5.802   5.172  0.1401 -0.6910 -0.8595
 6783TIP3    H241765   4.358   5.908   5.206 -1.2632  0.2810  0.3930
 6784TIP3   OH241766   2.070   1.073  15.853  0.5655  0.1793 -0.2627
 6784TIP3    H141767   2.085   0.993  15.902 -0.9494  0.3080  0.4439
 6784TIP3    H241768   2.146   1.081  15.795  0.6608 -1.8220 -0.4357
 6785TIP3   OH241769   2.079   6.475  11.118  0.5609  0.6977 -0.1641
 6785TIP3    H141770   2.127   6.451  11.039 -1.2035 -0.2351 -0.9880
 6785TIP3    H241771   2.004   6.416  11.119  1.6495 -0.7478  3.3378
 6786TIP3   OH241772   0.860   3.683   3.409  0.1743  0.1498 -0.5387
 6786TIP3    H141773   0.804   3.693   3.486  1.1810 -0.8465  0.3447
 6786TIP3    H241774   0.806   3.638   3.345 -0.8584  1.4885 -0.6243
 6787TIP3   OH241775   5.177   3.673  16.472 -0.2365  0.1569  0.2720
 6787TIP3    H141776   5.147   3.754  16.514 -0.5445  0.5489 -0.7001
 6787TIP3    H241777   5.272   3.673  16.486 -0.1513  0.9970 -0.2596
 6788TIP3   OH241778   2.502   2.337   3.388 -0.3998 -0.3434 -0.0903
 6788TIP3    H141779   2.561   2.411   3.376  1.5578 -1.5892  1.4035
 6788TIP3    H241780   2.471   2.346   3.479 -1.9496 -0.1047 -0.6310
 6789TIP3   OH241781   1.497   4.328  15.103  0.2860  0.3440 -1.3666
 6789TIP3    H141782   1.579   4.305  15.059  0.2427 -0.5728 -0.9716
 6789TIP3    H241783   1.437   4.353  15.032  0.1022 -1.4657 -1.8682
 6790TIP3   OH241784   1.480   4.506  16.930  0.2465 -0.2948  0.0755
 6790TIP3    H141785   1.559   4.484  16.881 -0.1778 -1.8017  0.0197
 6790TIP3    H241786   1.418   4.436  16.907 -1.5169  1.5061 -0.8461
 6791TIP3   OH241787   0.356   0.493   5.930  0.1709  0.3942  0.2200
 6791TIP3    H141788   0.365   0.480   5.836 -1.9709  1.1475 -0.1169
 6791TIP3    H241789   0.396   0.415   5.969  0.5112 -0.2156 -1.3177
 6792TIP3   OH241790   1.408   1.897   0.204  0.1534  0.1340 -0.1000
 6792TIP3    H141791   1.366   1.946   0.133  0.5373  1.4383  0.5595
 6792TIP3    H241792   1.359   1.815   0.208 -1.9248  1.3627  0.2132
 6793TIP3   OH241793   2.057   3.070   3.991  0.0353  0.0073 -0.2593
 6793TIP3    H141794   2.148   3.083   3.966  0.4331 -0.3891  0.9583
 6793TIP3    H241795   2.047   3.119   4.073 -1.2924  1.4300 -1.2372
 6794TIP3   OH241796   3.311   2.379  12.675  0.1546 -0.4057 -0.1397
 6794TIP3    H141797   3.301   2.449  12.739  0.3714 -0.9530  0.5006
 6794TIP3    H241798   3.396   2.395  12.634  0.0778 -0.1357 -0.1927
 6795TIP3   OH241799   2.486   4.485  16.546  0.5839  0.2143  0.3063
 6795TIP3    H141800   2.558   4.547  16.559  0.4301  0.3855  0.3334
 6795TIP3    H241801   2.422   4.533  16.493 -0.3479  0.6962  1.8384
 6796TIP3   OH241802   0.920   3.320  11.182 -0.3602  0.0159  0.3800
 6796TIP3    H141803   0.998   3.341  11.234  0.1267 -0.8333  0.0139
 6796TIP3    H241804   0.849   3.366  11.226  0.1827 -0.0152  1.3209
 6797TIP3   OH241805   1.969   3.926  16.127  0.5062  0.0289 -0.2913
 6797TIP3    H141806   1.967   3.958  16.037  2.0162  1.3484  0.1136
 6797TIP3    H241807   1.962   3.831  16.120  2.7900 -0.0647 -1.9389
 6798TIP3   OH241808   6.371   4.087   6.037 -0.3056 -0.1567  0.7449
 6798TIP3    H141809   6.324   4.030   5.976 -1.5526  0.2407  1.3203
 6798TIP3    H241810   6.461   4.055   6.034 -0.5386 -0.7537 -0.5800
 6799TIP3   OH241811   6.188   3.966   3.479 -0.5457  0.2746  0.2088
 6799TIP3    H141812   6.280   3.968   3.505 -0.1712 -1.7122 -0.9084
 6799TIP3    H241813   6.144   4.022   3.543  0.9559 -1.3088  2.6934
 6800TIP3   OH241814   5.474   0.461   2.433 -0.6943  0.3118  0.4281
 6800TIP3    H141815   5.490   0.553   2.413 -0.8495  0.0429 -0.9833
 6800TIP3    H241816   5.389   0.442   2.393 -0.1311 -0.7387 -0.2857
 6801TIP3   OH241817   6.643   3.677   4.719 -0.4203  0.1344 -0.0962
 6801TIP3    H141818   6.680   3.654   4.804 -0.4666  0.1589 -0.0691
 6801TIP3    H241819   6.719   3.705   4.666 -0.5098  0.9833  0.2200
 6802TIP3   OH241820   0.128   5.820   4.269  0.0553 -0.5138 -0.2428
 6802TIP3    H141821   0.106   5.910   4.291 -2.4223 -0.5736 -2.3260
 6802TIP3    H241822   0.163   5.824   4.180  1.2858 -1.4346  0.1787
 6803TIP3   OH241823   4.269   6.241   2.488  0.2435  0.4342 -0.0593
 6803TIP3    H141824   4.349   6.203   2.526  1.2731  1.0401 -1.5779
 6803TIP3    H241825   4.199   6.207   2.543  1.1193 -3.5658 -1.1972
 6804TIP3   OH241826   5.179   6.555  14.646 -0.7442  0.1002 -0.2348
 6804TIP3    H141827   5.200   6.637  14.691 -0.9672  0.3808 -0.6291
 6804TIP3    H241828   5.202   6.486  14.708 -2.2654  0.5131  0.7921
 6805TIP3   OH241829   6.462   5.085   1.107 -0.1514 -0.4499  0.0225
 6805TIP3    H141830   6.367   5.082   1.114 -0.2750 -1.5562 -1.8827
 6805TIP3    H241831   6.493   5.017   1.168 -0.6282 -0.7531 -0.0735
 6806TIP3   OH241832   0.981   6.201   0.344 -0.3336 -0.2428  0.0441
 6806TIP3    H141833   0.946   6.289   0.360  0.6833  0.1190  0.3445
 6806TIP3    H241834   0.951   6.150   0.419 -0.3713  0.0264  0.2156
 6807TIP3   OH241835   2.895   0.064   0.641 -0.0232  0.0491  0.2564
 6807TIP3    H141836   2.849   0.068   0.556  1.3721 -1.3352 -0.5855
 6807TIP3    H241837   2.941   0.148   0.647 -1.9262  1.0983  0.7090
 6808TIP3   OH241838   5.937   3.917  13.172 -0.0865 -0.9610 -0.1163
 6808TIP3    H141839   5.984   3.942  13.093  0.5313 -1.5390  0.0609
 6808TIP3    H241840   6.005   3.882  13.230 -0.1670  1.4229  1.5133
 6809TIP3   OH241841   2.770   0.231   5.444 -0.3071  0.2452  0.1323
 6809TIP3    H141842   2.808   0.304   5.394 -1.2616  0.3421 -0.4587
 6809TIP3    H241843   2.707   0.191   5.384 -0.9059 -0.1138  0.9928
 6810TIP3   OH241844   6.719   4.561   1.891  0.2515 -0.3219  0.0134
 6810TIP3    H141845   6.699   4.650   1.921  3.5397  0.1795  0.8196
 6810TIP3    H241846   6.649   4.507   1.929 -0.5183  1.5952  1.3890
 6811TIP3   OH241847   2.157   3.638   3.878  0.1420 -0.7991  0.2948
 6811TIP3    H141848   2.125   3.563   3.928 -0.7953 -0.0271  0.8992
 6811TIP3    H241849   2.184   3.701   3.944  0.6179 -0.4739 -0.2024
 6812TIP3   OH241850   5.212   0.741   0.412  0.0168  0.1356  0.5847
 6812TIP3    H141851   5.226   0.749   0.507 -2.2036 -2.5117  1.1913
 6812TIP3    H241852   5.264   0.665   0.387 -1.6985 -0.9521  0.2478
 6813TIP3   OH241853   5.201   0.353  14.904  0.5329  0.4403 -0.7753
 6813TIP3    H141854   5.273   0.409  14.933  0.8137 -0.1715 -0.2786
 6813TIP3    H241855   5.241   0.295  14.839  1.0489 -1.4399  1.1517
 6814TIP3   OH241856   1.970   4.420   3.936 -0.0349  0.7144 -0.1816
 6814TIP3    H141857   1.950   4.327   3.922  0.7283  0.4328  0.5010
 6814TIP3    H241858   2.000   4.451   3.851  0.7505  0.0509 -0.1578
 6815TIP3   OH241859   4.312   3.325   0.560 -0.3941  0.0956 -0.1638
 6815TIP3    H141860   4.222   3.358   0.559  0.0466  1.3930  1.2918
 6815TIP3    H241861   4.307   3.244   0.610 -0.7926  0.0551 -0.2661
 6816TIP3   OH241862   0.544   6.544  11.209 -0.3264  0.0733 -0.1898
 6816TIP3    H141863   0.500   6.627  11.194 -0.7126 -0.0894  0.0238
 6816TIP3    H241864   0.577   6.550  11.299 -1.3255 -0.4288  0.2318
 6817TIP3   OH241865   2.902   4.471  13.984  0.4080 -0.0483 -0.1269
 6817TIP3    H141866   2.882   4.564  13.982 -0.6377 -0.2814 -1.9847
 6817TIP3    H241867   2.858   4.438  14.062 -0.0763  0.8175 -0.0322
 6818TIP3   OH241868   0.772   3.791   5.780  0.3476 -0.3648  0.0833
 6818TIP3    H141869   0.738   3.713   5.823  1.3771 -0.7953  0.1471
 6818TIP3    H241870   0.841   3.758   5.723  0.2221  0.4091 -0.5243
 6819TIP3   OH241871   6.618   6.403  11.804  0.3518 -0.2551 -0.2818
 6819TIP3    H141872   6.597   6.465  11.873 -0.6634 -1.4436  0.5060
 6819TIP3    H241873   6.584   6.319  11.836  0.7433 -1.0106 -1.7872
 6820TIP3   OH241874   2.658   6.639  15.101 -0.9420 -0.1863 -0.3029
 6820TIP3    H141875   2.621   6.707  15.158  1.1393  0.0753  0.7441
 6820TIP3    H241876   2.731   6.682  15.056 -1.1666 -1.0318 -1.5203
 6821TIP3   OH241877   1.289   2.350   0.733  0.2289 -0.2832 -0.6898
 6821TIP3    H141878   1.263   2.404   0.659 -0.6513  0.7892  0.3800
 6821TIP3    H241879   1.381   2.331   0.719  0.4143  1.0857 -1.3369
 6822TIP3   OH241880   2.906   0.454  15.970  0.0149  0.3159  0.3853
 6822TIP3    H141881   2.989   0.407  15.967 -0.0060  0.2422  1.1099
 6822TIP3    H241882   2.862   0.423  16.048 -1.2887 -0.6340 -0.6968
 6823TIP3   OH241883   2.731   1.045   6.080  0.4088  0.0741  0.3633
 6823TIP3    H141884   2.701   0.981   6.145  1.9865 -1.3302 -0.2661
 6823TIP3    H241885   2.820   1.067   6.107  0.7759  0.1008 -0.8636
 6824TIP3   OH241886   6.054   5.724   4.660 -0.1110 -0.2647 -0.2880
 6824TIP3    H141887   6.057   5.782   4.585 -2.6575 -0.0545 -0.2866
 6824TIP3    H241888   6.079   5.638   4.626  1.0425  0.2839 -0.8500
 6825TIP3   OH241889   4.242   2.376   3.747  0.3415  0.4028  0.0122
 6825TIP3    H141890   4.194   2.311   3.695 -1.0750  0.6071  1.0333
 6825TIP3    H241891   4.252   2.451   3.687 -1.1878  0.6005 -0.0300
 6826TIP3   OH241892   5.082   3.767  17.136 -0.0509  0.2526  0.0592
 6826TIP3    H141893   5.103   3.703  17.203 -1.1751  0.1309  0.3124
 6826TIP3    H241894   5.155   3.829  17.137  0.2766 -0.1526  0.8981
 6827TIP3   OH241895   6.678   1.824   4.165 -0.7153  0.2437 -0.1976
 6827TIP3    H141896   6.766   1.826   4.203 -0.3157  0.7129 -1.1257
 6827TIP3    H241897   6.684   1.761   4.094 -1.8835 -1.8285  1.5099
 6828TIP3   OH241898   1.731   5.525   3.429 -0.3130  0.7096  0.5985
 6828TIP3    H141899   1.754   5.474   3.507  0.5279  0.0146 -0.0834
 6828TIP3    H241900   1.719   5.614   3.461 -1.5127  0.1393  1.7632
 6829TIP3   OH241901   1.740   4.289  14.095  0.2135  0.1399  0.1535
 6829TIP3    H141902   1.726   4.254  14.007 -0.0692 -1.9925  1.0141
 6829TIP3    H241903   1.666   4.256  14.145  1.0073  0.3346  1.4720
 6830TIP3   OH241904   0.862   3.506   2.413 -0.6309 -0.2227  0.0720
 6830TIP3    H141905   0.854   3.467   2.326 -1.1997  0.3681 -0.1431
 6830TIP3    H241906   0.846   3.599   2.398  1.0618  0.1532  0.5198
 6831TIP3   OH241907   1.944   2.088   4.819 -0.7633 -0.0416  0.1904
 6831TIP3    H141908   1.920   2.114   4.730  2.5359  0.2334 -0.6775
 6831TIP3    H241909   1.950   2.171   4.866 -1.2157 -0.0931  0.3427
 6832TIP3   OH241910   5.151   1.659   5.707 -0.1218  0.0847  0.1758
 6832TIP3    H141911   5.145   1.567   5.681  1.2432  0.7096 -2.5397
 6832TIP3    H241912   5.066   1.678   5.747 -0.1367 -2.5486  1.4976
 6833TIP3   OH241913   4.726   0.625   1.570  0.0791 -0.0295  0.9261
 6833TIP3    H141914   4.756   0.715   1.576  2.0842 -0.6382  0.5464
 6833TIP3    H241915   4.777   0.578   1.637  0.0171 -1.1008  0.2411
 6834TIP3   OH241916   0.616   3.584   0.296  0.2218 -0.0121 -0.4247
 6834TIP3    H141917   0.557   3.531   0.243  0.7835 -0.8611 -0.2039
 6834TIP3    H241918   0.560   3.650   0.336 -0.4310 -0.2526 -0.9470
 6835TIP3   OH241919   2.829   1.731   0.996 -0.3734  0.7815  0.2559
 6835TIP3    H141920   2.737   1.754   0.982 -0.8344 -2.0413 -1.7654
 6835TIP3    H241921   2.826   1.642   1.031  1.5833  0.8561  0.6690
 6836TIP3   OH241922   5.702   1.144  13.916  0.1246 -0.2642 -0.1754
 6836TIP3    H141923   5.759   1.215  13.887 -0.2326 -0.8056 -2.2963
 6836TIP3    H241924   5.619   1.160  13.871 -0.4953 -1.0842  0.6608
 6837TIP3   OH241925   2.816   1.065  16.307  0.1572 -0.1933 -0.1796
 6837TIP3    H141926   2.746   1.026  16.359  0.5469 -1.5411 -0.6441
 6837TIP3    H241927   2.802   1.031  16.218  0.7481  0.4013 -0.5007
 6838TIP3   OH241928   3.152   5.333   4.277  0.5062 -0.2211  0.3995
 6838TIP3    H141929   3.205   5.355   4.354 -0.9606  1.1310  1.0383
 6838TIP3    H241930   3.070   5.382   4.289 -0.1448 -0.8047 -1.5133
 6839TIP3   OH241931   4.193   1.646   1.359  0.6874  0.3144 -0.0067
 6839TIP3    H141932   4.281   1.668   1.387  1.3076 -1.9342 -0.0878
 6839TIP3    H241933   4.159   1.589   1.429  0.2222 -0.8114 -1.1189
 6840TIP3   OH241934   0.227   1.528  15.234  0.2073 -0.3625  0.0058
 6840TIP3    H141935   0.210   1.435  15.221  1.2638 -0.6805  0.8081
 6840TIP3    H241936   0.298   1.531  15.298  0.6061  0.9807 -0.4753
 6841TIP3   OH241937   1.730   2.619  15.824 -0.8031 -0.0818 -0.6088
 6841TIP3    H141938   1.752   2.593  15.735 -0.3706 -1.9371  0.0232
 6841TIP3    H241939   1.814   2.641  15.865 -0.8087 -0.9049 -0.1457
 6842TIP3   OH241940   3.458   4.608   1.215  0.0370  0.3808  0.3880
 6842TIP3    H141941   3.490   4.698   1.218 -0.9213  0.7248  0.4675
 6842TIP3    H241942   3.422   4.599   1.126  0.1976  0.0465  0.3548
 6843TIP3   OH241943   3.060   1.769  14.418 -0.0305 -0.2162  0.1086
 6843TIP3    H141944   2.966   1.783  14.402  0.0991  0.9788  0.3579
 6843TIP3    H241945   3.073   1.676  14.399 -1.4509 -0.6190  0.9592
 6844TIP3   OH241946   2.760   3.169   2.623 -0.4636 -0.4006  0.2565
 6844TIP3    H141947   2.744   3.079   2.595 -1.2585  0.0726 -0.8391
 6844TIP3    H241948   2.710   3.179   2.703 -2.5013 -0.1611 -1.0028
 6845TIP3   OH241949   3.798   6.416   2.120 -0.1781  1.1724 -0.2100
 6845TIP3    H141950   3.728   6.435   2.058 -1.9385 -0.6407  1.1446
 6845TIP3    H241951   3.758   6.425   2.206  1.2415  0.0793  0.5948
 6846TIP3   OH241952   3.156   6.269  14.819 -0.3274 -0.3494 -0.3956
 6846TIP3    H141953   3.180   6.216  14.895 -0.9091 -1.4825 -0.9888
 6846TIP3    H241954   3.073   6.310  14.842  0.1075  0.3004  0.0512
 6847TIP3   OH241955   2.522   0.141   1.843  0.0152  0.2948  0.4714
 6847TIP3    H141956   2.528   0.071   1.779  1.5299  1.1375 -0.3452
 6847TIP3    H241957   2.589   0.204   1.816  0.2896  0.9391  2.5385
 6848TIP3   OH241958   5.220   4.183  12.478  0.0211  0.0716  0.0562
 6848TIP3    H141959   5.209   4.278  12.486 -1.4456  0.0642 -1.7022
 6848TIP3    H241960   5.141   4.146  12.518 -0.2771 -0.3616 -0.9271
 6849TIP3   OH241961   0.608   6.076  11.190 -0.3850 -0.0328  0.7449
 6849TIP3    H141962   0.550   6.152  11.187 -0.2538  0.0621  0.6275
 6849TIP3    H241963   0.683   6.101  11.137  0.6364  0.5969  2.4582
 6850TIP3   OH241964   6.496   1.562  16.717  0.0955 -1.1140  0.3825
 6850TIP3    H141965   6.462   1.637  16.667 -1.0207 -1.8584 -0.0129
 6850TIP3    H241966   6.588   1.582  16.730  0.3302 -0.6966 -1.6550
 6851TIP3   OH241967   4.288   3.980  13.466 -0.0597  0.2308  0.1219
 6851TIP3    H141968   4.249   4.044  13.407 -2.7909  0.0224  1.5807
 6851TIP3    H241969   4.304   4.028  13.547 -1.0458 -0.6216  0.8402
 6852TIP3   OH241970   6.318   4.182   6.364  0.4244  0.0729 -0.0953
 6852TIP3    H141971   6.247   4.143   6.415 -0.4708  1.9458  0.1235
 6852TIP3    H241972   6.303   4.276   6.370  1.0514  0.3915 -2.7007
 6853TIP3   OH241973   3.538   5.346  13.842  0.4777 -0.3508 -0.5566
 6853TIP3    H141974   3.532   5.261  13.886 -0.2000  0.0404  0.1173
 6853TIP3    H241975   3.552   5.324  13.750  2.5606 -1.1650 -0.0702
 6854TIP3   OH241976   0.279   5.302   4.348  0.2986  0.1547  0.3432
 6854TIP3    H141977   0.348   5.298   4.414 -1.1870 -1.2276  1.8606
 6854TIP3    H241978   0.261   5.210   4.327 -0.2229  0.5453 -0.9411
 6855TIP3   OH241979   5.892   5.884   5.552 -0.0203 -0.0510 -0.0280
 6855TIP3    H141980   5.822   5.930   5.504 -0.2624 -1.2486 -0.8519
 6855TIP3    H241981   5.922   5.817   5.491  0.2624 -1.0436  1.1814
 6856TIP3   OH241982   1.165   1.983  12.802  0.1480  0.3023  0.6011
 6856TIP3    H141983   1.164   1.895  12.841  2.6867 -1.0586 -2.1948
 6856TIP3    H241984   1.254   2.015  12.817 -0.0565  1.4143 -0.5104
 6857TIP3   OH241985   6.643   0.649   1.726 -0.1732  0.0640 -0.3330
 6857TIP3    H141986   6.712   0.664   1.790  1.8865 -0.8622 -2.2690
 6857TIP3    H241987   6.573   0.708   1.752  1.4631  1.2782  1.4692
 6858TIP3   OH241988   5.201   3.873   6.396  0.7515 -0.2890 -0.0265
 6858TIP3    H141989   5.229   3.863   6.487  2.6189  0.5264 -0.5057
 6858TIP3    H241990   5.233   3.959   6.370 -0.3413 -0.2377 -1.2712
 6859TIP3   OH241991   5.618   6.406   1.840 -0.1315  0.2553 -0.3106
 6859TIP3    H141992   5.561   6.467   1.886 -0.9970 -0.5915 -0.2421
 6859TIP3    H241993   5.618   6.327   1.894  1.4693  0.3889 -0.0712
 6860TIP3   OH241994   1.921   2.699   3.088  0.2428 -0.4072  0.3031
 6860TIP3    H141995   1.991   2.637   3.067  0.5533  0.2098 -0.5080
 6860TIP3    H241996   1.854   2.684   3.022  0.4787  0.3537 -0.1285
 6861TIP3   OH241997   0.264   2.561   2.125  0.4860  0.1648  0.0187
 6861TIP3    H141998   0.216   2.500   2.070  0.5873 -0.7663  0.9470
 6861TIP3    H241999   0.235   2.540   2.214  1.5667  0.5319  0.4585
 6862TIP3   OH242000   0.971   3.958  14.933  0.2113  0.1332  0.1556
 6862TIP3    H142001   0.989   4.016  15.008 -0.8966 -1.8530  1.9814
 6862TIP3    H242002   1.056   3.952  14.888  1.3988 -0.2153  2.3593
 6863TIP3   OH242003   0.521   0.173   2.153 -0.7925 -0.0664 -0.2073
 6863TIP3    H142004   0.596   0.178   2.093 -1.1268  0.6914 -0.5638
 6863TIP3    H242005   0.530   0.087   2.194  1.3555  0.7561  1.1621
 6864TIP3   OH242006   6.180   2.787  15.056  0.2778  0.0328 -0.3991
 6864TIP3    H142007   6.232   2.707  15.061 -0.9555 -0.8156 -0.8442
 6864TIP3    H242008   6.199   2.822  14.969 -0.8938 -0.9913 -1.0836
 6865TIP3   OH242009   5.128   1.335   5.167  0.1840  0.1296  0.1167
 6865TIP3    H142010   5.151   1.298   5.082  4.1417  0.8104  0.8014
 6865TIP3    H242011   5.063   1.403   5.147  0.3895 -0.3332 -2.2270
 6866TIP3   OH242012   0.903   0.659   6.001  0.8240 -0.7115 -0.0411
 6866TIP3    H142013   0.948   0.642   6.084  1.0396  1.1896  0.2673
 6866TIP3    H242014   0.823   0.608   6.005  1.0695 -1.0107  1.1388
 6867TIP3   OH242015   2.406   6.684   2.625 -0.3058  0.1738  0.5498
 6867TIP3    H142016   2.354   6.607   2.600 -1.2956  1.0875 -0.2657
 6867TIP3    H242017   2.439   6.718   2.542  2.1474 -0.7531  1.1068
 6868TIP3   OH242018   3.164   1.024   4.925  0.3395 -0.0690  0.4091
 6868TIP3    H142019   3.174   1.107   4.972 -0.0275  0.6427 -0.7496
 6868TIP3    H242020   3.229   1.028   4.855 -1.4203  0.3873 -1.2510
 6869TIP3   OH242021   5.737   4.660  15.087  0.2035 -0.6053 -0.3341
 6869TIP3    H142022   5.719   4.616  15.170  0.5543 -1.1343 -0.5420
 6869TIP3    H242023   5.654   4.701  15.063 -0.1581 -1.2719 -0.2174
 6870TIP3   OH242024   4.219   2.639  15.405 -0.8328  0.5046  0.0529
 6870TIP3    H142025   4.304   2.683  15.394 -0.6148  0.2553  0.6963
 6870TIP3    H242026   4.237   2.548  15.383 -1.2142  0.6821 -0.9805
 6871TIP3   OH242027   0.044   2.909  12.937  0.0859  0.5454 -0.1892
 6871TIP3    H142028   0.037   2.961  13.017 -0.0855 -0.0357  0.1827
 6871TIP3    H242029   0.127   2.937  12.897 -0.3090  1.5311 -0.3184
 6872TIP3   OH242030   1.903   4.898  15.219 -0.2221  0.4541 -0.5280
 6872TIP3    H142031   1.836   4.906  15.151 -0.8722  0.2178  0.0870
 6872TIP3    H242032   1.960   4.973  15.205 -0.6999  0.7394 -0.9610
 6873TIP3   OH242033   5.692   5.507  10.795  0.4565  0.1237 -0.6829
 6873TIP3    H142034   5.742   5.588  10.781  0.2367  0.6923  1.6196
 6873TIP3    H242035   5.760   5.440  10.808  0.6311  0.2147 -1.1076
 6874TIP3   OH242036   5.021   2.925   2.306 -0.2248 -0.2142 -0.2498
 6874TIP3    H142037   4.932   2.899   2.333  0.2364 -1.1947  0.3481
 6874TIP3    H242038   5.025   2.902   2.213 -0.2925 -1.0383 -0.0553
 6875TIP3   OH242039   4.128   5.181  14.258  0.0654 -0.1081  0.0641
 6875TIP3    H142040   4.177   5.213  14.182 -2.9806  2.4470 -0.9590
 6875TIP3    H242041   4.174   5.216  14.333  0.1322  1.8928 -0.8620
 6876TIP3   OH242042   4.005   6.040  12.909 -0.0475  0.1718  0.2281
 6876TIP3    H142043   3.946   5.980  12.955 -0.5607  0.7014  0.2693
 6876TIP3    H242044   3.947   6.106  12.871  0.3324 -0.5221 -1.5725
 6877TIP3   OH242045   0.907   5.042   1.839  0.7142 -0.0726 -0.9412
 6877TIP3    H142046   0.829   5.092   1.813 -0.9789 -1.4135  1.3132
 6877TIP3    H242047   0.966   5.108   1.876 -0.8292  0.5318  0.5384
 6878TIP3   OH242048   0.932   1.000  16.193  0.5293 -0.3405 -0.4430
 6878TIP3    H142049   0.901   1.046  16.116  1.3527  1.2063  0.1328
 6878TIP3    H242050   0.889   0.914  16.189  0.2027 -0.0973 -2.3482
 6879TIP3   OH242051   1.753   5.030  12.731  0.5608 -0.0958  0.9043
 6879TIP3    H142052   1.838   5.060  12.698  0.3380 -2.4003 -2.0593
 6879TIP3    H242053   1.691   5.096  12.699  0.8076 -0.3833 -0.2055
 6880TIP3   OH242054   6.223   5.267  12.142 -0.2554 -0.2031  0.1496
 6880TIP3    H142055   6.268   5.208  12.203 -0.3035 -0.2316  0.1576
 6880TIP3    H242056   6.242   5.231  12.055  0.1381  0.0662  0.1257
 6881TIP3   OH242057   2.185   5.089   0.811 -0.1063  0.1774  0.3432
 6881TIP3    H142058   2.184   5.085   0.715  0.1193  0.1861  0.3411
 6881TIP3    H242059   2.099   5.055   0.837  0.1397 -0.5892  0.1625
 6882TIP3   OH242060   2.277   2.523  15.321  0.1999  0.1810 -0.1896
 6882TIP3    H142061   2.342   2.474  15.371 -0.2869  1.1136  1.4170
 6882TIP3    H242062   2.209   2.545  15.385 -1.7368 -0.8044 -1.8223
 6883TIP3   OH242063   0.778   3.812  12.927  0.1905 -0.2764  0.4472
 6883TIP3    H142064   0.782   3.737  12.987  2.1901  0.3139  1.0766
 6883TIP3    H242065   0.758   3.773  12.842 -2.5657 -1.1360  1.4193
 6884TIP3   OH242066   3.503   4.734   5.978  0.2357 -0.0083  0.4001
 6884TIP3    H142067   3.562   4.706   6.048 -0.3510 -0.0633  0.8781
 6884TIP3    H242068   3.436   4.666   5.974 -0.4071  0.5988  0.6099
 6885TIP3   OH242069   0.037   2.673   0.572  0.5697 -0.1002  0.5809
 6885TIP3    H142070   0.115   2.618   0.562 -0.5420 -1.6771  0.4335
 6885TIP3    H242071  -0.016   2.653   0.495  0.7673  2.2342 -0.1978
 6886TIP3   OH242072   4.383   4.469  17.082  0.1605  0.4335  0.8817
 6886TIP3    H142073   4.334   4.427  17.153  1.1162 -0.5138  0.9945
 6886TIP3    H242074   4.473   4.440  17.095 -0.0108 -1.5651 -2.0201
 6887TIP3   OH242075   0.881   3.859   3.067  0.3235  0.5898  0.4998
 6887TIP3    H142076   0.795   3.867   3.106  0.0438  0.8300 -0.1621
 6887TIP3    H242077   0.865   3.824   2.979  1.0987 -2.1542  1.3823
 6888TIP3   OH242078   3.527   5.389   2.061  0.4128 -0.2823  0.1952
 6888TIP3    H142079   3.549   5.345   1.980 -1.6965 -0.9053 -0.0564
 6888TIP3    H242080   3.442   5.430   2.045  0.6097  0.7600  1.6357
 6889TIP3   OH242081   0.645   2.846  15.715  0.1713 -0.0659  0.2928
 6889TIP3    H142082   0.601   2.802  15.642  1.8099  1.4802 -1.7081
 6889TIP3    H242083   0.603   2.932  15.719  2.1025  0.9587 -0.8257
 6890TIP3   OH242084   0.500   2.169  16.615  0.1062  0.4805 -0.4619
 6890TIP3    H142085   0.405   2.156  16.617  0.4002 -1.8349 -0.0446
 6890TIP3    H242086   0.512   2.262  16.635 -2.0396  0.6716  0.0607
 6891TIP3   OH242087   2.414   3.904  15.020  0.4772 -0.4261 -0.2276
 6891TIP3    H142088   2.472   3.879  15.091 -3.5785 -1.8820  2.7092
 6891TIP3    H242089   2.367   3.980  15.053 -1.6604 -1.2844 -1.2218
 6892TIP3   OH242090   6.686   1.926  14.756  0.3595  0.4185  0.0767
 6892TIP3    H142091   6.698   2.006  14.807 -0.1016  1.7585 -1.8692
 6892TIP3    H242092   6.775   1.893  14.741  0.6065  1.0919  0.0544
 6893TIP3   OH242093   3.328   1.433   5.691  0.2960  0.4171 -0.3671
 6893TIP3    H142094   3.276   1.511   5.668 -1.3438 -0.6944 -0.5246
 6893TIP3    H242095   3.340   1.387   5.608  0.2024 -0.1172 -0.0872
 6894TIP3   OH242096   2.335   5.826   5.088 -0.0333 -0.0111 -0.5667
 6894TIP3    H142097   2.263   5.886   5.068 -0.0071  0.7693  1.5908
 6894TIP3    H242098   2.410   5.884   5.104  0.6167 -0.7372 -0.9789
 6895TIP3   OH242099   3.422   5.547   3.153 -0.2571  0.0925 -0.2174
 6895TIP3    H142100   3.338   5.502   3.144 -0.3828 -0.3123  2.6710
 6895TIP3    H242101   3.423   5.580   3.243  2.5394  0.3479 -0.2901
 6896TIP3   OH242102   1.904   2.307  13.581 -0.2687 -0.1916 -0.6964
 6896TIP3    H142103   1.875   2.346  13.663  0.0805 -0.9181 -0.2269
 6896TIP3    H242104   1.971   2.366  13.549  0.1533 -0.3229 -0.0607
 6897TIP3   OH242105   2.708   4.220  13.619 -0.0554  0.5249  0.4229
 6897TIP3    H142106   2.639   4.221  13.553 -0.0273  1.3480  0.3988
 6897TIP3    H242107   2.749   4.134  13.610  0.4332  0.8972 -1.1451
 6898TIP3   OH242108   5.868   4.661   3.102 -0.8642  0.4571 -0.4609
 6898TIP3    H142109   5.892   4.582   3.150 -2.4917 -0.3585 -0.9436
 6898TIP3    H242110   5.876   4.731   3.167 -1.2123 -0.3710  0.4979
 6899TIP3   OH242111   1.677   1.252   2.703 -0.1100  0.2201  0.2651
 6899TIP3    H142112   1.617   1.199   2.650 -1.0852  2.0267 -0.4863
 6899TIP3    H242113   1.713   1.316   2.642  1.8650 -0.2080  0.9404
 6900TIP3   OH242114   5.702   3.752  12.967 -0.2086  0.6158 -0.1070
 6900TIP3    H142115   5.695   3.678  13.028  2.1421 -0.1721 -0.7479
 6900TIP3    H242116   5.679   3.828  13.020 -1.5358 -0.4384  0.8674
 6901TIP3   OH242117   2.925   3.181   1.197 -0.1342 -0.0299  0.1123
 6901TIP3    H142118   2.998   3.124   1.222 -0.7147 -1.0487 -0.4696
 6901TIP3    H242119   2.898   3.150   1.110 -0.7715  0.8202 -0.0033
 6902TIP3   OH242120   5.512   1.833  15.201 -0.1440 -0.1999  0.0994
 6902TIP3    H142121   5.542   1.755  15.154 -0.4982 -1.1776  1.4744
 6902TIP3    H242122   5.574   1.842  15.274 -0.5715  0.3359  0.3978
 6903TIP3   OH242123   3.652   1.712   4.927 -0.1427 -0.0384  0.0824
 6903TIP3    H142124   3.695   1.658   4.992 -0.1649  0.2293  0.3189
 6903TIP3    H242125   3.693   1.798   4.934 -0.1920  0.0122 -0.2076
 6904TIP3   OH242126   5.606   5.637   3.245 -0.3136  0.8026 -0.0322
 6904TIP3    H142127   5.656   5.649   3.326  0.5077  1.2717 -0.6021
 6904TIP3    H242128   5.669   5.601   3.183 -1.2173 -0.5911 -0.1550
 6905TIP3   OH242129   0.761   1.079  13.956  0.2070 -0.0257  0.1919
 6905TIP3    H142130   0.716   1.131  14.023  1.1692  0.9366  0.0939
 6905TIP3    H242131   0.834   1.134  13.928 -0.0117 -0.5477 -1.4375
 6906TIP3   OH242132   6.322   1.703  13.810  0.1194 -0.1266 -0.1833
 6906TIP3    H142133   6.243   1.725  13.860  1.0995  0.4040  1.1369
 6906TIP3    H242134   6.311   1.610  13.789 -1.1518  0.0905 -0.5530
 6907TIP3   OH242135   0.284   5.662   4.435 -0.5690 -0.1636 -0.2768
 6907TIP3    H142136   0.338   5.724   4.386 -0.9302  1.2794  1.1412
 6907TIP3    H242137   0.196   5.698   4.431 -0.8816 -0.8701  0.1167
 6908TIP3   OH242138   4.669   1.006   1.167  0.9426 -0.8159  0.0091
 6908TIP3    H142139   4.621   0.927   1.141  0.1226 -0.4188  0.3133
 6908TIP3    H242140   4.757   0.974   1.187  1.2817 -1.2974 -2.1533
 6909TIP3   OH242141   3.070   3.622  16.695  0.0726  0.5278  0.0415
 6909TIP3    H142142   3.069   3.619  16.791 -1.2293  0.6159  0.0388
 6909TIP3    H242143   3.129   3.551  16.670  0.2125  0.3302  0.9031
 6910TIP3   OH242144   3.857   0.269   4.208 -0.1737 -0.4013  0.0206
 6910TIP3    H142145   3.940   0.298   4.245 -0.4471 -0.3104  0.5704
 6910TIP3    H242146   3.825   0.345   4.159 -0.2577 -0.2031  0.3748
 6911TIP3   OH242147   3.015   6.274  14.500  0.4231 -0.4150  0.3290
 6911TIP3    H142148   3.083   6.339  14.516  0.2450 -0.3875  0.9866
 6911TIP3    H242149   2.981   6.295  14.413 -1.1237  1.7167  1.4111
 6912TIP3   OH242150   4.249   6.730   1.892  0.9211 -0.4613  0.7965
 6912TIP3    H142151   4.213   6.656   1.843  1.2211 -0.5344  0.6873
 6912TIP3    H242152   4.343   6.724   1.880  0.9085  0.2856  0.2834
 6913TIP3   OH242153   4.751   0.192  11.560 -0.0909 -0.5618  0.2339
 6913TIP3    H142154   4.714   0.274  11.592  1.1422  0.9229 -2.0477
 6913TIP3    H242155   4.816   0.168  11.625 -0.9680 -0.1404  1.2862
 6914TIP3   OH242156   0.759   1.745   3.896 -0.4588  0.4005  0.2041
 6914TIP3    H142157   0.841   1.720   3.938  0.2295 -0.0550 -1.3884
 6914TIP3    H242158   0.753   1.840   3.910  1.5578  0.8500 -1.7332
 6915TIP3   OH242159   1.501   3.870  13.819 -0.1715  0.3589  0.1583
 6915TIP3    H142160   1.513   3.877  13.724 -1.3171 -1.0063 -0.1070
 6915TIP3    H242161   1.568   3.808  13.847  0.9038  1.6178  0.4291
 6916TIP3   OH242162   3.670   6.515   2.400 -0.2573  0.5346  0.1753
 6916TIP3    H142163   3.714   6.597   2.419 -1.4305  0.9340  1.2047
 6916TIP3    H242164   3.735   6.447   2.419  0.9362  1.2373 -1.3355
 6917TIP3   OH242165   0.439   4.715   1.376  0.2743 -0.6518 -0.5930
 6917TIP3    H142166   0.453   4.627   1.412  0.4908 -0.2669  0.2687
 6917TIP3    H242167   0.356   4.708   1.329  0.6931 -1.5314 -1.2182
 6918TIP3   OH242168   2.837   1.558  16.378 -0.3604  0.4678  0.1324
 6918TIP3    H142169   2.879   1.585  16.459  2.6464 -0.8485 -0.9009
 6918TIP3    H242170   2.794   1.475  16.399  1.5443 -0.5566  0.0968
 6919TIP3   OH242171   1.161   0.417   3.868  0.6263  0.2338  0.6081
 6919TIP3    H142172   1.108   0.454   3.938  0.4749 -0.3779  0.8240
 6919TIP3    H242173   1.250   0.446   3.888  0.6335 -0.2073  1.2458
 6920TIP3   OH242174   0.792   6.653   1.423  0.2928 -0.4842  0.4332
 6920TIP3    H142175   0.715   6.699   1.457 -0.0208  0.7350 -1.8055
 6920TIP3    H242176   0.853   6.723   1.398  0.3656 -1.2845 -1.7320
 6921TIP3   OH242177   4.391   3.180   4.518  0.0506 -0.4543  0.1066
 6921TIP3    H142178   4.455   3.180   4.589 -1.2536 -1.3491  1.2917
 6921TIP3    H242179   4.401   3.094   4.477  1.0450  0.1833 -1.0605
 6922TIP3   OH242180   5.659   6.498   3.293  0.4865 -0.1021 -0.4018
 6922TIP3    H142181   5.728   6.521   3.231 -0.9588 -0.8983 -2.3718
 6922TIP3    H242182   5.631   6.410   3.265 -0.7579 -0.1180  0.8608
 6923TIP3   OH242183   3.821   0.505  11.036  0.0004  0.4207  0.3078
 6923TIP3    H142184   3.875   0.521  10.958  0.7495  0.9863  0.9273
 6923TIP3    H242185   3.787   0.592  11.060  1.0401  0.5169  1.5061
 6924TIP3   OH242186   3.753   1.411   1.135  0.0529 -1.3228  0.0573
 6924TIP3    H142187   3.751   1.488   1.079  2.9265 -0.7913  0.6055
 6924TIP3    H242188   3.836   1.368   1.113 -1.0823 -3.7703  0.4139
 6925TIP3   OH242189   2.992   4.781   0.952  0.2570 -0.4501  0.0900
 6925TIP3    H142190   3.016   4.761   1.042 -2.9021 -1.0553  0.8796
 6925TIP3    H242191   2.945   4.864   0.958  0.0348 -0.4969 -0.9861
 6926TIP3   OH242192   2.479   2.169  12.879 -0.7541  0.1484 -0.0842
 6926TIP3    H142193   2.461   2.097  12.939 -1.3508 -1.0535 -1.6731
 6926TIP3    H242194   2.394   2.193  12.843 -0.5342  1.5328  0.2841
 6927TIP3   OH242195   3.132   2.038   4.056 -0.3921 -0.6111 -0.2490
 6927TIP3    H142196   3.125   2.024   4.150 -0.8425 -1.3071 -0.3794
 6927TIP3    H242197   3.198   2.106   4.046 -1.1663  0.2845  0.6304
 6928TIP3   OH242198   5.101   0.356  15.884 -0.2367  0.0777 -0.1647
 6928TIP3    H142199   5.131   0.283  15.939 -0.3454  0.5782  0.5645
 6928TIP3    H242200   5.006   0.344  15.878 -0.2945  0.3442  0.2231
 6929TIP3   OH242201   4.823   2.899  10.681  0.0474 -0.4552 -0.2241
 6929TIP3    H142202   4.760   2.910  10.609  2.6489  2.3787 -2.1785
 6929TIP3    H242203   4.789   2.954  10.752  0.1195  0.7891 -1.1395
 6930TIP3   OH242204   6.340   0.162  15.995 -0.1761  0.0459 -0.1054
 6930TIP3    H142205   6.365   0.144  16.086  2.6867 -0.6194 -0.9759
 6930TIP3    H242206   6.353   0.079  15.950  0.1029  0.8136 -1.4654
 6931TIP3   OH242207   3.480   6.245   1.082 -0.0450 -0.3290 -0.6412
 6931TIP3    H142208   3.545   6.304   1.120 -0.7299  0.4880 -0.6998
 6931TIP3    H242209   3.479   6.268   0.989  1.3981 -2.0989 -1.1190
 6932TIP3   OH242210   1.521   2.250   2.702  0.2400  0.3944  0.0048
 6932TIP3    H142211   1.445   2.199   2.676 -0.7467  3.1153 -2.8370
 6932TIP3    H242212   1.596   2.203   2.664 -0.1871 -1.2048  1.1013
 6933TIP3   OH242213   2.203   3.944  15.881 -0.9626  0.1278 -0.2022
 6933TIP3    H142214   2.235   3.933  15.792  2.7154  2.0427  0.8028
 6933TIP3    H242215   2.194   3.854  15.914 -0.0437 -0.5317 -1.6883
 6934TIP3   OH242216   0.150   6.209  17.139  0.3958  0.2677  0.0195
 6934TIP3    H142217   0.071   6.175  17.182  1.3029 -1.0528  0.6802
 6934TIP3    H242218   0.189   6.267  17.204  0.8148 -0.3395  0.3195
 6935TIP3   OH242219   4.430   1.791  16.937 -0.1722  0.3478 -0.5462
 6935TIP3    H142220   4.365   1.855  16.907 -2.4908 -1.1686  1.0373
 6935TIP3    H242221   4.386   1.706  16.928  1.9864 -0.8289 -0.3883
 6936TIP3   OH242222   6.699   5.091   4.108 -0.0251 -0.5438 -0.4390
 6936TIP3    H142223   6.640   5.026   4.070  0.7066 -0.8542 -1.0460
 6936TIP3    H242224   6.713   5.154   4.037  0.5989 -0.6207 -0.3821
 6937TIP3   OH242225   0.780   3.714  10.846  0.1057 -0.4496  0.2009
 6937TIP3    H142226   0.812   3.633  10.806 -0.5175 -0.4676 -0.2572
 6937TIP3    H242227   0.708   3.742  10.790  1.2261  1.1985 -0.4884
 6938TIP3   OH242228   5.298   0.970  14.740 -0.3303 -0.2918  0.5276
 6938TIP3    H142229   5.327   0.896  14.686 -0.5949 -1.3685  1.8275
 6938TIP3    H242230   5.239   0.930  14.804  1.4487  0.6723  2.7962
 6939TIP3   OH242231   6.558   4.317  12.210  0.5509  0.1969  0.4374
 6939TIP3    H142232   6.613   4.242  12.185  0.1339 -0.3759  1.2410
 6939TIP3    H242233   6.491   4.280  12.267 -1.2971  0.7075 -1.3502
 6940TIP3   OH242234   2.576   1.127  12.631 -0.3169 -0.6540 -0.4119
 6940TIP3    H142235   2.557   1.103  12.541 -0.0286 -1.1192 -0.3476
 6940TIP3    H242236   2.517   1.073  12.684  0.3448 -1.2327 -0.2665
 6941TIP3   OH242237   6.628   2.967  15.475 -0.2001 -0.3796  0.6092
 6941TIP3    H142238   6.649   2.878  15.500  1.3005 -1.1471 -3.0740
 6941TIP3    H242239   6.710   3.016  15.487 -0.8664  0.4003  2.0914
 6942TIP3   OH242240   0.680   5.579  12.412 -0.1338 -0.0421 -0.4132
 6942TIP3    H142241   0.729   5.659  12.393 -1.5397  0.7832 -0.6306
 6942TIP3    H242242   0.634   5.559  12.331 -1.0581 -0.1639  0.1426
 6943TIP3   OH242243   5.077   4.546  13.172 -0.4511  0.1494  0.1510
 6943TIP3    H142244   5.171   4.541  13.189 -0.3182 -0.9675 -0.8825
 6943TIP3    H242245   5.070   4.607  13.098 -0.7071  1.7748  1.4915
 6944TIP3   OH242246   0.595   6.779   1.164 -0.1012 -0.4021 -0.1111
 6944TIP3    H142247   0.670   6.764   1.106  0.7006 -0.4205  0.9262
 6944TIP3    H242248   0.525   6.724   1.127  0.1949  0.0911 -1.4411
 6945TIP3   OH242249   4.223   5.437   0.955 -0.5065 -0.2422  0.3133
 6945TIP3    H142250   4.270   5.429   0.872 -0.8232 -0.6054  0.1643
 6945TIP3    H242251   4.273   5.384   1.017 -0.2185  0.1043  0.3786
 6946TIP3   OH242252   4.940   5.828  12.434 -0.3990 -0.5645  0.3163
 6946TIP3    H142253   4.984   5.851  12.516  0.0497 -0.5584  0.0779
 6946TIP3    H242254   4.905   5.911  12.402 -0.1926 -0.4899  0.2817
 6947TIP3   OH242255   5.897   0.675   5.499 -0.3529  0.0282 -0.4966
 6947TIP3    H142256   5.804   0.687   5.519 -0.3115 -0.3616 -0.0627
 6947TIP3    H242257   5.901   0.676   5.403 -0.7822  0.2107 -0.5152
 6948TIP3   OH242258   5.894   1.566   0.235 -0.2376 -0.3499 -0.2871
 6948TIP3    H142259   5.883   1.645   0.182 -0.4242 -0.0787  0.1505
 6948TIP3    H242260   5.962   1.516   0.190  0.9911  0.7825  0.2888
 6949TIP3   OH242261   4.165   3.536  13.615 -0.0204 -0.7130  0.1151
 6949TIP3    H142262   4.083   3.558  13.658  0.6131 -0.6679  1.3270
 6949TIP3    H242263   4.183   3.610  13.558 -0.7023 -0.6142  0.0324
 6950TIP3   OH242264   2.863   3.351   4.907  0.0922  0.5650 -0.2612
 6950TIP3    H142265   2.826   3.430   4.868 -0.7133  0.6501  0.6517
 6950TIP3    H242266   2.826   3.348   4.995 -0.6667 -1.3469 -0.6120
 6951TIP3   OH242267   0.245   1.200   1.994  0.0096 -0.1133 -0.2545
 6951TIP3    H142268   0.292   1.221   1.913 -0.9999 -0.9405 -1.0588
 6951TIP3    H242269   0.311   1.211   2.063  1.0385  0.0014 -1.2398
 6952TIP3   OH242270   4.780   5.011  15.842  0.0479  0.2052  0.5095
 6952TIP3    H142271   4.833   4.935  15.817 -0.1082  0.1359  0.3866
 6952TIP3    H242272   4.714   4.975  15.901 -0.5652  0.0919 -0.2394
 6953TIP3   OH242273   0.921   1.922  12.277  0.2246  0.2851 -0.3783
 6953TIP3    H142274   1.000   1.890  12.234  0.0850 -0.3536 -0.1616
 6953TIP3    H242275   0.869   1.843  12.294  0.0419  0.5772  0.4792
 6954TIP3   OH242276   2.264   5.881  15.062 -0.2494  0.1454 -0.0212
 6954TIP3    H142277   2.187   5.862  15.115 -0.2132  1.9700  0.7129
 6954TIP3    H242278   2.329   5.912  15.125  0.3343  0.7539 -0.9168
 6955TIP3   OH242279   1.669   6.470   3.978 -0.1875  0.5410  0.2233
 6955TIP3    H142280   1.708   6.548   4.018  0.4415  0.5852 -0.4580
 6955TIP3    H242281   1.703   6.470   3.888 -0.8131 -0.0842 -0.0173
 6956TIP3   OH242282   5.677   5.479   5.955 -0.1161 -0.4950 -0.2799
 6956TIP3    H142283   5.676   5.447   6.045 -0.9411 -1.9932 -0.8127
 6956TIP3    H242284   5.589   5.514   5.941  0.2718  0.5119 -0.2419
 6957TIP3   OH242285   3.747   2.805   0.896  0.2697  0.4377 -0.2630
 6957TIP3    H142286   3.702   2.850   0.968 -0.5090 -0.6171 -0.0810
 6957TIP3    H242287   3.726   2.857   0.819 -0.9087  0.2048 -0.1098
 6958TIP3   OH242288   5.416   6.661   5.383 -0.2353 -0.1976 -0.1711
 6958TIP3    H142289   5.470   6.640   5.460 -1.6550 -0.6099  0.7358
 6958TIP3    H242290   5.426   6.755   5.372 -0.2427 -0.0878  0.6975
 6959TIP3   OH242291   0.276   3.751   3.311 -0.0176  0.3996  0.2087
 6959TIP3    H142292   0.271   3.847   3.310  0.7029  0.4320 -1.8403
 6959TIP3    H242293   0.315   3.731   3.396 -0.0006  1.9284  0.5904
 6960TIP3   OH242294   1.378   3.890   3.999  0.0504  0.3853 -0.6242
 6960TIP3    H142295   1.411   3.852   4.081 -0.7216  0.0509 -0.4732
 6960TIP3    H242296   1.392   3.822   3.934  1.7895  1.0843 -1.0367
 6961TIP3   OH242297   2.413   0.595  13.520 -0.3753 -0.7549 -0.0788
 6961TIP3    H142298   2.409   0.511  13.565  0.1918 -0.7183  0.0393
 6961TIP3    H242299   2.388   0.576  13.430 -1.7774 -0.7857  0.3011
 6962TIP3   OH242300   2.537   1.049   3.324 -0.7147 -0.4904 -0.1025
 6962TIP3    H142301   2.546   1.126   3.267 -2.6927  0.8917  1.3493
 6962TIP3    H242302   2.529   1.086   3.412 -0.8648 -2.4283  0.7161
 6963TIP3   OH242303   4.448   5.445  12.187  0.0701 -0.2674  0.7233
 6963TIP3    H142304   4.406   5.516  12.138 -1.8397  0.4500  3.2599
 6963TIP3    H242305   4.513   5.490  12.241 -1.0242 -0.4157  2.2090
 6964TIP3   OH242306   0.643   5.549  12.927 -0.2200 -0.4062 -0.4470
 6964TIP3    H142307   0.723   5.563  12.875  1.1728 -1.6752  1.2986
 6964TIP3    H242308   0.578   5.520  12.863  1.1606 -0.9074 -1.6511
 6965TIP3   OH242309   3.106   4.516  14.475 -0.0310 -0.4905 -0.5010
 6965TIP3    H142310   3.056   4.577  14.421 -0.3984 -0.5479 -0.2259
 6965TIP3    H242311   3.119   4.440  14.418  0.3967 -0.1706 -0.8300
 6966TIP3   OH242312   4.101   0.406  14.087 -0.5172  0.7421  0.0080
 6966TIP3    H142313   4.139   0.321  14.109 -1.6122  0.1727 -0.2228
 6966TIP3    H242314   4.136   0.427  14.001 -1.2516 -0.1124 -0.5147
 6967TIP3   OH242315   5.292   2.159   3.657 -0.4859 -0.1447 -0.2067
 6967TIP3    H142316   5.382   2.126   3.657  0.1733  1.5704  0.7587
 6967TIP3    H242317   5.242   2.093   3.609  1.1459 -1.4932 -0.1042
 6968TIP3   OH242318   2.831   5.541   0.556  0.7686  0.3380  0.2441
 6968TIP3    H142319   2.833   5.540   0.652  1.3406 -1.6104  0.2486
 6968TIP3    H242320   2.807   5.630   0.533 -0.1926  0.6203  2.2264
 6969TIP3   OH242321   3.703   0.967  12.969  0.3220  0.3052  0.1896
 6969TIP3    H142322   3.668   0.881  12.947  3.2412 -0.3142 -2.3622
 6969TIP3    H242323   3.691   0.974  13.064  1.1565 -3.4444  0.6566
 6970TIP3   OH242324   0.221   1.946   3.592 -1.1572 -0.7686 -0.4592
 6970TIP3    H142325   0.258   1.955   3.504 -1.9079 -0.0960 -0.7120
 6970TIP3    H242326   0.243   2.027   3.637 -0.8770 -1.0626 -0.0583
 6971TIP3   OH242327   0.411   6.514  15.905 -0.2498  0.2518  0.4451
 6971TIP3    H142328   0.353   6.590  15.894  0.4896  0.6361 -0.8999
 6971TIP3    H242329   0.399   6.463  15.825 -1.4514 -1.5778  1.7425
 6972TIP3   OH242330   5.282   6.719   4.677 -0.3094  0.1456  0.2795
 6972TIP3    H142331   5.218   6.664   4.721  1.2284 -2.0133 -0.1124
 6972TIP3    H242332   5.282   6.688   4.586  2.3974 -0.9604  0.6165
 6973TIP3   OH242333   3.377   0.151  14.845  0.2381 -0.0684 -0.1910
 6973TIP3    H142334   3.344   0.224  14.898 -1.3961 -0.0392 -1.2101
 6973TIP3    H242335   3.456   0.122  14.890  0.0167  1.3027  1.1061
 6974TIP3   OH242336   3.961   0.057   5.554  0.6727  0.4453  0.2493
 6974TIP3    H142337   3.987  -0.010   5.491 -1.0110  1.7525 -1.9007
 6974TIP3    H242338   3.935   0.132   5.500 -1.6556  1.3077  2.4727
 6975TIP3   OH242339   0.313   5.376  12.863 -0.6640 -0.4164  0.4345
 6975TIP3    H142340   0.373   5.388  12.937 -1.6132  1.5508  0.9323
 6975TIP3    H242341   0.239   5.327  12.899 -0.6599 -0.3486  0.5363
 6976TIP3   OH242342   3.795   2.329   6.545  0.1870 -0.4055 -0.3606
 6976TIP3    H142343   3.726   2.374   6.594  1.7527  1.3111  0.3220
 6976TIP3    H242344   3.803   2.244   6.587 -1.1220 -0.4100 -0.0867
 6977TIP3   OH242345   1.985   0.338  14.067  0.2334  0.0009 -0.1542
 6977TIP3    H142346   2.012   0.425  14.038  0.1968 -0.3466 -1.2594
 6977TIP3    H242347   1.952   0.351  14.155 -1.9930  1.5190 -1.1771
 6978TIP3   OH242348   4.171   4.820   3.774 -0.4740 -0.0735  0.1751
 6978TIP3    H142349   4.133   4.799   3.860  0.2579  3.1737  1.3288
 6978TIP3    H242350   4.099   4.858   3.725 -0.7267 -1.3560 -0.4890
 6979TIP3   OH242351   2.303   0.948   1.571  0.5749  0.4379 -0.3036
 6979TIP3    H142352   2.232   0.915   1.515 -0.6945  1.0813  0.8864
 6979TIP3    H242353   2.381   0.902   1.540 -0.5434 -1.0869 -0.9565
 6980TIP3   OH242354   0.718   0.304   1.716  0.2721 -0.3013 -0.4641
 6980TIP3    H142355   0.770   0.383   1.699  1.1796 -1.0464 -1.1976
 6980TIP3    H242356   0.646   0.309   1.652  0.5615 -0.2869 -0.7878
 6981TIP3   OH242357   4.572   0.605   6.094 -0.0756 -0.0354  0.6915
 6981TIP3    H142358   4.550   0.530   6.038 -1.3765  0.2377  0.8406
 6981TIP3    H242359   4.662   0.628   6.068 -0.4733 -0.2449 -0.9222
 6982TIP3   OH242360   5.687   2.466  13.824 -0.0346 -0.1122  0.0136
 6982TIP3    H142361   5.720   2.400  13.763  2.9769 -0.3289  1.7913
 6982TIP3    H242362   5.647   2.415  13.894 -0.7550  0.0670 -0.2598
 6983TIP3   OH242363   3.048   5.262   5.809  0.5427  0.1576 -0.3572
 6983TIP3    H142364   3.015   5.185   5.856 -2.1271  1.4408 -0.0371
 6983TIP3    H242365   3.089   5.315   5.877 -0.3687  0.4579 -0.0354
 6984TIP3   OH242366   1.910   4.205  17.044  0.0005  0.2352  0.1943
 6984TIP3    H142367   1.823   4.235  17.072 -1.3488 -1.6058 -1.8838
 6984TIP3    H242368   1.926   4.251  16.962  0.2999 -0.6486 -0.2399
 6985TIP3   OH242369   6.063   6.523   3.278  0.2340  0.4663  0.0372
 6985TIP3    H142370   6.084   6.438   3.317  2.0865  0.4480 -0.9185
 6985TIP3    H242371   6.056   6.583   3.353  2.6773  0.2207  0.5009
 6986TIP3   OH242372   6.182   4.266  16.739 -0.1398 -0.9288  0.4848
 6986TIP3    H142373   6.243   4.326  16.780  0.1529 -0.7704 -0.1777
 6986TIP3    H242374   6.123   4.322  16.689  0.2934 -1.2045 -0.3460
 6987TIP3   OH242375   0.453   0.585  14.246  0.2905 -0.2734  0.1393
 6987TIP3    H142376   0.479   0.496  14.267  0.9177 -0.6052 -1.9092
 6987TIP3    H242377   0.358   0.579  14.230  0.1099 -0.3214  1.1741
 6988TIP3   OH242378   1.265   4.563   3.571 -0.5209 -0.5572 -0.1197
 6988TIP3    H142379   1.211   4.524   3.639  0.4961 -1.1105  0.3850
 6988TIP3    H242380   1.330   4.496   3.550  0.7067  0.5259  0.1443
 6989TIP3   OH242381   3.411   6.324   4.362  0.3278  0.8422  0.2385
 6989TIP3    H142382   3.369   6.371   4.434  0.5436  0.4499  0.6221
 6989TIP3    H242383   3.468   6.390   4.322  2.1842  0.3851  2.0405
 6990TIP3   OH242384   1.955   6.115   6.264 -0.4212  0.3514  0.5576
 6990TIP3    H142385   1.897   6.191   6.269 -1.3180 -0.3806  1.6563
 6990TIP3    H242386   1.979   6.097   6.355  0.5761 -0.0918  0.2168
 6991TIP3   OH242387   4.417   2.123   1.594  0.0333  0.7428  0.2068
 6991TIP3    H142388   4.405   2.192   1.529  0.0180  0.6977  0.1611
 6991TIP3    H242389   4.379   2.045   1.553 -0.8070  0.9193  0.6479
 6992TIP3   OH242390   5.953   2.305   3.817 -0.3014 -0.6953  0.5909
 6992TIP3    H142391   6.009   2.383   3.817  2.2974 -2.4539 -2.4229
 6992TIP3    H242392   5.893   2.319   3.743 -2.4518  0.1345  2.4225
 6993TIP3   OH242393   1.051   5.643   5.742  0.0554 -0.1726 -0.3163
 6993TIP3    H142394   1.028   5.557   5.706  0.0509  0.1310 -1.0497
 6993TIP3    H242395   0.991   5.704   5.700  2.4774  0.7018 -2.6605
 6994TIP3   OH242396   4.988   2.196   4.745  0.2082 -0.3125 -0.1280
 6994TIP3    H142397   4.919   2.232   4.689  0.5543  0.2656 -0.1982
 6994TIP3    H242398   5.056   2.264   4.745  1.1004 -1.1876 -0.6741
 6995TIP3   OH242399   6.058   2.978   6.481  0.4072  0.1660 -0.1842
 6995TIP3    H142400   6.152   2.988   6.495  0.4005  0.8813 -0.5860
 6995TIP3    H242401   6.020   2.974   6.569  0.8655 -0.6837 -0.0228
 6996TIP3   OH242402   3.407   4.102   0.715 -0.2120 -0.6460 -0.6758
 6996TIP3    H142403   3.312   4.111   0.709 -0.0324  1.5718 -0.6697
 6996TIP3    H242404   3.421   4.044   0.790 -1.4936  2.0683  1.7713
 6997TIP3   OH242405   6.387   3.819  16.864  0.3501  0.2096  0.0468
 6997TIP3    H142406   6.416   3.763  16.935  1.2190 -2.4962 -2.3624
 6997TIP3    H242407   6.291   3.817  16.870  0.3963 -0.7182  0.6017
 6998TIP3   OH242408   6.300   5.763   1.585 -0.0183 -0.4532  0.0445
 6998TIP3    H142409   6.316   5.697   1.517  0.6628  0.4252 -0.6659
 6998TIP3    H242410   6.354   5.735   1.659 -0.4390 -1.1863  0.0858
 6999TIP3   OH242411   4.246   0.283   4.174  0.1809  0.3062 -0.1082
 6999TIP3    H142412   4.206   0.291   4.088 -1.0671 -1.7100  0.2292
 6999TIP3    H242413   4.180   0.318   4.234  0.2780  0.0062  0.1760
 7000TIP3   OH242414   0.954   6.094   5.232 -0.1083  0.0682 -0.1002
 7000TIP3    H142415   0.939   6.003   5.260  0.2120  0.0901  0.1395
 7000TIP3    H242416   0.971   6.141   5.313 -1.9900  0.6832 -0.0438
 7001TIP3   OH242417   3.795   5.548  12.013 -0.2482  0.0200  0.7534
 7001TIP3    H142418   3.719   5.596  11.979 -0.7972 -0.8756  0.7012
 7001TIP3    H242419   3.815   5.484  11.945  0.1168 -0.2136  1.0822
 7002TIP3   OH242420   3.472   2.903  13.219  0.6641  0.0071 -0.4099
 7002TIP3    H142421   3.553   2.945  13.188  0.8630 -0.1888 -0.1533
 7002TIP3    H242422   3.421   2.975  13.257  0.1655  0.3585 -1.7107
 7003TIP3   OH242423   6.642   6.382  13.656 -0.2638 -0.5830  0.6338
 7003TIP3    H142424   6.550   6.359  13.667 -0.5136  0.0693 -0.0272
 7003TIP3    H242425   6.675   6.317  13.593 -0.3267 -0.6953  0.7181
 7004TIP3   OH242426   4.705   3.829  17.113  0.0244  0.0872  0.2154
 7004TIP3    H142427   4.660   3.754  17.150 -1.2179  0.8184  0.2198
 7004TIP3    H242428   4.738   3.878  17.188 -1.3711  0.8839  0.3173
 7005TIP3   OH242429   2.177   3.504  14.013  0.4066  0.1887 -0.5750
 7005TIP3    H142430   2.188   3.551  14.096 -0.9566 -0.8878  0.2252
 7005TIP3    H242431   2.258   3.522  13.965  1.3856  0.4932  1.1432
 7006TIP3   OH242432   5.687   6.759   6.170  0.9403 -0.1977 -0.1950
 7006TIP3    H142433   5.756   6.822   6.150 -0.1134  0.5555 -1.5090
 7006TIP3    H242434   5.613   6.812   6.200  0.6042 -0.9296  0.2917
 7007TIP3   OH242435   0.872   6.369  11.408  0.0409 -0.1083 -0.6972
 7007TIP3    H142436   0.938   6.348  11.475  0.0746  0.6833 -0.4755
 7007TIP3    H242437   0.911   6.441  11.358 -0.7906  0.5897 -0.3548
 7008TIP3   OH242438   1.613   1.461  10.400  0.4743  0.7848  0.9060
 7008TIP3    H142439   1.672   1.424  10.465  1.8183  2.5400  0.7424
 7008TIP3    H242440   1.561   1.387  10.369  1.7165 -0.5591  1.9835
 7009TIP3   OH242441   2.352   0.999  15.947  0.4793 -0.1589  0.2923
 7009TIP3    H142442   2.344   1.050  15.867  0.5811  0.3412  0.5972
 7009TIP3    H242443   2.443   1.012  15.974  0.4369 -0.3021  0.5029
 7010TIP3   OH242444   0.881   1.934  14.146 -0.1665 -0.7129  0.0222
 7010TIP3    H142445   0.933   1.993  14.093 -0.2620  0.0725  0.7976
 7010TIP3    H242446   0.856   1.863  14.086  2.5035 -1.5509 -0.1436
 7011TIP3   OH242447   6.608   2.129  14.149 -0.2485 -0.2804  0.0110
 7011TIP3    H142448   6.523   2.172  14.158 -0.7534 -1.0978 -0.7401
 7011TIP3    H242449   6.656   2.182  14.086 -1.3291 -1.4710 -1.8631
 7012TIP3   OH242450   0.087   4.603  13.645  0.1302  0.4275 -0.0139
 7012TIP3    H142451   0.027   4.648  13.586 -0.6281  0.8092  1.0442
 7012TIP3    H242452   0.068   4.639  13.731  0.0409 -1.3453  0.7300
 7013TIP3   OH242453   1.536   5.380  14.269 -0.0982 -0.4794  1.0358
 7013TIP3    H142454   1.457   5.352  14.224 -0.3084  0.8958  0.5440
 7013TIP3    H242455   1.552   5.469  14.237  2.0263 -0.9873  0.6011
 7014TIP3   OH242456   4.720   0.334   1.219  0.1626 -0.7201 -0.2749
 7014TIP3    H142457   4.690   0.295   1.137 -1.0713 -1.2218  0.4095
 7014TIP3    H242458   4.666   0.412   1.230  2.6028  1.2286 -1.6241
 7015TIP3   OH242459   1.228   2.521  15.998  0.6317 -0.3088  0.3243
 7015TIP3    H142460   1.284   2.545  15.924  1.2420 -1.2734  0.4679
 7015TIP3    H242461   1.237   2.594  16.060 -1.1339  1.2767 -1.2110
 7016TIP3   OH242462   4.189   4.308   1.800  0.0715 -0.7829 -0.7035
 7016TIP3    H142463   4.182   4.235   1.738 -3.6260 -1.1826  0.1121
 7016TIP3    H242464   4.141   4.380   1.759  3.6221  1.2771 -1.4622
 7017TIP3   OH242465   2.052   2.554  15.478 -0.5727  0.0064  0.4425
 7017TIP3    H142466   1.973   2.558  15.532 -1.9375  0.6713 -1.5525
 7017TIP3    H242467   2.023   2.515  15.396  1.3189 -0.3299 -0.0873
 7018TIP3   OH242468   2.174   6.249   0.441 -0.1104  0.1326 -0.5963
 7018TIP3    H142469   2.217   6.195   0.508  0.7399  0.6088 -0.7477
 7018TIP3    H242470   2.154   6.189   0.370  0.6278 -0.0385 -0.6673
 7019TIP3   OH242471   4.448   2.935   0.036 -0.4663 -0.5471  0.0476
 7019TIP3    H142472   4.353   2.932   0.022 -0.4195 -1.1714 -0.1867
 7019TIP3    H242473   4.475   2.843   0.030  0.0535 -0.4466  0.8073
 7020TIP3   OH242474   6.097   4.405  11.098 -0.1128  0.4175 -0.2582
 7020TIP3    H142475   6.007   4.409  11.130  0.0982 -0.2313  0.4374
 7020TIP3    H242476   6.124   4.315  11.115  0.4804  0.4579 -0.9820
 7021TIP3   OH242477   6.713   2.061   0.375  1.1529 -0.0137  0.4036
 7021TIP3    H142478   6.676   1.985   0.420  1.4396  0.5037  1.5348
 7021TIP3    H242479   6.691   2.135   0.431 -0.7241  1.0160 -1.6146
 7022TIP3   OH242480   4.699   4.736  15.636 -0.2903 -0.1523  0.2719
 7022TIP3    H142481   4.763   4.755  15.567 -0.1440 -0.9198  0.1894
 7022TIP3    H242482   4.751   4.719  15.714 -0.4803  1.4079  0.7601
 7023TIP3   OH242483   2.605   6.136   3.792 -0.2054  0.0097  0.3431
 7023TIP3    H142484   2.652   6.066   3.838 -1.2406 -0.6859  0.3515
 7023TIP3    H242485   2.629   6.215   3.840  2.2911 -0.0922 -0.6791
 7024TIP3   OH242486   4.454   4.472  10.924  0.1410 -0.2452 -0.3044
 7024TIP3    H142487   4.396   4.501  10.853 -1.7029 -1.2260  0.7802
 7024TIP3    H242488   4.427   4.383  10.943  1.0322 -0.2083  1.2274
 7025TIP3   OH242489   3.794   3.213  11.211 -0.2090  0.0216  0.0771
 7025TIP3    H142490   3.818   3.165  11.131  1.6157  1.2615 -0.1475
 7025TIP3    H242491   3.710   3.255  11.190 -0.9733 -1.6442 -0.3095
 7026TIP3   OH242492   5.772   5.265   4.449  0.0248  0.5805  0.4724
 7026TIP3    H142493   5.710   5.265   4.375 -0.5484  2.1004  0.9495
 7026TIP3    H242494   5.746   5.188   4.501 -1.4952  1.2198  0.6861
 7027TIP3   OH242495   4.825   3.082  13.611  0.1942 -0.2383  0.8933
 7027TIP3    H142496   4.815   3.158  13.669  0.5995 -0.1671  0.8712
 7027TIP3    H242497   4.777   3.011  13.655 -0.7848  0.2086  0.5739
 7028TIP3   OH242498   1.279   5.563   0.368  0.0388  0.0620 -0.5268
 7028TIP3    H142499   1.332   5.642   0.362 -0.7626  0.6971  0.5720
 7028TIP3    H242500   1.269   5.548   0.462 -1.8424  0.0401 -0.7153
 7029TIP3   OH242501   5.967   3.349   1.078 -0.1970 -0.0784 -0.5174
 7029TIP3    H142502   5.989   3.381   0.990 -1.8097  0.8690 -0.6041
 7029TIP3    H242503   5.974   3.427   1.134  2.6649 -1.0491  0.5716
 7030TIP3   OH242504   2.479   2.678  10.949  0.0040 -0.0640 -0.3959
 7030TIP3    H142505   2.553   2.622  10.927  0.3889  0.0645  0.5460
 7030TIP3    H242506   2.495   2.759  10.900  1.7033  0.8275  1.5630
 7031TIP3   OH242507   2.972   1.286  11.966 -0.0929 -0.4485  0.0507
 7031TIP3    H142508   2.996   1.338  12.043  2.0814 -0.2993 -0.6844
 7031TIP3    H242509   2.891   1.326  11.934 -1.9074 -1.4711  3.1187
 7032TIP3   OH242510   5.794   3.761   2.665  0.4665 -0.2121  0.4550
 7032TIP3    H142511   5.715   3.764   2.719  0.5420  1.0931  0.4981
 7032TIP3    H242512   5.849   3.832   2.699  0.0787  1.3255 -2.0008
 7033TIP3   OH242513   5.311   5.361  12.248 -0.3262 -0.2716 -0.0503
 7033TIP3    H142514   5.293   5.436  12.305  0.8596 -0.1208  0.1467
 7033TIP3    H242515   5.391   5.385  12.201  0.4226 -1.6702  0.4825
 7034TIP3   OH242516   0.032   6.688   3.034  0.0791  0.4927  0.4683
 7034TIP3    H142517   0.115   6.638   3.032  0.7414  1.5612  1.1765
 7034TIP3    H242518  -0.023   6.643   2.970  0.9513 -0.6807  0.5164
 7035TIP3   OH242519   5.749   1.210   2.704  0.1502  0.4274  0.9887
 7035TIP3    H142520   5.673   1.253   2.743 -0.7862 -0.5659  0.2919
 7035TIP3    H242521   5.814   1.279   2.695 -0.2237  1.0212  2.7394
 7036TIP3   OH242522   6.759   2.050   3.302 -0.0136 -0.1766  0.2816
 7036TIP3    H142523   6.813   1.973   3.281  0.0774 -0.3644  1.2118
 7036TIP3    H242524   6.813   2.102   3.362 -0.9074 -0.4132  1.2994
 7037TIP3   OH242525   4.798   2.055  12.175  0.0424 -0.0543  0.0036
 7037TIP3    H142526   4.740   2.047  12.100 -0.0974  0.0756  0.0966
 7037TIP3    H242527   4.787   2.146  12.204 -0.4068 -0.2876  0.5870
 7038TIP3   OH242528   2.171   6.338   0.862 -0.4760 -0.0601 -0.3634
 7038TIP3    H142529   2.136   6.266   0.809 -0.6908 -0.9727  0.9899
 7038TIP3    H242530   2.246   6.371   0.811 -0.0171 -1.6158 -0.7298
 7039TIP3   OH242531   1.617   5.732   4.108 -0.1456  0.1489 -0.7589
 7039TIP3    H142532   1.552   5.799   4.128  0.2879  0.3325  0.0481
 7039TIP3    H242533   1.565   5.655   4.084 -0.6431  0.6643 -1.3460
 7040TIP3   OH242534   5.441   4.005  14.036 -0.3982 -0.4834  0.3107
 7040TIP3    H142535   5.361   4.019  13.984 -1.0113  0.7482  1.5582
 7040TIP3    H242536   5.510   3.995  13.971 -1.5057 -1.2438 -0.7885
 7041TIP3   OH242537   6.707   1.036   5.901  0.6832  0.3203 -0.2688
 7041TIP3    H142538   6.646   1.099   5.863  1.4674  2.0981  1.3632
 7041TIP3    H242539   6.793   1.062   5.868  0.6548 -2.1469 -2.5179
 7042TIP3   OH242540   1.480   4.758  12.700  0.4490  0.1956 -0.0602
 7042TIP3    H142541   1.423   4.746  12.775 -0.7213  0.0319 -0.9626
 7042TIP3    H242542   1.443   4.702  12.631  1.7231  0.0333 -0.6503
 7043TIP3   OH242543   1.766   5.448   3.143  0.5277 -0.2748 -0.0111
 7043TIP3    H142544   1.770   5.475   3.235 -3.0116 -0.4082  0.2432
 7043TIP3    H242545   1.741   5.356   3.145 -0.1741 -0.1220 -1.0943
 7044TIP3   OH242546   2.215   2.365  11.717 -0.3445 -0.5428 -0.2546
 7044TIP3    H142547   2.253   2.392  11.801  0.7317  0.4124 -1.0393
 7044TIP3    H242548   2.129   2.407  11.715 -1.0308 -1.8025  1.0275
 7045TIP3   OH242549   3.742   3.838   1.135  0.4768 -0.2430  0.1288
 7045TIP3    H142550   3.818   3.854   1.190 -0.2093  0.5004  0.8690
 7045TIP3    H242551   3.667   3.865   1.188 -0.2690 -0.4824 -0.7819
 7046TIP3   OH242552   2.908   3.086  11.724  0.0772  0.0752 -0.3182
 7046TIP3    H142553   2.962   3.050  11.654  0.3673  0.7994 -0.4683
 7046TIP3    H242554   2.949   3.170  11.745 -1.3686  0.9236 -0.8666
 7047TIP3   OH242555   0.162   2.750  15.289  0.3848 -0.2504 -0.1476
 7047TIP3    H142556   0.143   2.791  15.373  0.7021 -0.3882 -0.0045
 7047TIP3    H242557   0.103   2.792  15.227 -0.2165 -0.5219  0.2437
 7048TIP3   OH242558   3.148   2.552   4.361 -0.0760 -0.2236  0.2157
 7048TIP3    H142559   3.160   2.486   4.292  0.5589 -1.5900  1.5817
 7048TIP3    H242560   3.218   2.616   4.345 -1.9238  1.2175 -2.3078
 7049TIP3   OH242561   4.157   3.238   3.814 -0.3435 -0.4740  0.1062
 7049TIP3    H142562   4.216   3.258   3.741  1.6159  0.2127  1.8036
 7049TIP3    H242563   4.089   3.305   3.808  0.1132 -0.0751 -0.7525
 7050TIP3   OH242564   0.557   2.978  12.412  0.5272  0.0738 -0.5186
 7050TIP3    H142565   0.579   2.886  12.425 -0.1378 -0.1933 -1.2545
 7050TIP3    H242566   0.503   3.001  12.488 -1.1271 -0.7488 -1.4174
 7051TIP3   OH242567   4.937   2.729   4.766  0.3462 -0.0212  0.2961
 7051TIP3    H142568   4.921   2.767   4.853  0.1884 -0.4317  0.4460
 7051TIP3    H242569   5.032   2.725   4.759  0.3687  0.6723  0.1613
 7052TIP3   OH242570   4.583   4.306  14.768 -0.4243 -0.4687  0.0738
 7052TIP3    H142571   4.522   4.282  14.699 -1.4623  0.9411  0.4885
 7052TIP3    H242572   4.536   4.369  14.822  0.4246 -1.4186  1.9927
 7053TIP3   OH242573   2.748   1.477   4.637 -0.1443  0.3446 -0.8126
 7053TIP3    H142574   2.754   1.567   4.669  2.0162  0.8925 -2.5964
 7053TIP3    H242575   2.762   1.423   4.714  0.1352  1.5636  0.0002
 7054TIP3   OH242576   5.252   1.986  14.246 -0.2421  0.0094  0.0354
 7054TIP3    H142577   5.216   2.069  14.278 -0.3269 -0.2854  0.7108
 7054TIP3    H242578   5.210   1.973  14.161  0.0422  0.8391 -0.2370
 7055TIP3   OH242579   3.226   2.305   4.649 -0.3767  0.3284  0.1973
 7055TIP3    H142580   3.298   2.244   4.635  0.3729  1.1447  0.4410
 7055TIP3    H242581   3.264   2.375   4.702 -1.6573  0.1598  1.3780
 7056TIP3   OH242582   6.183   4.553   1.066 -0.0353  0.0551 -0.7558
 7056TIP3    H142583   6.247   4.624   1.070  0.7065 -0.3825 -3.5819
 7056TIP3    H242584   6.230   4.476   1.099  0.2705  0.1452 -0.9803
 7057TIP3   OH242585   4.130   0.601   2.137 -0.0464 -0.5117 -0.4925
 7057TIP3    H142586   4.154   0.578   2.227 -1.0531  0.4915  0.0437
 7057TIP3    H242587   4.127   0.517   2.091 -0.3352 -1.1138  0.6099
 7058TIP3   OH242588   5.080   0.699   3.645 -0.3686  0.0242 -0.2760
 7058TIP3    H142589   5.063   0.605   3.641 -1.8051  0.2944 -0.7018
 7058TIP3    H242590   5.085   0.726   3.553  0.2964  0.3279 -0.1553
 7059TIP3   OH242591   0.073   1.162  11.157 -0.5096 -0.0678 -0.0450
 7059TIP3    H142592   0.050   1.070  11.169  1.0865 -0.4533  0.0603
 7059TIP3    H242593   0.056   1.178  11.064 -3.0530  0.1929  0.4195
 7060TIP3   OH242594   3.653   0.476  15.166 -0.0556  0.6656 -0.7068
 7060TIP3    H142595   3.608   0.560  15.155  0.6250  0.9428 -1.3954
 7060TIP3    H242596   3.699   0.462  15.083  0.4037 -0.0520 -0.3356
 7061TIP3   OH242597   1.155   2.736   5.023  0.0948  0.4728 -0.6664
 7061TIP3    H142598   1.151   2.652   5.069  0.4704  0.6276 -0.3494
 7061TIP3    H242599   1.227   2.726   4.961  0.2955  0.6469 -0.4597
 7062TIP3   OH242600   3.120   2.761   3.711  0.0336 -0.4769 -0.3636
 7062TIP3    H142601   3.086   2.691   3.655  1.6308 -1.0989 -0.5859
 7062TIP3    H242602   3.133   2.835   3.652 -2.0925  0.2003 -0.0468
 7063TIP3   OH242603   4.821   2.578   2.237 -0.0114 -0.8714  0.0903
 7063TIP3    H142604   4.874   2.596   2.315 -1.1971 -1.4628  1.0431
 7063TIP3    H242605   4.731   2.578   2.268 -0.7443  1.9249 -1.8558
 7064TIP3   OH242606   1.779   2.892  15.959  0.1425  0.4862 -0.5028
 7064TIP3    H142607   1.701   2.856  15.916  0.8749 -2.6274  0.5972
 7064TIP3    H242608   1.852   2.846  15.918  1.2381  1.6914  0.0682
 7065TIP3   OH242609   1.429   2.445  16.906  0.1356  0.7762 -0.5625
 7065TIP3    H142610   1.501   2.413  16.852  0.1059  0.1391 -0.2184
 7065TIP3    H242611   1.398   2.369  16.954 -1.3190  0.8659 -1.3275
 7066TIP3   OH242612   3.427   1.016  15.003  0.1600  0.1522 -0.3384
 7066TIP3    H142613   3.352   0.957  15.011  0.7721 -0.6622 -0.5673
 7066TIP3    H242614   3.404   1.074  14.930 -1.4805  1.7548  1.3848
 7067TIP3   OH242615   5.311   4.571   2.290  0.3113  0.0105  0.0221
 7067TIP3    H142616   5.309   4.665   2.310 -0.2406 -0.0541  0.2801
 7067TIP3    H242617   5.258   4.562   2.211  0.0435 -0.1332  0.2169
 7068TIP3   OH242618   0.965   6.145   2.466 -0.1573  0.5975  0.4635
 7068TIP3    H142619   0.965   6.186   2.553  1.4840  0.5879  0.4726
 7068TIP3    H242620   0.948   6.217   2.406 -3.2762  0.3083  0.8938
 7069TIP3   OH242621   2.560   2.647  11.998  0.2267 -0.2427  0.2582
 7069TIP3    H142622   2.526   2.616  12.082 -0.3738  0.6256  0.3402
 7069TIP3    H242623   2.525   2.735  11.989  0.9002 -0.0560 -0.5634
 7070TIP3   OH242624   5.649   1.202   1.556 -0.7159  0.1209  0.5148
 7070TIP3    H142625   5.668   1.218   1.648 -0.9842  2.5870  0.1535
 7070TIP3    H242626   5.691   1.274   1.509 -1.0701 -0.7941 -1.2449
 7071TIP3   OH242627   2.081   2.807  16.715 -0.6849 -0.0213  0.2075
 7071TIP3    H142628   2.140   2.731  16.717 -1.1852 -0.4327 -0.2454
 7071TIP3    H242629   2.111   2.859  16.640 -0.1432  0.3911  0.7085
 7072TIP3   OH242630   2.321   5.703  10.901  0.1707 -0.1181 -0.0650
 7072TIP3    H142631   2.362   5.617  10.888  0.9896  0.1313  0.7628
 7072TIP3    H242632   2.324   5.745  10.815 -0.3824 -0.9842 -0.5060
 7073TIP3   OH242633   5.592   1.965   2.584 -0.0552 -0.4375 -0.5257
 7073TIP3    H142634   5.518   1.972   2.524 -0.6129  0.4571  0.2516
 7073TIP3    H242635   5.560   1.911   2.656  0.5370 -1.3182 -0.9215
 7074TIP3   OH242636   2.309   6.068  13.191  0.8371 -0.2120 -0.1829
 7074TIP3    H142637   2.218   6.058  13.163  1.1815  0.1873 -1.4562
 7074TIP3    H242638   2.315   6.160  13.220  0.8460 -0.2306 -0.1256
 7075TIP3   OH242639   5.749   4.320   0.976  0.1998  0.1737  0.5205
 7075TIP3    H142640   5.679   4.255   0.986  0.0804  0.1639 -0.3229
 7075TIP3    H242641   5.800   4.313   1.057 -0.5300 -0.1080  0.9624
 7076TIP3   OH242642   3.213   4.029  14.128  0.8062 -0.3541 -0.3547
 7076TIP3    H142643   3.232   3.936  14.141  0.3668 -0.5110 -0.8404
 7076TIP3    H242644   3.118   4.033  14.122  0.8311  0.1225 -0.4256
 7077TIP3   OH242645   0.737   3.282   2.463  0.1677  0.4210  0.1946
 7077TIP3    H142646   0.759   3.375   2.473  2.9962 -0.3136  1.3447
 7077TIP3    H242647   0.811   3.236   2.501 -1.0389 -2.3446 -0.6764
 7078TIP3   OH242648   6.403   5.802   0.935  0.1399  0.5691 -0.2048
 7078TIP3    H142649   6.385   5.709   0.951 -0.8690  0.8342  0.3039
 7078TIP3    H242650   6.316   5.840   0.921  0.6291  1.2508 -1.4797
 7079TIP3   OH242651   2.046   2.305   4.390  0.0025  0.1581  0.1686
 7079TIP3    H142652   2.016   2.385   4.430  0.6802  0.6472 -0.2827
 7079TIP3    H242653   2.111   2.270   4.451  1.0811  0.9355 -0.5157
 7080TIP3   OH242654   5.449   3.022   2.324  0.1228 -0.1908 -0.1170
 7080TIP3    H142655   5.405   3.093   2.277  1.3893  0.0093 -1.0230
 7080TIP3    H242656   5.399   3.012   2.405 -2.0014 -0.4312 -1.4118
 7081TIP3   OH242657   6.437   2.602   2.849  0.0499 -0.4727  0.1370
 7081TIP3    H142658   6.374   2.533   2.872  0.1242 -0.7768 -0.5658
 7081TIP3    H242659   6.414   2.675   2.907 -0.8055 -0.6622  0.0470
 7082TIP3   OH242660   0.699   5.644  11.994 -0.6016 -0.4035 -0.4932
 7082TIP3    H142661   0.676   5.601  11.912 -1.1272 -1.8514  0.3887
 7082TIP3    H242662   0.634   5.612  12.057 -1.0175  1.7115  0.2003
 7083TIP3   OH242663   2.025   3.064   2.968  0.1922 -0.9302 -0.2759
 7083TIP3    H142664   2.083   3.125   3.013 -0.4315  0.1451 -0.9066
 7083TIP3    H242665   2.013   2.992   3.030 -2.7959  1.7549  2.4442
 7084TIP3   OH242666   3.688   2.398  16.860  0.0710 -0.1204 -0.1519
 7084TIP3    H142667   3.783   2.392  16.849 -0.1232  1.9822 -3.7779
 7084TIP3    H242668   3.670   2.492  16.864 -2.0486 -0.4276 -1.8027
 7085TIP3   OH242669   0.711   2.005   3.919  0.0711 -0.8066 -0.7947
 7085TIP3    H142670   0.672   2.062   3.853  0.0748  0.7088  0.4653
 7085TIP3    H242671   0.784   2.056   3.955 -1.6542 -0.4124  2.3283
 7086TIP3   OH242672   2.228   0.063   2.786  0.0895  0.0614 -0.4938
 7086TIP3    H142673   2.244   0.147   2.744 -3.2696  0.6790 -0.6458
 7086TIP3    H242674   2.290   0.003   2.744  1.1155  2.0136 -1.8375
 7087TIP3   OH242675   3.651   2.018  14.142 -0.0466  0.1426 -0.2441
 7087TIP3    H142676   3.568   1.987  14.177 -0.4638  2.4611  0.9446
 7087TIP3    H242677   3.632   2.107  14.112  1.0493 -0.7044 -3.6313
 7088TIP3   OH242678   1.362   6.782  17.019 -0.4202 -0.2734  0.0638
 7088TIP3    H142679   1.349   6.768  17.112 -0.7898 -1.7799 -0.2022
 7088TIP3    H242680   1.449   6.821  17.012  0.1260 -1.3158  0.9503
 7089TIP3   OH242681   4.276   2.686   5.092  0.0426  0.2931  0.1904
 7089TIP3    H142682   4.244   2.612   5.040  1.8446  0.5626 -1.3341
 7089TIP3    H242683   4.211   2.755   5.077 -1.5790 -0.8751  1.5093
 7090TIP3   OH242684   3.688   2.214   5.035  0.0659 -0.0259 -0.1448
 7090TIP3    H142685   3.610   2.237   5.085  0.7275 -0.9271  1.3565
 7090TIP3    H242686   3.743   2.292   5.039 -0.5347  0.4273 -0.7554
 7091TIP3   OH242687   4.916   5.738   3.460 -0.0048  0.0587 -0.0941
 7091TIP3    H142688   4.842   5.759   3.403  0.6301  0.1414 -0.9073
 7091TIP3    H242689   4.993   5.761   3.408  0.6413 -1.6902  0.0397
 7092TIP3   OH242690   2.466   1.305  14.996 -0.2689  0.2036  0.4690
 7092TIP3    H142691   2.532   1.361  15.037 -0.7190  0.3254  1.0368
 7092TIP3    H242692   2.434   1.250  15.068  0.8712 -1.4791 -0.2775
 7093TIP3   OH242693   3.757   3.364   1.122 -0.1061 -0.1478  0.1522
 7093TIP3    H142694   3.810   3.388   1.199 -0.4563  0.2811  0.2631
 7093TIP3    H242695   3.704   3.442   1.105 -2.9135 -1.5723  1.8742
 7094TIP3   OH242696   0.250   3.510   6.011 -0.2697 -0.0069  0.3372
 7094TIP3    H142697   0.261   3.605   6.003 -0.8784  0.0754  0.5045
 7094TIP3    H242698   0.235   3.480   5.921 -2.7204  0.3820  0.5852
 7095TIP3   OH242699   2.561   5.271  12.778 -0.0297  0.1006 -0.0821
 7095TIP3    H142700   2.562   5.286  12.873  0.4431  0.9838 -0.2240
 7095TIP3    H242701   2.590   5.180  12.768  0.9106  0.3212  0.5649
 7096TIP3   OH242702   5.473   5.906  14.060 -0.1174 -0.5192  0.1989
 7096TIP3    H142703   5.558   5.937  14.091  0.2303  0.9926 -2.1042
 7096TIP3    H242704   5.493   5.826  14.011 -0.1893 -0.8735  0.7470
 7097TIP3   OH242705   5.158   3.443  15.763  0.0754  0.2052  0.1072
 7097TIP3    H142706   5.202   3.416  15.845  1.7597  3.0419  0.2170
 7097TIP3    H242707   5.073   3.476  15.791  0.9427  1.8703  0.8452
 7098TIP3   OH242708   1.126   3.720   3.531 -0.0964  0.4672 -0.3238
 7098TIP3    H142709   1.049   3.742   3.478  0.9711  2.7584 -0.9766
 7098TIP3    H242710   1.179   3.664   3.474 -0.5265  0.1929 -0.4536
 7099TIP3   OH242711   0.401   0.239   0.672 -0.2965  0.3255 -0.7277
 7099TIP3    H142712   0.330   0.303   0.667  1.4498  2.4566  0.7482
 7099TIP3    H242713   0.373   0.177   0.738 -1.3823  0.3607 -1.1430
 7100TIP3   OH242714   1.073   2.175   2.507  0.2428  0.1567  0.5643
 7100TIP3    H142715   1.136   2.240   2.478  0.1229 -0.0389 -0.1373
 7100TIP3    H242716   1.126   2.103   2.542  0.3584  1.2694  2.7772
 7101TIP3   OH242717   3.133   6.492   0.463  0.5258  0.0541 -0.0483
 7101TIP3    H142718   3.226   6.470   0.456  0.2088 -1.2614 -0.1948
 7101TIP3    H242719   3.122   6.523   0.553  1.0820  0.1004  0.0014
 7102TIP3   OH242720   1.206   0.907  13.496  0.9172  0.6998  0.4322
 7102TIP3    H142721   1.294   0.906  13.457  0.2816 -0.0961 -1.0469
 7102TIP3    H242722   1.166   0.825  13.466 -1.0728  2.0415 -0.6934
 7103TIP3   OH242723   1.507   0.716  11.001 -0.4775  0.0891  0.3712
 7103TIP3    H142724   1.538   0.679  10.918 -0.7213  0.3120  0.1809
 7103TIP3    H242725   1.437   0.658  11.028  0.1588 -0.4644  0.8451
 7104TIP3   OH242726   1.103   0.965   3.890  0.3444  0.0336 -0.1741
 7104TIP3    H142727   1.042   1.037   3.877 -0.0566 -0.3750 -0.5863
 7104TIP3    H242728   1.086   0.934   3.979 -0.5781 -0.5669 -0.5516
 7105TIP3   OH242729   5.072   2.403   2.352 -0.0894 -0.2279 -0.6752
 7105TIP3    H142730   5.054   2.329   2.410  0.8255 -0.9016 -1.2437
 7105TIP3    H242731   5.042   2.479   2.401 -0.6304 -0.9297  0.1000
 7106TIP3   OH242732   0.180   2.973  10.888  0.1725 -0.5941  0.1025
 7106TIP3    H142733   0.193   3.055  10.936 -0.2924 -0.3155 -0.2465
 7106TIP3    H242734   0.264   2.957  10.845  0.1174 -0.0397 -0.2266
 7107TIP3   OH242735   1.818   4.996  13.409  0.1395 -0.5499 -0.2881
 7107TIP3    H142736   1.786   5.079  13.373  0.8972 -0.8120 -1.5680
 7107TIP3    H242737   1.913   4.999  13.397  0.5161 -0.2940  2.4200
 7108TIP3   OH242738   4.413   3.820   3.921  0.1988 -0.5692  0.2303
 7108TIP3    H142739   4.352   3.886   3.955 -0.5118 -0.8387 -0.4905
 7108TIP3    H242740   4.403   3.746   3.980 -0.3235 -0.6860 -0.0010
 7109TIP3   OH242741   1.491   6.244  15.985 -0.3133  0.6460  0.2989
 7109TIP3    H142742   1.495   6.333  15.952 -1.0427  0.0425 -1.5227
 7109TIP3    H242743   1.420   6.244  16.049 -0.2837  1.3724  0.3259
 7110TIP3   OH242744   2.301   1.914  13.946  0.2676 -0.0462 -0.2187
 7110TIP3    H142745   2.282   1.842  14.006  1.1157  1.0571  1.4228
 7110TIP3    H242746   2.396   1.923  13.949  0.1937  0.9295 -0.6592
 7111TIP3   OH242747   3.274   0.600  16.321  0.3585 -0.4237  0.4242
 7111TIP3    H142748   3.322   0.682  16.305  1.8135 -0.2412  4.9277
 7111TIP3    H242749   3.183   0.628  16.330  0.9419  0.9277  2.7638
 7112TIP3   OH242750   0.404   0.418  16.753  0.3033  0.0393 -0.0186
 7112TIP3    H142751   0.313   0.437  16.778 -0.4845 -0.4106 -2.3514
 7112TIP3    H242752   0.424   0.483  16.686  1.3990 -0.3892 -0.1107
 7113TIP3   OH242753   6.523   2.265   5.127  0.3118  1.2576 -0.3501
 7113TIP3    H142754   6.538   2.326   5.199 -0.1634  1.4549 -0.4188
 7113TIP3    H242755   6.554   2.181   5.161  0.3893  1.4120 -0.0333
 7114TIP3   OH242756   3.299   1.552   6.046  0.3763 -0.3276  0.5941
 7114TIP3    H142757   3.392   1.532   6.059  0.8164 -0.1745 -2.0856
 7114TIP3    H242758   3.299   1.641   6.009 -0.8217 -0.4270  0.3553
 7115TIP3   OH242759   0.088   1.866   1.708 -0.5932  0.4278 -0.0426
 7115TIP3    H142760   0.125   1.929   1.646 -0.4856  0.9254  0.5122
 7115TIP3    H242761   0.054   1.795   1.654  0.3928  0.3751 -0.6059
 7116TIP3   OH242762   1.460   3.150   2.517 -0.3142  0.6040 -0.1297
 7116TIP3    H142763   1.497   3.218   2.573 -0.6322  0.5805  0.1127
 7116TIP3    H242764   1.370   3.180   2.499 -0.7286 -0.1436  0.6435
 7117TIP3   OH242765   1.599   2.040   4.648 -0.6019 -0.1731  0.1700
 7117TIP3    H142766   1.630   2.127   4.623 -1.9927 -0.1991 -1.8070
 7117TIP3    H242767   1.615   2.034   4.742  1.5246  1.3674 -0.0653
 7118TIP3   OH242768   2.041   4.492   1.489  0.4870  0.7974 -0.2269
 7118TIP3    H142769   2.048   4.460   1.399 -0.0230  0.4056 -0.1328
 7118TIP3    H242770   1.988   4.572   1.482 -1.0108 -0.1505 -0.0881
 7119TIP3   OH242771   3.394   3.610   3.961  0.0269  0.0520 -0.3866
 7119TIP3    H142772   3.384   3.515   3.957  1.3698 -0.3206  3.1629
 7119TIP3    H242773   3.470   3.629   3.906  0.3696 -1.0811 -0.3037
 7120TIP3   OH242774   0.103   1.697  15.766  0.0757  0.4499 -0.2037
 7120TIP3    H142775   0.022   1.746  15.780  0.2497  0.9362 -0.8747
 7120TIP3    H242776   0.118   1.652  15.849 -1.6929 -0.8541 -0.5462
 7121TIP3   OH242777   2.462   2.737   0.594  0.2175 -0.4736  0.3297
 7121TIP3    H142778   2.396   2.792   0.552  0.8134 -0.7699 -1.0183
 7121TIP3    H242779   2.424   2.714   0.679 -0.7259  0.6573  0.2194
 7122TIP3   OH242780   3.405   2.160  12.402 -0.0739  0.2022  1.1939
 7122TIP3    H142781   3.328   2.212  12.425 -0.3333 -0.6181  2.2170
 7122TIP3    H242782   3.370   2.086  12.352 -0.1216 -0.9502  2.9154
 7123TIP3   OH242783   4.089   1.321  14.053 -0.6790  0.1465  0.1681
 7123TIP3    H142784   4.052   1.233  14.052 -1.5218  0.4989 -0.3022
 7123TIP3    H242785   4.176   1.311  14.014 -1.0834 -0.3384 -0.6273
 7124TIP3   OH242786   2.456   1.051  11.026  0.4207  0.2129  0.3217
 7124TIP3    H142787   2.543   1.013  11.040  0.5412 -0.4750 -2.1058
 7124TIP3    H242788   2.443   1.047  10.932 -1.5445  1.9131  0.4883
 7125TIP3   OH242789   1.356   1.553  13.910 -0.0427 -0.2602 -0.2579
 7125TIP3    H142790   1.405   1.631  13.885 -1.0344  0.2196 -0.7060
 7125TIP3    H242791   1.337   1.565  14.004 -0.2222  0.0524 -0.3336
 7126TIP3   OH242792   0.797   5.567  15.055 -0.0949  0.3125  0.0726
 7126TIP3    H142793   0.708   5.569  15.090  0.1349  0.5758  0.6462
 7126TIP3    H242794   0.854   5.582  15.131  0.4559 -0.1619 -0.2364
 7127TIP3   OH242795   5.275   0.366  10.865  0.0525 -0.1514 -0.1394
 7127TIP3    H142796   5.187   0.365  10.827 -0.3940 -2.2366  0.8762
 7127TIP3    H242797   5.333   0.345  10.791 -0.5244 -1.1371 -0.3234
 7128TIP3   OH242798   5.406   4.830   2.617 -0.0425  0.2059  0.8828
 7128TIP3    H142799   5.316   4.797   2.618  0.5623 -1.5669  0.0860
 7128TIP3    H242800   5.415   4.879   2.698 -0.9742 -1.7331  2.2052
 7129TIP3   OH242801   6.170   5.311   0.240  0.8548  0.4925  0.3824
 7129TIP3    H142802   6.250   5.362   0.256  1.8790 -0.2616 -1.9817
 7129TIP3    H242803   6.132   5.351   0.161 -1.6014  1.3797  1.9619
 7130TIP3   OH242804   5.047   3.204  14.461 -0.2547 -0.1239 -0.1494
 7130TIP3    H142805   5.101   3.228  14.385  0.9518  1.6177  1.2388
 7130TIP3    H242806   5.082   3.119  14.488  1.1186  0.4863  0.0679
 7131TIP3   OH242807   1.538   4.046   1.632 -0.3753 -0.0791  0.5413
 7131TIP3    H142808   1.477   4.118   1.617  0.9081  1.3006  1.7862
 7131TIP3    H242809   1.623   4.080   1.604 -0.2780 -2.3029 -2.0717
 7132TIP3   OH242810   1.503   5.474   1.573  0.2890 -0.4759  0.1352
 7132TIP3    H142811   1.577   5.443   1.521  1.1109  1.8303 -0.1438
 7132TIP3    H242812   1.539   5.486   1.661  0.6146  1.8399 -0.2824
 7133TIP3   OH242813   4.977   3.017   0.248 -0.1760 -0.4228  0.4983
 7133TIP3    H142814   5.015   3.090   0.199  1.9080 -0.3737  2.1079
 7133TIP3    H242815   4.897   3.054   0.285  0.1721  0.6610  0.2022
 7134TIP3   OH242816   4.744   0.248   3.037  0.3192  0.1015  0.0685
 7134TIP3    H142817   4.738   0.235   2.942 -1.2618  1.0188  0.0238
 7134TIP3    H242818   4.676   0.191   3.073  1.5594 -0.9755  0.7270
 7135TIP3   OH242819   6.621   5.676   3.593  0.0533  0.0559  0.0535
 7135TIP3    H142820   6.645   5.764   3.562  1.1409  0.4352  1.8992
 7135TIP3    H242821   6.540   5.691   3.643  0.9006  0.2488  1.4163
 7136TIP3   OH242822   0.980   1.588   1.378  0.1526 -0.2443 -0.3401
 7136TIP3    H142823   0.995   1.556   1.289  2.9382  0.5079 -0.2009
 7136TIP3    H242824   0.956   1.680   1.367  1.8584  0.2297 -0.2892
 7137TIP3   OH242825   1.414   5.891   5.584  0.0525 -0.3914  0.1471
 7137TIP3    H142826   1.443   5.971   5.628 -1.4167 -0.0683  0.5474
 7137TIP3    H242827   1.427   5.822   5.650  2.2595 -0.6728 -0.5346
 7138TIP3   OH242828   4.699   5.237  16.536  0.6492 -0.1658 -0.8926
 7138TIP3    H142829   4.739   5.324  16.547 -0.9160  0.3203  1.2781
 7138TIP3    H242830   4.635   5.250  16.466 -0.2642  0.7147  0.0786
 7139TIP3   OH242831   5.862   1.075  14.993  0.0543  0.0486  0.2729
 7139TIP3    H142832   5.926   1.004  14.988  0.6877  0.4886  1.6742
 7139TIP3    H242833   5.796   1.043  15.054  0.3158  0.6223  0.8695
 7140TIP3   OH242834   3.268   4.633  16.195  0.8777 -0.0284  0.1417
 7140TIP3    H142835   3.220   4.555  16.168  0.9890  0.0683 -0.3402
 7140TIP3    H242836   3.255   4.638  16.290  1.0355 -0.7436  0.1985
 7141TIP3   OH242837   5.918   3.385   4.444 -0.7144  0.2576 -0.1914
 7141TIP3    H142838   5.997   3.360   4.398 -0.4404  0.1602  0.3287
 7141TIP3    H242839   5.888   3.465   4.400 -1.2823 -0.6571 -1.4872
 7142TIP3   OH242840   3.818   4.542   1.386  0.1956 -0.0940  0.1370
 7142TIP3    H142841   3.879   4.613   1.363  0.0691 -0.1515 -0.3891
 7142TIP3    H242842   3.837   4.523   1.478 -0.2241  1.0844  0.4779
 7143TIP3   OH242843   5.146   0.106   4.945  0.6489 -0.2687  0.8236
 7143TIP3    H142844   5.228   0.056   4.946  0.3046 -0.8500  0.4320
 7143TIP3    H242845   5.120   0.110   5.037  1.7659  1.0198  1.1040
 7144TIP3   OH242846   2.666   5.791  15.460  0.2222  0.2542 -0.4258
 7144TIP3    H142847   2.695   5.725  15.397 -0.1436  1.0257 -1.4099
 7144TIP3    H242848   2.741   5.803  15.518  0.5117 -0.5683 -0.6179
 7145TIP3   OH242849   3.051   0.995   0.259  0.3322 -0.6013 -0.5216
 7145TIP3    H142850   3.015   1.036   0.180  1.5921  0.0776 -0.7553
 7145TIP3    H242851   3.024   0.903   0.252  0.0419 -0.4544 -1.5109
 7146TIP3   OH242852   1.462   3.227   0.374  0.1750 -0.1615 -0.2289
 7146TIP3    H142853   1.507   3.283   0.311 -2.1847  1.5047 -0.5235
 7146TIP3    H242854   1.375   3.212   0.335  0.3822 -3.1946  0.3415
 7147TIP3   OH242855   0.627   2.727  11.972 -0.1727  0.2197 -0.1730
 7147TIP3    H142856   0.567   2.760  12.039 -1.0697 -1.2289 -0.2304
 7147TIP3    H242857   0.571   2.675  11.914  1.1269 -1.1606 -0.2212
 7148TIP3   OH242858   3.645   6.307  13.905 -0.3789 -0.4861 -0.3430
 7148TIP3    H142859   3.695   6.296  13.824  1.4150  1.0994  0.5314
 7148TIP3    H242860   3.695   6.259  13.971  1.6580  3.5541  1.1738
 7149TIP3   OH242861   3.191   4.420   0.130  0.0284 -0.3971  0.8110
 7149TIP3    H142862   3.131   4.405   0.057 -2.3991  2.0320  2.1898
 7149TIP3    H242863   3.246   4.493   0.102 -0.2903 -0.0663  1.0371
 7150TIP3   OH242864   1.804   0.121   1.793  0.2378 -0.4555  0.2905
 7150TIP3    H142865   1.859   0.162   1.860  0.8094 -1.0259  0.1790
 7150TIP3    H242866   1.743   0.066   1.842 -0.9758  1.0343  0.4811
 7151TIP3   OH242867   4.725   5.266  15.312  0.7465  0.6027  0.5110
 7151TIP3    H142868   4.693   5.320  15.384  1.9873  2.2456 -0.1515
 7151TIP3    H242869   4.690   5.308  15.233 -1.3439 -1.6824  0.1348
 7152TIP3   OH242870   0.842   5.241  12.400  0.4621  0.1675  0.5323
 7152TIP3    H142871   0.811   5.300  12.469  0.0490 -0.4673  0.8969
 7152TIP3    H242872   0.933   5.268  12.385  0.4888  0.4520  1.1740
 7153TIP3   OH242873   6.682   1.110  11.375  0.8171 -0.2461 -0.2894
 7153TIP3    H142874   6.715   1.042  11.317 -0.1080 -0.0160 -1.1034
 7153TIP3    H242875   6.588   1.093  11.382  0.7424  0.3484  0.3101
 7154TIP3   OH242876   0.244   1.687   4.216  0.0028  0.2840 -0.7510
 7154TIP3    H142877   0.180   1.621   4.190  0.4739 -0.2141 -0.6713
 7154TIP3    H242878   0.194   1.767   4.226 -0.6900 -0.2059 -0.2166
 7155TIP3   OH242879   6.063   1.879   2.451  0.3727 -0.1827  0.2637
 7155TIP3    H142880   6.071   1.800   2.397  0.2894  0.9809 -1.5010
 7155TIP3    H242881   6.072   1.951   2.389 -0.4337  1.1987  1.7144
 7156TIP3   OH242882   0.535   4.737  12.461  0.1053  0.5309  0.0125
 7156TIP3    H142883   0.617   4.688  12.462  0.7549  1.5118 -2.2266
 7156TIP3    H242884   0.558   4.822  12.499  0.0482  0.7061 -0.3470
 7157TIP3   OH242885   4.044   3.737  14.948  0.7020 -0.1757  0.4320
 7157TIP3    H142886   4.011   3.693  15.026 -0.8266  1.9212  1.0287
 7157TIP3    H242887   4.137   3.750  14.965  0.5694 -0.5881  1.4789
 7158TIP3   OH242888   4.165   2.646   1.430 -0.4454 -0.2533  0.2484
 7158TIP3    H142889   4.209   2.583   1.487 -1.9540 -0.7706  0.8706
 7158TIP3    H242890   4.168   2.728   1.479  0.9675  0.0370 -0.2911
 7159TIP3   OH242891   5.879   0.165   4.239  0.0231  0.1077  0.2725
 7159TIP3    H142892   5.969   0.169   4.206 -0.0838  0.2179 -0.0074
 7159TIP3    H242893   5.867   0.248   4.287 -0.1685  0.4227 -0.3131
 7160TIP3   OH242894   3.384   4.804   4.844  0.5962 -0.0907 -0.5720
 7160TIP3    H142895   3.475   4.830   4.858  0.6305 -0.1955 -0.6005
 7160TIP3    H242896   3.342   4.882   4.808  0.4721  0.2271  0.2545
 7161TIP3   OH242897   2.669   0.181  16.696  0.0667  0.1688 -0.5534
 7161TIP3    H142898   2.635   0.144  16.777 -1.8844  0.0718 -1.3731
 7161TIP3    H242899   2.764   0.167  16.700 -0.1579 -0.9775  1.1071
 7162TIP3   OH242900   5.021   0.420   3.698  0.3883 -0.4941 -0.3186
 7162TIP3    H142901   4.956   0.350   3.709  0.6107 -0.9238 -1.6147
 7162TIP3    H242902   5.097   0.376   3.661  0.3812  0.5052 -1.5565
 7163TIP3   OH242903   1.254   5.030  15.744  0.1961  0.4854 -0.6697
 7163TIP3    H142904   1.254   5.001  15.652  0.2163  2.8010 -1.4353
 7163TIP3    H242905   1.344   5.058  15.760 -0.0136  0.9133 -0.2161
 7164TIP3   OH242906   4.155   0.107   3.596  0.4607  0.0630 -0.0266
 7164TIP3    H142907   4.209   0.112   3.675 -0.7271 -1.1521  0.8759
 7164TIP3    H242908   4.075   0.063   3.624  0.2404 -0.8693 -2.0301
 7165TIP3   OH242909   5.526   2.402   1.623  0.6619 -0.0870 -0.4277
 7165TIP3    H142910   5.602   2.451   1.592  1.2418  0.1151  1.2691
 7165TIP3    H242911   5.463   2.469   1.650  0.1194 -0.2595 -1.2451
 7166TIP3   OH242912   3.705   1.798  12.570  0.0418 -0.1596 -0.0135
 7166TIP3    H142913   3.678   1.851  12.495  2.8136  0.0878 -0.8770
 7166TIP3    H242914   3.756   1.727  12.532 -1.4944 -2.0532  1.3636
 7167TIP3   OH242915   0.300   5.139  16.159 -0.4827 -0.3017 -0.0702
 7167TIP3    H142916   0.293   5.210  16.095 -0.8052 -0.4154 -0.1618
 7167TIP3    H242917   0.223   5.150  16.215 -1.0796 -1.1893 -0.7003
 7168TIP3   OH242918   6.248   1.191  14.911  0.0671 -0.2269 -0.6119
 7168TIP3    H142919   6.327   1.231  14.875 -0.0146 -1.0680 -1.7446
 7168TIP3    H242920   6.280   1.136  14.982  0.5134 -0.6068 -1.1034
 7169TIP3   OH242921   6.509   1.637   5.379  0.3741 -0.1072  0.8162
 7169TIP3    H142922   6.495   1.543   5.367  1.7763 -0.0755 -1.1308
 7169TIP3    H242923   6.603   1.649   5.371  0.0294  1.7302 -0.8622
 7170TIP3   OH242924   6.732   1.346   5.031 -0.0808  0.3095  0.1507
 7170TIP3    H142925   6.715   1.277   5.095  2.3926 -1.2683 -0.7943
 7170TIP3    H242926   6.699   1.309   4.948  2.7204 -0.5036 -0.6645
 7171TIP3   OH242927   1.935   1.508   1.774  0.8147  0.0801  0.5729
 7171TIP3    H142928   2.013   1.463   1.806  0.5345 -1.0726 -0.3309
 7171TIP3    H242929   1.862   1.464   1.817  0.6856  1.7042  2.0650
 7172TIP3   OH242930   6.213   2.697  13.465  0.7213  0.1402  0.1721
 7172TIP3    H142931   6.290   2.667  13.513  1.1021  2.0131  0.7855
 7172TIP3    H242932   6.140   2.649  13.503  1.6579 -2.2062 -0.9213
 7173TIP3   OH242933   5.229   2.792  15.435 -0.7541  0.2756  0.2646
 7173TIP3    H142934   5.281   2.851  15.381  1.6995  0.9110  3.2011
 7173TIP3    H242935   5.154   2.844  15.464  0.8373  1.6753  1.9578
 7174TIP3   OH242936   6.557   1.038   3.701  0.2074 -0.0129 -0.1686
 7174TIP3    H142937   6.624   1.102   3.678  0.4990 -0.6329 -1.1069
 7174TIP3    H242938   6.499   1.084   3.760  1.5731  0.4778  0.8233
 7175TIP3   OH242939   3.520   2.029  15.826 -0.3890 -0.2369  0.3809
 7175TIP3    H142940   3.513   2.117  15.789 -2.0555 -0.4859  0.0394
 7175TIP3    H242941   3.477   1.972  15.762  1.3029 -1.4182  0.2556
 7176TIP3   OH242942   2.218   0.176  14.146  0.5745 -0.0801  0.0746
 7176TIP3    H142943   2.141   0.130  14.180  1.7620 -1.6366  0.7229
 7176TIP3    H242944   2.194   0.269  14.149 -1.4065 -0.5701 -0.0908
 7177TIP3   OH242945   2.679   5.491  13.937 -0.5001 -0.3251  0.3252
 7177TIP3    H142946   2.641   5.576  13.960 -0.8242 -1.0459  2.6002
 7177TIP3    H242947   2.620   5.456  13.870 -0.5978  1.0432 -0.3310
 7178TIP3   OH242948   6.730   1.572  15.106 -0.2727  0.0293 -0.4084
 7178TIP3    H142949   6.824   1.576  15.089 -0.4653 -1.1662 -1.8675
 7178TIP3    H242950   6.689   1.620  15.034 -0.8121 -0.0037 -0.1305
 7179TIP3   OH242951   4.219   0.501  11.358 -0.5002  0.5283  0.0543
 7179TIP3    H142952   4.193   0.409  11.363 -0.8412  0.5656 -0.9300
 7179TIP3    H242953   4.239   0.515  11.265  0.8450  1.0926  0.4276
 7180TIP3   OH242954   3.178   1.238   1.649  0.1464 -0.0502  0.2499
 7180TIP3    H142955   3.175   1.143   1.656  1.4705 -0.1332 -0.1588
 7180TIP3    H242956   3.267   1.261   1.676 -0.3542  1.1252  0.9410
 7181TIP3   OH242957   3.407   4.947  10.713 -0.1191  0.2945  0.4979
 7181TIP3    H142958   3.426   5.037  10.686  0.2268 -0.1692 -0.8144
 7181TIP3    H242959   3.463   4.934  10.791 -0.4917  1.3422  0.9519
 7182TIP3   OH242960   1.067   4.013  11.813  0.6180 -0.3206 -0.4341
 7182TIP3    H142961   1.056   4.105  11.838  1.0921 -0.4917  0.4268
 7182TIP3    H242962   1.156   3.991  11.841  0.0646 -1.4019  0.5342
 7183TIP3   OH242963   6.054   4.191  15.674  0.4752 -0.6088 -0.3542
 7183TIP3    H142964   6.002   4.271  15.677 -1.1176 -1.6271 -0.4548
 7183TIP3    H242965   6.010   4.135  15.610  0.3341 -2.4042  1.2637
 7184TIP3   OH242966   6.349   3.606   4.788 -0.5610 -0.2100  0.4369
 7184TIP3    H142967   6.424   3.649   4.746 -1.8884  3.6467  1.7600
 7184TIP3    H242968   6.380   3.587   4.877  0.0481 -2.1173 -0.1700
 7185TIP3   OH242969   1.949   1.539   6.084  0.1476  0.0659 -0.5819
 7185TIP3    H142970   1.980   1.617   6.129  1.0217 -0.8519  0.4252
 7185TIP3    H242971   1.861   1.525   6.119 -1.0089  1.9617 -2.5454
 7186TIP3   OH242972   0.204   1.728  15.503  0.0331  0.2788 -0.3097
 7186TIP3    H142973   0.194   1.744  15.597  0.9369  1.2965 -0.3766
 7186TIP3    H242974   0.118   1.747  15.466 -0.0021  1.0462  0.1587
 7187TIP3   OH242975   4.444   4.495  15.345 -0.4902  0.0478 -0.1605
 7187TIP3    H142976   4.357   4.498  15.384 -1.0000 -2.9059 -0.9244
 7187TIP3    H242977   4.431   4.455  15.259  1.1863  2.7147 -1.7068
 7188TIP3   OH242978   4.499   4.987   1.398  0.2977  0.2651  0.3201
 7188TIP3    H142979   4.552   4.907   1.395  0.7138  0.5424  0.1437
 7188TIP3    H242980   4.564   5.058   1.394 -0.1738  0.6105 -1.6005
 7189TIP3   OH242981   3.803   3.950   1.620 -0.2010  0.2578  0.3915
 7189TIP3    H142982   3.710   3.927   1.614 -0.1366  0.0779  0.0197
 7189TIP3    H242983   3.804   4.037   1.660 -0.4940 -0.0451  1.0552
 7190TIP3   OH242984   2.096   0.423   0.003  0.5746  0.2032  0.1748
 7190TIP3    H142985   2.140   0.339  -0.012 -1.0194 -0.4595 -1.0150
 7190TIP3    H242986   2.133   0.481  -0.063 -0.6749 -0.5188 -1.2260
 7191TIP3   OH242987   6.007   1.344   5.042 -0.5000 -0.0090  0.2226
 7191TIP3    H142988   5.957   1.262   5.046 -0.8041  0.0925 -1.2255
 7191TIP3    H242989   5.953   1.408   5.088 -1.0156 -0.2442 -0.0576
 7192TIP3   OH242990   0.458   0.618  16.543 -0.0723 -0.0158 -0.2273
 7192TIP3    H142991   0.499   0.570  16.471 -2.0296 -0.5965 -1.0036
 7192TIP3    H242992   0.479   0.710  16.526 -0.0129 -0.2028 -1.1994
 7193TIP3   OH242993   4.744   3.978  11.895 -0.6661 -0.1973  0.0186
 7193TIP3    H142994   4.773   3.889  11.876 -1.0981 -0.6779  1.5395
 7193TIP3    H242995   4.679   3.997  11.826 -0.6843 -1.1040 -0.2270
 7194TIP3   OH242996   4.944   0.173   4.014 -0.6219  0.4489  0.1138
 7194TIP3    H142997   4.916   0.104   4.074 -2.0476  0.2776 -0.7231
 7194TIP3    H242998   5.008   0.130   3.957  0.9238  0.6770  1.6395
 7195TIP3   OH242999   3.057   4.367   5.500  0.1786  0.0367 -0.3399
 7195TIP3    H143000   2.975   4.412   5.482 -0.2417 -0.6555 -0.1666
 7195TIP3    H243001   3.035   4.274   5.496  0.8748 -0.1495  0.0584
 7196TIP3   OH243002   2.373   3.885   6.627 -0.5122  0.0755 -0.2998
 7196TIP3    H143003   2.435   3.836   6.574 -2.0755 -0.4171 -1.7092
 7196TIP3    H243004   2.340   3.954   6.569  0.1746  1.5765  1.0476
 7197TIP3   OH243005   3.662   3.083   1.978 -0.5001  0.0486 -0.3362
 7197TIP3    H143006   3.690   3.079   2.069 -1.6334  1.4382  0.1005
 7197TIP3    H243007   3.743   3.088   1.928  0.1646 -1.6561  0.5276
 7198TIP3   OH243008   2.200   0.376   6.171 -0.4812  0.5610  0.0108
 7198TIP3    H143009   2.144   0.453   6.158  1.1444  1.8868  0.6677
 7198TIP3    H243010   2.148   0.318   6.226 -1.4144  1.5776  0.2246
 7199TIP3   OH243011   1.329   1.892  13.266 -0.2933  0.2768  0.0255
 7199TIP3    H143012   1.384   1.913  13.341  1.0386 -0.0101 -0.8480
 7199TIP3    H243013   1.350   1.959  13.201  0.2089 -0.7522 -0.8918
 7200TIP3   OH243014   6.190   1.594   1.784  0.0007  0.2089 -0.0492
 7200TIP3    H143015   6.221   1.552   1.704  1.2383  0.6046  0.2104
 7200TIP3    H243016   6.222   1.684   1.778  0.4769  0.1249  1.0893
 7201TIP3   OH243017   1.627   2.310  16.738 -0.4614 -0.7847 -0.0823
 7201TIP3    H143018   1.690   2.360  16.789 -0.7690 -1.0115  0.5260
 7201TIP3    H243019   1.677   2.280  16.662 -0.5331  1.2850 -0.9889
 7202TIP3   OH243020   3.779   0.667   3.276  0.2592 -0.0281 -0.4345
 7202TIP3    H143021   3.821   0.620   3.204  0.6480  2.3280 -1.7961
 7202TIP3    H243022   3.849   0.720   3.313 -0.8946  1.9862 -1.0794
 7203TIP3   OH243023   3.201   4.655   2.578  0.1342  0.6210  0.0327
 7203TIP3    H143024   3.176   4.679   2.488  1.9498  1.9928 -0.1404
 7203TIP3    H243025   3.196   4.560   2.580  0.5303  0.5404 -1.6890
 7204TIP3   OH243026   3.885   4.181  15.400  0.3384 -0.3642 -0.7455
 7204TIP3    H143027   3.835   4.185  15.319 -0.8445  0.7486  0.0227
 7204TIP3    H243028   3.835   4.234  15.462  1.2753 -1.1199  0.6879
 7205TIP3   OH243029   2.382   2.301  15.491  0.8833 -0.3798 -0.3846
 7205TIP3    H143030   2.300   2.287  15.444  1.9205 -1.7107 -1.8262
 7205TIP3    H243031   2.406   2.215  15.525  1.6141  0.0280  0.1605
 7206TIP3   OH243032   1.853   1.973   0.430  0.3884 -0.2605  0.4059
 7206TIP3    H143033   1.849   2.046   0.493  2.4293  2.7359 -2.7600
 7206TIP3    H243034   1.763   1.961   0.401  0.1776  1.8195  0.1107
 7207TIP3   OH243035   1.501   4.199   4.671  0.2548 -0.8940  0.1605
 7207TIP3    H143036   1.495   4.255   4.748 -2.0451  0.3537 -0.8632
 7207TIP3    H243037   1.576   4.232   4.622  0.4224 -0.3135  0.8084
 7208TIP3   OH243038   6.548   5.013  11.670  0.4241  1.0431  0.3958
 7208TIP3    H143039   6.642   4.996  11.678 -0.0696 -1.7247  0.5371
 7208TIP3    H243040   6.532   5.022  11.576  0.8211  1.5512  0.3746
 7209TIP3   OH243041   1.643   6.300  13.043 -0.2765 -0.2383 -0.0600
 7209TIP3    H143042   1.681   6.304  13.130 -0.9521  1.3768  0.1740
 7209TIP3    H243043   1.686   6.370  12.994  0.5727 -1.5429 -1.2362
 7210TIP3   OH243044   3.189   4.240   1.115  0.3598 -0.0127  0.1565
 7210TIP3    H143045   3.101   4.263   1.146 -0.7905 -0.1497 -2.8254
 7210TIP3    H243046   3.183   4.147   1.093  0.7613  0.3630 -1.6001
 7211TIP3   OH243047   1.881   3.421   4.470  0.3622  0.4860 -0.4862
 7211TIP3    H143048   1.949   3.418   4.536 -0.9348  1.2624  0.9075
 7211TIP3    H243049   1.836   3.505   4.484  0.9341  1.3095 -3.2291
 7212TIP3   OH243050   4.231   2.508   3.447  0.5251 -0.0328 -0.4410
 7212TIP3    H143051   4.193   2.594   3.464 -1.2477 -1.0453  0.8991
 7212TIP3    H243052   4.305   2.525   3.389  0.9904  2.5475  0.8376
 7213TIP3   OH243053   0.008   1.859  11.898 -0.4604  0.0614  0.0489
 7213TIP3    H143054   0.096   1.885  11.872  0.9628 -0.0826  4.2864
 7213TIP3    H243055   0.001   1.768  11.869  1.4396 -0.4354  1.0235
 7214TIP3   OH243056   6.045   5.031  15.868 -0.0554 -0.0573 -0.2419
 7214TIP3    H143057   6.006   5.100  15.921 -1.5174  0.0406 -1.3827
 7214TIP3    H243058   5.998   5.037  15.784  0.1385 -2.1073 -0.5205
 7215TIP3   OH243059   5.084   0.716   2.992  0.3575 -0.0730  0.5695
 7215TIP3    H143060   5.009   0.761   3.032  1.3124  0.4623  1.7856
 7215TIP3    H243061   5.103   0.766   2.913 -0.5594 -0.2105  0.2542
 7216TIP3   OH243062   4.424   3.613   4.097 -0.1312  0.1620  0.4157
 7216TIP3    H143063   4.369   3.554   4.149  2.1913 -0.1781  2.6040
 7216TIP3    H243064   4.461   3.674   4.161  1.1233  1.1188 -1.1687
 7217TIP3   OH243065   1.374   2.672   5.254 -0.1497  0.2100  0.5634
 7217TIP3    H143066   1.310   2.740   5.277  1.0204  1.3614  0.4885
 7217TIP3    H243067   1.452   2.721   5.227  0.4248 -1.1652 -0.3233
 7218TIP3   OH243068   3.842   1.546  11.831  0.0379  0.1820 -0.1171
 7218TIP3    H143069   3.800   1.584  11.908  3.4403 -0.1417  1.9815
 7218TIP3    H243070   3.860   1.456  11.855 -0.2366 -0.3604 -1.8728
 7219TIP3   OH243071   3.485   4.009   4.204 -0.4646  0.1097  0.4335
 7219TIP3    H143072   3.412   4.061   4.237 -2.1921 -1.6903 -0.3871
 7219TIP3    H243073   3.527   3.973   4.282 -0.6088  0.9444  0.8982
 7220TIP3   OH243074   2.639   2.296   4.015  0.6581  0.5705 -0.0459
 7220TIP3    H143075   2.697   2.256   3.950 -0.5813 -1.1833 -0.0899
 7220TIP3    H243076   2.663   2.389   4.014  2.3826  0.1302 -1.1826
 7221TIP3   OH243077   2.132   1.392   5.049 -0.8282 -0.5851  0.0663
 7221TIP3    H143078   2.087   1.422   4.971 -1.9650  1.5903  1.5294
 7221TIP3    H243079   2.077   1.420   5.122  1.2357 -0.7549  1.7505
 7222TIP3   OH243080   1.009   2.112  11.160  0.0639  0.3222  0.2217
 7222TIP3    H143081   0.958   2.094  11.239 -1.1868 -1.8659 -1.0321
 7222TIP3    H243082   1.024   2.026  11.121  1.6852  1.2601 -1.3005
 7223TIP3   OH243083   4.526   1.361   1.354  0.4970  0.2355  0.2152
 7223TIP3    H143084   4.607   1.311   1.339  0.8015  1.6385 -3.4750
 7223TIP3    H243085   4.456   1.297   1.343  0.9886 -0.0471 -1.5950
 7224TIP3   OH243086   0.620   6.034  12.428  0.0909 -0.2153  0.4260
 7224TIP3    H143087   0.696   5.990  12.388  1.3554  0.3411  2.1520
 7224TIP3    H243088   0.643   6.126  12.427 -1.3986  0.1530 -0.7474
 7225TIP3   OH243089   2.503   6.357  15.716  0.3455 -0.9398  0.5452
 7225TIP3    H143090   2.502   6.328  15.807 -2.2194  0.1113  0.9126
 7225TIP3    H243091   2.454   6.289  15.669 -1.6272  0.3799  0.6273
 7226TIP3   OH243092   3.169   6.742   0.962 -0.1773 -0.5318 -0.1101
 7226TIP3    H143093   3.251   6.768   0.921 -0.0650 -0.1826  0.3329
 7226TIP3    H243094   3.145   6.661   0.918  0.0293 -0.2535 -0.7470
 7227TIP3   OH243095   1.420   1.909   2.361  0.1369  0.4876 -0.1042
 7227TIP3    H143096   1.327   1.917   2.382  0.4112 -1.9382  2.3764
 7227TIP3    H243097   1.461   1.982   2.408 -0.4126  1.0076 -0.4329
 7228TIP3   OH243098   0.195   3.793  12.905  0.0925 -0.6922 -0.0133
 7228TIP3    H143099   0.176   3.786  12.812 -0.0686 -2.3339  0.1239
 7228TIP3    H243100   0.112   3.770  12.948 -0.5248  2.3496  0.5459
 7229TIP3   OH243101   3.420   0.492  15.345  0.5796  0.3720  0.3772
 7229TIP3    H143102   3.375   0.426  15.398  0.2560 -1.0829 -1.6346
 7229TIP3    H243103   3.511   0.461  15.341  0.3603 -0.1595 -0.8283
 7230TIP3   OH243104   1.390   5.005   4.041  0.4806 -0.5278  0.2579
 7230TIP3    H143105   1.416   4.919   4.072 -1.0943 -0.5944  1.4722
 7230TIP3    H243106   1.464   5.062   4.062  0.4886 -1.0858  1.8496
 7231TIP3   OH243107   1.124   5.192   4.016  0.4396 -0.2462 -0.5339
 7231TIP3    H143108   1.035   5.164   4.039  0.3868  0.9572  0.8162
 7231TIP3    H243109   1.111   5.265   3.956  0.4597  1.0719  1.0222
 7232TIP3   OH243110   1.967   4.849  12.530 -0.4656 -0.1076 -0.9607
 7232TIP3    H143111   2.020   4.792  12.586 -0.1097  1.4285  0.3120
 7232TIP3    H243112   2.024   4.867  12.455 -0.2576 -0.7247 -0.9578
 7233TIP3   OH243113   1.196   2.982   2.217 -0.0447  0.3477  0.1126
 7233TIP3    H143114   1.210   3.011   2.127  2.7598  0.7215  0.6232
 7233TIP3    H243115   1.118   3.029   2.245 -0.7633  0.4851 -2.0057
 7234TIP3   OH243116   4.466   2.402  12.360 -0.0322  0.1201  0.1491
 7234TIP3    H143117   4.452   2.442  12.274  0.2595 -0.1416 -0.0238
 7234TIP3    H243118   4.543   2.445  12.395  0.5323 -0.5814 -0.2198
 7235TIP3   OH243119   6.027   3.101  15.608 -0.1584 -0.5664  0.1811
 7235TIP3    H143120   5.964   3.130  15.542 -0.3966 -2.0926 -0.2889
 7235TIP3    H243121   6.080   3.035  15.562  1.6778  0.5685  0.6113
 7236TIP3   OH243122   2.467   2.285   5.378  0.5201  0.0584  0.1753
 7236TIP3    H143123   2.539   2.275   5.316  1.0605  0.3796  0.7465
 7236TIP3    H243124   2.504   2.336   5.450 -0.5664  1.1313 -0.0041
 7237TIP3   OH243125   5.264   5.569   4.494  0.2495 -0.5942 -0.2100
 7237TIP3    H143126   5.288   5.621   4.571 -0.8613 -0.7964  0.2723
 7237TIP3    H243127   5.285   5.626   4.420  0.5972 -0.1037  0.2601
 7238TIP3   OH243128   6.366   3.893   4.396  0.2724  0.3959 -0.1816
 7238TIP3    H143129   6.426   3.928   4.461  1.0314  0.1216 -0.7361
 7238TIP3    H243130   6.309   3.967   4.374  0.1207  0.5410  0.6508
 7239TIP3   OH243131   2.937   4.847   5.649 -0.3244 -0.1240  0.0017
 7239TIP3    H143132   2.897   4.836   5.562  1.0943 -1.2089 -0.5308
 7239TIP3    H243133   2.918   4.764   5.694  2.7463 -1.3633 -0.8633
 7240TIP3   OH243134   4.006   0.485  16.547 -0.5000 -0.1902 -0.2740
 7240TIP3    H143135   4.008   0.580  16.548  1.6854 -0.1863 -2.1463
 7240TIP3    H243136   3.923   0.463  16.505 -0.3336  0.8889 -1.1724
 7241TIP3   OH243137   2.071   0.822  16.353 -0.1565 -0.0200 -0.2529
 7241TIP3    H143138   2.013   0.748  16.334 -1.1564 -0.0457  2.6567
 7241TIP3    H243139   2.135   0.787  16.415  1.3472  0.7235 -1.3757
 7242TIP3   OH243140   4.751   2.315  16.962 -0.3508  0.0588 -0.0461
 7242TIP3    H143141   4.756   2.223  16.991 -0.7591  0.5470  1.6029
 7242TIP3    H243142   4.792   2.314  16.875 -2.5840 -2.1482 -1.1584
 7243TIP3   OH243143   5.942   4.226   4.151  0.0633  0.1542  0.6830
 7243TIP3    H143144   5.913   4.191   4.235 -0.1006  0.0615  0.5892
 7243TIP3    H243145   5.932   4.321   4.161 -1.4239  0.0679  0.2485
 7244TIP3   OH243146   3.890   1.427   0.410  0.3181 -0.6084 -0.0041
 7244TIP3    H143147   3.896   1.449   0.503  1.6154 -0.9211 -0.0195
 7244TIP3    H243148   3.814   1.478   0.379 -0.7448 -1.2896  1.4352
 7245TIP3   OH243149   3.754   5.507   2.712  0.2153 -0.4270 -0.4538
 7245TIP3    H143150   3.848   5.489   2.717  0.5490  0.7722 -1.8487
 7245TIP3    H243151   3.748   5.600   2.690 -1.2895 -0.5253 -0.5499
 7246TIP3   OH243152   0.168   4.807   4.001 -0.3301 -0.0385  0.4995
 7246TIP3    H143153   0.174   4.866   3.927  0.4927  0.3083  0.8479
 7246TIP3    H243154   0.076   4.777   4.000 -0.6573  0.9663  0.1289
 7247TIP3   OH243155   5.847   3.458   2.102 -0.8513  0.0008 -0.0407
 7247TIP3    H143156   5.787   3.431   2.171 -0.8358  0.8581  0.3060
 7247TIP3    H243157   5.923   3.401   2.113 -1.6676 -1.2158 -0.5986
 7248TIP3   OH243158   3.882   2.356  16.209  0.0912 -0.5676  0.1039
 7248TIP3    H143159   3.865   2.281  16.152 -1.2287  0.1880 -0.5304
 7248TIP3    H243160   3.965   2.335  16.252 -0.0384 -2.1802 -0.3900
 7249TIP3   OH243161   3.035   2.130   4.790  0.9040  0.5509  0.4989
 7249TIP3    H143162   3.045   2.039   4.762 -3.0103 -0.4049  1.8235
 7249TIP3    H243163   3.083   2.181   4.725  2.3307 -2.3668 -0.8388
 7250TIP3   OH243164   1.326   3.369   3.154  0.8075  0.6685 -0.3733
 7250TIP3    H143165   1.394   3.313   3.192 -0.0456 -0.3973 -0.3981
 7250TIP3    H243166   1.306   3.328   3.069 -0.7184  0.2587  0.1610
 7251TIP3   OH243167   5.848   6.609  12.574  0.0460 -0.0047 -0.0349
 7251TIP3    H143168   5.807   6.561  12.501  0.4428  0.7924 -0.7857
 7251TIP3    H243169   5.902   6.543  12.618 -0.0670 -0.4534 -0.5545
 7252TIP3   OH243170   6.128   0.011  14.231 -0.3919  0.2543 -0.1955
 7252TIP3    H143171   6.210  -0.037  14.247 -2.3428 -2.6074  1.6159
 7252TIP3    H243172   6.137   0.043  14.141  1.5182 -2.5409 -1.0898
 7253TIP3   OH243173   5.954   1.720   3.348 -0.1199  0.2373 -0.4125
 7253TIP3    H143174   5.995   1.803   3.375  1.3127 -0.6159  0.0988
 7253TIP3    H243175   5.869   1.746   3.314  0.2106  1.9094 -0.0405
 7254TIP3   OH243176   2.506   1.971  11.271 -0.5530 -0.1347  0.1374
 7254TIP3    H143177   2.434   1.945  11.213  0.9424  3.2464 -3.4732
 7254TIP3    H243178   2.579   1.987  11.212  1.2241  2.9141  3.0082
 7255TIP3   OH243179   3.049   4.981  16.097 -0.6215  0.2173  0.0891
 7255TIP3    H143180   3.065   5.044  16.027  2.7438 -2.2248 -1.4900
 7255TIP3    H243181   3.033   4.898  16.051  0.5678 -1.1983  2.1647
 7256TIP3   OH243182   3.201   1.935   0.425  0.6318  0.6060  0.4092
 7256TIP3    H143183   3.199   2.031   0.424 -1.4221  0.5951  1.3737
 7256TIP3    H243184   3.111   1.909   0.444  0.8429 -1.5630 -1.3170
 7257TIP3   OH243185   5.437   1.202   2.368 -0.2087 -0.5225 -0.3126
 7257TIP3    H143186   5.467   1.287   2.399 -0.7351 -0.7090  0.7166
 7257TIP3    H243187   5.495   1.139   2.410  2.0251 -0.5586 -3.2668
 7258TIP3   OH243188   1.682   3.461   0.678  0.1902 -0.4250  0.3489
 7258TIP3    H143189   1.735   3.445   0.600  0.8970  2.1370  0.2575
 7258TIP3    H243190   1.592   3.456   0.647  0.4197 -1.3743 -0.2028
 7259TIP3   OH243191   0.624   0.077  11.313 -0.1009  0.6640  0.6156
 7259TIP3    H143192   0.615   0.172  11.304  0.6951  0.8082  1.3384
 7259TIP3    H243193   0.615   0.044  11.223 -0.5432  1.3981  0.3834
 7260TIP3   OH243194   3.859   2.246  13.700 -0.0837  0.2228  0.0624
 7260TIP3    H143195   3.881   2.214  13.787 -0.1642  2.9961  1.1478
 7260TIP3    H243196   3.855   2.167  13.646  2.1637 -1.3227  2.0656
 7261TIP3   OH243197   2.131   0.184  12.256 -0.0592 -0.2096 -0.4139
 7261TIP3    H143198   2.075   0.209  12.330 -0.8257  1.4000 -1.5092
 7261TIP3    H243199   2.197   0.253  12.253 -1.5073  1.1514 -2.7649
 7262TIP3   OH243200   6.038   3.050   1.465 -0.4427  0.8203 -0.3008
 7262TIP3    H143201   6.057   3.134   1.424 -3.1763  0.8441 -1.6635
 7262TIP3    H243202   5.973   3.071   1.532 -1.1003 -0.1802 -0.6085
 7263TIP3   OH243203   5.545   1.969  17.061  0.6375  0.0382 -0.2117
 7263TIP3    H143204   5.630   1.928  17.044  0.3931 -0.4213 -0.3183
 7263TIP3    H243205   5.482   1.915  17.015  0.0256 -0.8935  1.6476
 7264TIP3   OH243206   3.867   3.586   0.246 -0.1879  0.2903 -0.0549
 7264TIP3    H143207   3.952   3.599   0.204 -0.3018 -0.2765 -0.4629
 7264TIP3    H243208   3.803   3.595   0.175 -0.5418  1.7137  0.4277
 7265TIP3   OH243209   3.022   5.746  11.706 -0.2998  0.3129  0.2422
 7265TIP3    H143210   2.989   5.825  11.747  0.1755  0.1502  0.9568
 7265TIP3    H243211   3.092   5.716  11.764 -1.2899 -1.3088  0.6439
 7266TIP3   OH243212   5.326   6.550  12.461 -0.3152  1.1576 -0.2642
 7266TIP3    H143213   5.255   6.578  12.404 -0.5765  1.1263  0.0413
 7266TIP3    H243214   5.373   6.630  12.482  0.1932  1.0750 -1.0757
 7267TIP3   OH243215   2.827   0.316  14.959  0.6654  0.1628  0.0081
 7267TIP3    H143216   2.830   0.340  15.051  0.7855 -0.4112  0.1559
 7267TIP3    H243217   2.745   0.354  14.927 -0.1839 -1.0150  0.7426
 7268TIP3   OH243218   5.941   3.978   3.791  0.1623 -0.4920 -0.0383
 7268TIP3    H143219   5.857   3.941   3.819 -0.1730  0.1505 -0.1832
 7268TIP3    H243220   5.999   3.902   3.783 -1.1409 -1.2778 -2.5760
 7269TIP3   OH243221   0.669   1.328  16.718 -0.0125 -0.5068  0.4189
 7269TIP3    H143222   0.734   1.392  16.687  0.2800 -0.8980  0.2190
 7269TIP3    H243223   0.712   1.282  16.789  0.2627 -1.3855 -0.3100
 7270TIP3   OH243224   4.545   6.189   0.348 -0.3199 -0.4929  0.6468
 7270TIP3    H143225   4.543   6.140   0.266 -0.3725  0.8377 -0.1704
 7270TIP3    H243226   4.629   6.235   0.346 -0.8522  0.4851  0.7831
 7271TIP3   OH243227   2.009   5.093   2.368 -0.2754 -0.1076 -0.3189
 7271TIP3    H143228   2.033   5.050   2.286  2.5119  0.5433  0.0947
 7271TIP3    H243229   2.016   5.024   2.434 -0.7706 -0.2162 -0.3820
 7272TIP3   OH243230   3.180   3.698  11.420  0.5842 -0.3412  0.1061
 7272TIP3    H143231   3.086   3.684  11.435  0.2898  1.5622  0.1445
 7272TIP3    H243232   3.189   3.701  11.325  0.6751 -0.8486  0.0942
 7273TIP3   OH243233   4.709   6.480  10.059 -0.3632  0.3208  0.0492
 7273TIP3    H143234   4.658   6.435   9.991  0.4088  0.8217 -0.8695
 7273TIP3    H243235   4.732   6.411  10.121 -0.2429 -0.3288 -0.7078
 7274TIP3   OH243236   6.669   4.199   2.277 -0.0609 -0.1085 -0.2445
 7274TIP3    H143237   6.630   4.134   2.336  1.4605  0.0829  1.0276
 7274TIP3    H243238   6.634   4.282   2.308  0.3882 -0.0513  0.1235
 7275TIP3   OH243239   2.076   3.295  11.987  0.3909 -0.1708  0.6395
 7275TIP3    H143240   2.012   3.229  11.960  0.3046 -0.1189  0.7214
 7275TIP3    H243241   2.045   3.327  12.071  0.4311 -0.0223  0.5981
 7276TIP3   OH243242   0.824   4.305   3.943 -0.3027  0.0394 -0.0626
 7276TIP3    H143243   0.862   4.352   4.017  0.0986  0.2024 -0.3711
 7276TIP3    H243244   0.868   4.220   3.944 -1.5420 -0.6215  0.9325
 7277TIP3   OH243245   0.717   0.441   6.046  0.0323  0.0415 -0.4645
 7277TIP3    H143246   0.656   0.368   6.058  0.0910  0.0824  0.0646
 7277TIP3    H243247   0.758   0.452   6.131 -0.4225  1.1053 -0.3854
 7278TIP3   OH243248   6.539   0.500  15.599  0.2991  0.2932  0.6234
 7278TIP3    H143249   6.562   0.426  15.655  0.0756 -2.1286 -2.3754
 7278TIP3    H243250   6.616   0.512  15.543 -0.6339  0.6426 -0.6134
 7279TIP3   OH243251   0.561   5.861   1.182 -0.1273 -0.4140 -0.1340
 7279TIP3    H143252   0.589   5.952   1.169 -1.7798  0.6033  2.9754
 7279TIP3    H243253   0.640   5.814   1.204  0.5039  0.6020 -0.1911
 7280TIP3   OH243254   2.305   2.823   3.031  0.2376  0.0624  0.2807
 7280TIP3    H143255   2.390   2.779   3.030  0.5166  0.6067 -0.1404
 7280TIP3    H243256   2.242   2.752   3.044  0.7462 -0.3524  0.5373
 7281TIP3   OH243257   0.517   6.475   3.901  0.4403  0.4830 -0.5878
 7281TIP3    H143258   0.546   6.416   3.970 -3.1261 -0.2337  0.4068
 7281TIP3    H243259   0.485   6.418   3.831 -0.0618  1.2357 -0.9848
 7282TIP3   OH243260   4.993   5.613   5.342  0.1516 -0.1457 -0.0419
 7282TIP3    H143261   4.988   5.560   5.262 -1.3857  1.8169 -1.2796
 7282TIP3    H243262   4.956   5.556   5.410  1.5050 -1.8504 -0.6788
 7283TIP3   OH243263   1.167   4.405  13.438  0.3997  0.6220 -0.5203
 7283TIP3    H143264   1.255   4.443  13.444  1.1923 -1.3626  1.0999
 7283TIP3    H243265   1.107   4.478  13.449  1.8655  1.7442  0.0795
 7284TIP3   OH243266   2.607   5.047  12.508  0.1653 -0.4297  0.1251
 7284TIP3    H143267   2.590   5.140  12.493  1.8544 -0.2367 -0.6662
 7284TIP3    H243268   2.650   5.043  12.593 -0.3204 -0.5487  0.3704
 7285TIP3   OH243269   2.002   1.061   2.665  0.0801  0.1843  0.1920
 7285TIP3    H143270   1.975   1.064   2.757 -1.9641  0.3045 -0.3746
 7285TIP3    H243271   2.094   1.085   2.666  0.1179  0.0688  2.2251
 7286TIP3   OH243272   5.192   4.177   0.400 -0.2153 -0.5885  0.0697
 7286TIP3    H143273   5.187   4.150   0.492 -0.2822 -0.4011  0.1198
 7286TIP3    H243274   5.272   4.135   0.368  0.2688  0.0533  0.4398
 7287TIP3   OH243275   2.478   2.277   2.247  0.6207  0.1337 -0.2755
 7287TIP3    H143276   2.406   2.267   2.185  0.2203  0.9503  0.0540
 7287TIP3    H243277   2.435   2.294   2.331  1.1149 -2.0986  0.4645
 7288TIP3   OH243278   5.839   0.113  12.585 -0.2356 -1.2834 -0.3735
 7288TIP3    H143279   5.922   0.155  12.606 -1.4321 -0.3789  2.9233
 7288TIP3    H243280   5.861   0.021  12.569  1.6025 -0.6775 -1.4021
 7289TIP3   OH243281   5.123   6.093   0.185 -0.6233  0.1720  0.6227
 7289TIP3    H143282   5.053   6.101   0.249  1.2452 -2.0091  3.0422
 7289TIP3    H243283   5.184   6.163   0.207 -0.9773  0.7304 -0.1364
 7290TIP3   OH243284   6.680   2.834   3.410  0.1701 -0.7121 -0.0324
 7290TIP3    H143285   6.641   2.774   3.346 -2.1557 -0.3732  1.0158
 7290TIP3    H243286   6.704   2.911   3.359  0.6552 -1.4518 -0.9276
 7291TIP3   OH243287   4.668   3.514  11.678  0.4627 -0.9106 -0.1852
 7291TIP3    H143288   4.601   3.546  11.738  0.4733 -0.3318 -0.4817
 7291TIP3    H243289   4.707   3.439  11.723  0.7497 -0.2315  0.7093
 7292TIP3   OH243290   2.685   0.393   3.427  0.0189  0.3307  0.3353
 7292TIP3    H143291   2.661   0.486   3.416 -0.1603  0.4258  1.3761
 7292TIP3    H243292   2.632   0.347   3.363  0.5174  1.0096 -0.5682
 7293TIP3   OH243293   2.147   5.072   3.405  0.5592  0.3419 -0.1573
 7293TIP3    H143294   2.158   5.107   3.316  1.0449 -2.1027 -1.0814
 7293TIP3    H243295   2.232   5.033   3.426 -0.3351 -1.3695  0.3548
 7294TIP3   OH243296   5.794   4.127   0.688  0.6889  0.6350 -0.0346
 7294TIP3    H143297   5.699   4.119   0.696  0.9547 -1.4807  1.1754
 7294TIP3    H243298   5.813   4.102   0.597  0.1786  0.2650 -0.0375
 7295TIP3   OH243299   6.613   5.291   2.454 -1.1331 -0.0068 -0.5677
 7295TIP3    H143300   6.569   5.366   2.493  0.8960 -0.2119  2.2805
 7295TIP3    H243301   6.646   5.241   2.529  1.4727 -1.3198 -2.5042
 7296TIP3   OH243302   0.085   5.987   6.323  0.0503  0.1069  0.1960
 7296TIP3    H143303   0.177   5.962   6.331  0.0324 -0.2507 -0.6497
 7296TIP3    H243304   0.048   5.921   6.264 -0.7156  0.3272  0.4341
 7297TIP3   OH243305   0.330   1.490  14.423 -0.9691 -0.1007 -0.2957
 7297TIP3    H143306   0.407   1.545  14.411 -0.2751 -0.7075  1.2911
 7297TIP3    H243307   0.259   1.552  14.444 -0.2209  0.2317  1.3521
 7298TIP3   OH243308   0.905   2.173   4.059  0.1662 -0.2185 -0.2327
 7298TIP3    H143309   0.868   2.260   4.044 -0.3581 -0.2304  0.9352
 7298TIP3    H243310   0.870   2.146   4.143 -1.4553 -2.5262 -1.5963
 7299TIP3   OH243311   4.568   6.159   2.987 -0.4166 -0.4319 -0.2082
 7299TIP3    H143312   4.652   6.190   3.019  0.2113 -1.5270 -0.7702
 7299TIP3    H243313   4.507   6.178   3.058  0.4508 -0.3617  0.5281
 7300TIP3   OH243314   3.151   3.651   4.291 -0.1446 -0.0731 -0.1811
 7300TIP3    H143315   3.098   3.694   4.358 -0.1083 -0.4674  0.1049
 7300TIP3    H243316   3.190   3.723   4.241 -0.7156  0.2175 -0.2092
 7301TIP3   OH243317   5.347   5.701  16.517 -0.0521 -0.1530  0.0288
 7301TIP3    H143318   5.361   5.730  16.608  0.4475 -0.1073 -0.0584
 7301TIP3    H243319   5.389   5.769  16.464  2.6671 -1.8857 -0.1426
 7302TIP3   OH243320   0.017   5.651   4.054 -0.0900  0.0511 -0.7812
 7302TIP3    H143321   0.082   5.607   4.109 -1.3695  1.1082  1.6053
 7302TIP3    H243322   0.062   5.728   4.019  0.3517  0.0363 -0.2396
 7303TIP3   OH243323   0.331   4.571   3.899  0.1075  0.0429  0.5377
 7303TIP3    H143324   0.252   4.595   3.948 -1.6504  1.4556 -2.8045
 7303TIP3    H243325   0.382   4.652   3.895 -0.2559  0.2098 -0.8265
 7304TIP3   OH243326   2.075   1.737   5.321 -0.5429  0.1035 -0.0046
 7304TIP3    H143327   2.038   1.802   5.381 -0.2326 -1.8878  2.4444
 7304TIP3    H243328   2.007   1.671   5.311  0.5652 -1.1851  0.7380
 7305TIP3   OH243329   3.845   2.583  11.817 -0.0510  0.3573  0.2003
 7305TIP3    H143330   3.758   2.545  11.826 -0.6238  0.8702 -2.7277
 7305TIP3    H243331   3.830   2.677  11.809  0.8436  0.5432  0.6456
 7306TIP3   OH243332   6.313   1.359  11.174  0.0829  0.1706  0.1839
 7306TIP3    H143333   6.270   1.398  11.098 -1.4730  2.9492  2.3870
 7306TIP3    H243334   6.241   1.322  11.226  0.9740 -0.3910  1.0374
 7307TIP3   OH243335   4.163   6.655  15.353  0.2155 -0.0857 -0.2150
 7307TIP3    H143336   4.207   6.603  15.287 -2.0685 -3.3151  0.6951
 7307TIP3    H243337   4.091   6.698  15.306 -1.1498 -2.0419  0.0524
 7308TIP3   OH243338   0.050   6.369   3.842  0.0819 -0.8586 -0.1668
 7308TIP3    H143339   0.098   6.341   3.765  1.1546  0.0940  0.1347
 7308TIP3    H243340   0.101   6.335   3.916  1.0665  1.3026  0.1841
 7309TIP3   OH243341   1.448   2.475   5.605  0.3572 -0.1320  0.0227
 7309TIP3    H143342   1.443   2.392   5.653  1.4613  0.1489  0.6468
 7309TIP3    H243343   1.406   2.456   5.521  0.4960 -1.2871  0.1986
 7310TIP3   OH243344   5.991   4.298  15.333  0.3115 -0.8410  0.5074
 7310TIP3    H143345   6.040   4.217  15.321  1.7517  0.3905 -2.3467
 7310TIP3    H243346   5.936   4.305  15.255  1.3097  1.6418 -0.0194
 7311TIP3   OH243347   3.607   1.351   1.469  0.4928  0.6971 -0.0781
 7311TIP3    H143348   3.536   1.367   1.531  0.4135  0.2474 -0.0489
 7311TIP3    H243349   3.686   1.358   1.522  0.4704  1.2640 -0.1246
 7312TIP3   OH243350   6.035   6.423  16.024  0.0125  0.6130  0.9430
 7312TIP3    H143351   5.998   6.512  16.023  0.0169  0.6071  0.3979
 7312TIP3    H243352   6.126   6.436  16.052 -0.1231  0.7316  1.3278
 7313TIP3   OH243353   0.872   1.145   1.418  0.1264 -0.5491  0.1256
 7313TIP3    H143354   0.827   1.206   1.477  2.4370  1.0263  0.3177
 7313TIP3    H243355   0.807   1.126   1.350 -1.0180  1.2863  0.6428
 7314TIP3   OH243356   6.500   6.022  12.190  0.0237 -0.1091  0.4573
 7314TIP3    H143357   6.503   6.034  12.285 -0.8965 -1.0396  0.6220
 7314TIP3    H243358   6.489   5.927  12.179  1.0061 -0.1114 -0.6013
 7315TIP3   OH243359   4.557   3.190   6.626 -0.3752 -0.3162 -0.1735
 7315TIP3    H143360   4.492   3.237   6.679  0.6969  1.4850 -0.4028
 7315TIP3    H243361   4.521   3.192   6.537 -0.1511  0.4482 -0.2541
 7316TIP3   OH243362   6.016   4.555  12.671  0.4450 -0.2720  0.4560
 7316TIP3    H143363   6.010   4.604  12.754 -1.3987 -0.2318  0.3349
 7316TIP3    H243364   6.100   4.580  12.634  0.2923  1.4968  1.2310
 7317TIP3   OH243365   1.716   1.730  11.473 -0.6310  0.4739 -0.6972
 7317TIP3    H143366   1.699   1.659  11.534 -2.0766  0.4446 -1.1337
 7317TIP3    H243367   1.754   1.800  11.528  2.0617 -1.0791 -0.4880
 7318TIP3   OH243368   2.667   5.771   1.821  0.2556 -0.0012  0.2816
 7318TIP3    H143369   2.595   5.755   1.883 -1.0524  4.3390  0.1224
 7318TIP3    H243370   2.713   5.847   1.858  0.1308  1.9931 -3.4258
 7319TIP3   OH243371   0.275   3.497  14.645 -0.1502  0.3440 -0.0425
 7319TIP3    H143372   0.286   3.581  14.689 -0.2137  0.9953 -1.2315
 7319TIP3    H243373   0.359   3.481  14.602 -1.2589  1.5816 -2.7894
 7320TIP3   OH243374   3.913   3.697   2.487 -0.1155  0.5513 -0.2303
 7320TIP3    H143375   3.994   3.717   2.533 -0.0555 -0.6410  0.1809
 7320TIP3    H243376   3.938   3.699   2.394 -0.2310  2.8991 -0.2422
 7321TIP3   OH243377   0.623   0.807   4.147  0.1797 -0.1595  0.4213
 7321TIP3    H143378   0.663   0.894   4.139  1.8247 -1.0428 -1.5756
 7321TIP3    H243379   0.661   0.771   4.228  2.1726 -0.3148 -0.5492
 7322TIP3   OH243380   0.631   2.332   5.257 -0.0151  0.4311 -0.2339
 7322TIP3    H143381   0.607   2.421   5.283 -0.3239  0.2701  0.0328
 7322TIP3    H243382   0.566   2.308   5.191  0.1364  0.4436 -0.3889
 7323TIP3   OH243383   2.496   4.910  14.623 -0.4778  0.0702  0.9421
 7323TIP3    H143384   2.415   4.929  14.670  0.1655  0.5859  1.8589
 7323TIP3    H243385   2.557   4.883  14.691  0.2059 -0.0354  0.2919
 7324TIP3   OH243386   1.394   5.742  11.809  0.5032  0.4695 -0.4026
 7324TIP3    H143387   1.339   5.691  11.867  0.0893  2.7107  1.2271
 7324TIP3    H243388   1.448   5.795  11.867  0.8280  1.9831 -2.0434
 7325TIP3   OH243389   2.274   0.806  12.579 -0.3075  0.5393  0.0310
 7325TIP3    H143390   2.247   0.789  12.670 -0.4974 -0.6633 -0.2362
 7325TIP3    H243391   2.370   0.797  12.581 -0.4755 -1.7792 -0.3152
 7326TIP3   OH243392   3.104   4.872   5.336  0.2210 -0.3192  0.0272
 7326TIP3    H143393   3.125   4.788   5.296  0.7109  0.4245 -1.3134
 7326TIP3    H243394   3.130   4.862   5.427  0.6985 -1.4708 -0.2256
 7327TIP3   OH243395   5.329   5.749   4.705 -0.3867  0.0496 -0.1234
 7327TIP3    H143396   5.321   5.727   4.798 -1.1895  0.9925  0.0329
 7327TIP3    H243397   5.418   5.725   4.683  0.1481  0.8009  1.1575
 7328TIP3   OH243398   5.052   2.582   4.505  0.3001  0.2153  0.7318
 7328TIP3    H143399   4.987   2.572   4.435  1.1228  0.1906 -0.0402
 7328TIP3    H243400   5.002   2.569   4.586 -0.5174 -0.5467  0.1264
 7329TIP3   OH243401   2.457   4.470  12.372  0.0635 -0.3015 -0.7238
 7329TIP3    H143402   2.511   4.440  12.299 -0.1231 -0.3854 -0.8280
 7329TIP3    H243403   2.518   4.513  12.432 -0.1474  2.0464 -2.1241
 7330TIP3   OH243404   3.423   2.806  16.846  0.4593  0.6144 -0.3362
 7330TIP3    H143405   3.437   2.758  16.764 -1.0030  2.2128 -1.5744
 7330TIP3    H243406   3.329   2.799  16.862  0.2435  2.8261 -0.4377
 7331TIP3   OH243407   1.110   6.249   2.138 -0.5533 -0.0881 -0.2401
 7331TIP3    H143408   1.016   6.263   2.130 -0.5469 -0.0644 -0.2734
 7331TIP3    H243409   1.139   6.225   2.050 -0.4038  0.6510 -0.3939
 7332TIP3   OH243410   4.585   1.748  15.761 -0.3413 -0.4497  0.8885
 7332TIP3    H143411   4.651   1.807  15.724 -1.1835  0.0754  0.2283
 7332TIP3    H243412   4.636   1.685  15.812  0.8575 -1.3416 -1.3438
 7333TIP3   OH243413   2.583   6.525  15.505 -0.1925 -0.9699 -0.2091
 7333TIP3    H143414   2.647   6.572  15.559 -0.4629 -0.6098 -0.2038
 7333TIP3    H243415   2.531   6.475  15.568 -1.3786  0.4932 -0.0125
 7334TIP3   OH243416   3.551   6.336   5.743  0.0450  0.3044  0.4039
 7334TIP3    H143417   3.484   6.270   5.763 -0.4214  0.6788  0.0923
 7334TIP3    H243418   3.504   6.402   5.692  1.2095 -0.7120 -2.0834
 7335TIP3   OH243419   1.729   2.995  16.507 -0.1675 -0.1584  0.3556
 7335TIP3    H143420   1.815   3.008  16.546  0.1169 -1.0496  0.0322
 7335TIP3    H243421   1.695   3.083  16.494  1.2833  0.2352 -0.8436
 7336TIP3   OH243422   4.904   3.732  10.779 -0.0347 -0.0019  0.9282
 7336TIP3    H143423   4.852   3.666  10.825 -4.0536  1.7542 -0.8415
 7336TIP3    H243424   4.891   3.812  10.831  0.3890  0.5818  0.1429
 7337TIP3   OH243425   2.483   5.891   5.591  0.2178  0.1112  0.5455
 7337TIP3    H143426   2.437   5.907   5.509  0.5304 -1.1204  0.1194
 7337TIP3    H243427   2.443   5.811   5.627  1.7130 -0.7418  0.3655
 7338TIP3   OH243428   3.650   1.362  12.628 -0.7478 -0.5525  0.2846
 7338TIP3    H143429   3.680   1.271  12.618 -1.5842 -0.6517 -1.3827
 7338TIP3    H243430   3.586   1.357  12.699  0.3301 -0.9914  1.2501
 7339TIP3   OH243431   2.082   1.683  13.259  0.6655  0.0085 -0.4586
 7339TIP3    H143432   2.168   1.724  13.257 -0.0882  1.8693  2.2307
 7339TIP3    H243433   2.026   1.747  13.302 -1.6706 -1.9212 -0.5139
 7340TIP3   OH243434   5.945   3.252   1.679  0.0924  0.0893 -0.3890
 7340TIP3    H143435   5.944   3.258   1.584  0.4898 -0.0425 -0.3990
 7340TIP3    H243436   6.037   3.249   1.703  0.0500  1.8263  0.1053
 7341TIP3   OH243437   5.807   6.671   1.228 -0.2701 -0.2155 -0.0871
 7341TIP3    H143438   5.847   6.720   1.156  0.9067 -2.5433 -1.0538
 7341TIP3    H243439   5.828   6.723   1.306  1.5276  0.4896 -0.9992
 7342TIP3   OH243440   2.585   0.308   5.160  0.0477 -0.0810 -0.1758
 7342TIP3    H143441   2.493   0.292   5.182  0.1959 -0.1062  0.4177
 7342TIP3    H243442   2.585   0.395   5.121  0.0711  0.7687  1.6907
 7343TIP3   OH243443   5.567   1.208  11.673  0.7967 -0.3298  0.4906
 7343TIP3    H143444   5.487   1.258  11.691  1.0944 -0.3178  1.8520
 7343TIP3    H243445   5.555   1.175  11.584 -0.9256 -0.6912  0.8336
 7344TIP3   OH243446   4.886   1.985   0.003  0.1102  0.3390  0.1460
 7344TIP3    H143447   4.861   1.955  -0.084  1.8456  2.2085 -1.0247
 7344TIP3    H243448   4.907   1.905   0.051  1.2124 -0.5783 -1.8051
 7345TIP3   OH243449   0.645   0.752   1.290  0.5638  0.0885 -0.4601
 7345TIP3    H143450   0.715   0.779   1.350 -0.0722  1.2321 -0.2195
 7345TIP3    H243451   0.568   0.798   1.322  0.1223  0.3630 -1.9154
 7346TIP3   OH243452   4.881   6.488  14.456  0.0665  1.0630  0.0782
 7346TIP3    H143453   4.883   6.566  14.401 -2.4768  1.0487 -0.1181
 7346TIP3    H243454   4.822   6.428  14.410 -0.3623  0.1991  1.6995
 7347TIP3   OH243455   3.933   0.571   3.068  0.1776  0.4939 -0.1264
 7347TIP3    H143456   3.879   0.637   3.025  0.9860  1.6102  0.5408
 7347TIP3    H243457   3.945   0.502   3.002 -0.9102  0.8784 -0.7294
 7348TIP3   OH243458   3.305   1.041   0.366 -0.9239 -0.8035 -0.2643
 7348TIP3    H143459   3.316   0.968   0.427  0.1523 -0.2452  0.2241
 7348TIP3    H243460   3.221   1.024   0.323 -0.8610 -2.1211  0.1159
 7349TIP3   OH243461   4.524   6.503   3.715 -0.8493 -0.2278  0.0728
 7349TIP3    H143462   4.435   6.540   3.719 -0.2818  1.0152  1.9403
 7349TIP3    H243463   4.566   6.550   3.644 -0.8629  1.1147  0.9332
 7350TIP3   OH243464   0.394   1.604  11.848  0.3214  0.3745  0.8661
 7350TIP3    H143465   0.323   1.656  11.810  0.4021 -1.1176 -1.4088
 7350TIP3    H243466   0.351   1.548  11.913 -0.0615  1.7855  1.8665
 7351TIP3   OH243467   2.026   0.483   0.264  0.5245  0.6028  0.5394
 7351TIP3    H143468   2.062   0.572   0.260  1.8679  0.0164 -0.9764
 7351TIP3    H243469   2.058   0.441   0.184  0.0687 -1.3125  1.3461
 7352TIP3   OH243470   1.791   2.707  12.050  1.0216  0.1078  0.3273
 7352TIP3    H143471   1.832   2.622  12.068  0.7613 -0.3863 -1.3003
 7352TIP3    H243472   1.847   2.747  11.983  1.1562  1.2306  1.1111
 7353TIP3   OH243473   3.369   4.019   2.996  0.2574 -0.0880 -0.3732
 7353TIP3    H143474   3.422   4.072   3.056 -0.0492 -0.7270  0.4750
 7353TIP3    H243475   3.279   4.036   3.023 -0.0020  1.2002 -1.9882
 7354TIP3   OH243476   5.453   4.377  12.716 -0.2473  0.4695 -0.4168
 7354TIP3    H143477   5.390   4.440  12.681 -0.3102 -0.2508 -1.6510
 7354TIP3    H243478   5.400   4.301  12.741 -0.0381  0.4432 -0.0487
 7355TIP3   OH243479   6.588   1.389  11.174 -0.1800 -0.7243 -0.2856
 7355TIP3    H143480   6.602   1.388  11.080 -0.5689  0.0630 -0.3615
 7355TIP3    H243481   6.502   1.349  11.187 -0.7520  0.4553 -0.3905
 7356TIP3   OH243482   5.727   3.385  14.567  0.1980  0.2131 -0.4440
 7356TIP3    H143483   5.640   3.395  14.607  0.2929  1.7382 -0.5840
 7356TIP3    H243484   5.773   3.466  14.589  0.8558  0.3290 -2.1446
 7357TIP3   OH243485   1.056   3.182   1.564 -0.2607 -0.1454  0.7747
 7357TIP3    H143486   1.109   3.128   1.505 -0.7568 -0.0968  0.2769
 7357TIP3    H243487   1.109   3.260   1.579  0.9155 -1.2260  2.3362
 7358TIP3   OH243488   1.639   1.745  13.478  0.3866  0.2638  0.1324
 7358TIP3    H143489   1.661   1.702  13.395 -1.7513 -0.9445  0.1558
 7358TIP3    H243490   1.607   1.832  13.451 -0.2375 -0.0980 -0.3191
 7359TIP3   OH243491   4.913   0.396   0.432 -0.3500 -0.5942  0.1427
 7359TIP3    H143492   4.852   0.465   0.460  0.4596 -0.2170  0.9959
 7359TIP3    H243493   4.861   0.340   0.375 -0.6685  1.4981 -1.6893
 7360TIP3   OH243494   2.416   2.153  12.534 -0.5874 -0.1537 -0.0398
 7360TIP3    H143495   2.452   2.077  12.579 -0.3893  0.5892  1.0686
 7360TIP3    H243496   2.380   2.208  12.603 -0.6637  0.8052 -0.8225
 7361TIP3   OH243497   4.604   5.162  11.334 -0.4885  0.2597 -0.3048
 7361TIP3    H143498   4.679   5.137  11.280 -1.0788 -0.6855 -0.7132
 7361TIP3    H243499   4.542   5.090  11.323 -1.4204  0.9849  0.0964
 7362TIP3   OH243500   4.098   1.867   1.248 -0.3998 -0.6775  0.4307
 7362TIP3    H143501   4.134   1.788   1.287 -2.1178 -1.4268  0.5178
 7362TIP3    H243502   4.055   1.838   1.168 -0.0222  0.3465 -0.1593
 7363TIP3   OH243503   6.116   2.384  15.004  0.2337 -0.2014  0.1447
 7363TIP3    H143504   6.037   2.351  15.048  1.2551 -0.9348  1.4792
 7363TIP3    H243505   6.185   2.376  15.071  1.6085 -0.4018 -1.2820
 7364TIP3   OH243506   1.929   4.188   3.790 -0.2605 -0.0792  0.6220
 7364TIP3    H143507   2.012   4.213   3.750 -0.6784  1.2680  0.5719
 7364TIP3    H243508   1.894   4.120   3.732 -0.0483  0.6472 -0.3709
 7365TIP3   OH243509   5.767   5.468  10.364  0.3089  0.2820 -0.4300
 7365TIP3    H143510   5.735   5.447  10.277  0.3117 -0.7956 -0.1807
 7365TIP3    H243511   5.856   5.432  10.366 -0.5282 -1.7965  0.8015
 7366TIP3   OH243512   5.363   1.231  12.539  0.1296 -0.0984  0.4184
 7366TIP3    H143513   5.386   1.170  12.609  1.1448 -1.5900 -1.1541
 7366TIP3    H243514   5.415   1.310  12.558 -2.0182  0.7424  3.0675
 7367TIP3   OH243515   2.378   2.031   6.640  0.4085  0.2462 -0.4791
 7367TIP3    H143516   2.461   2.051   6.595  0.7580  1.2633  0.5960
 7367TIP3    H243517   2.330   2.114   6.639 -0.5727 -0.3197 -1.0232
 7368TIP3   OH243518   5.043   5.351  12.185  0.3356  0.1384  0.0147
 7368TIP3    H143519   5.136   5.345  12.207  0.3584  1.4090  0.3147
 7368TIP3    H243520   5.013   5.430  12.230 -0.0872  1.6625 -2.8570
 7369TIP3   OH243521   1.175   3.186  16.641  0.7340 -0.4499  0.1680
 7369TIP3    H143522   1.222   3.127  16.582  2.8092  0.8714  0.4330
 7369TIP3    H243523   1.214   3.272  16.625  0.4028  0.1685  2.4761
 7370TIP3   OH243524   5.961   1.824  16.130 -0.5640 -0.3174  0.1631
 7370TIP3    H143525   5.907   1.807  16.207  0.0198 -1.8840  0.2394
 7370TIP3    H243526   6.043   1.859  16.165 -1.3480  1.7156  0.0668
 7371TIP3   OH243527   4.330   6.220  14.691 -0.0859 -0.2651 -0.2353
 7371TIP3    H143528   4.252   6.228  14.636 -0.6537 -0.3141  0.5566
 7371TIP3    H243529   4.400   6.197  14.630 -0.5414  0.5036 -1.0571
 7372TIP3   OH243530   5.937   0.126   3.119  0.2256  0.1715 -0.0698
 7372TIP3    H143531   5.852   0.161   3.093 -0.0967 -0.1680  0.5194
 7372TIP3    H243532   5.952   0.051   3.062  1.2155  1.6319 -1.7890
 7373TIP3   OH243533   5.115   0.326   4.143  0.2066 -0.3385 -0.0573
 7373TIP3    H143534   5.091   0.417   4.126  0.1809 -0.6524 -1.7552
 7373TIP3    H243535   5.055   0.274   4.090  0.0843 -1.3673  1.0520
 7374TIP3   OH243536   5.332   2.920   3.937 -0.4266 -0.1244  0.4800
 7374TIP3    H143537   5.369   2.832   3.930  0.7769  0.1234  2.9856
 7374TIP3    H243538   5.394   2.975   3.890  0.3386 -0.2348  1.3507
 7375TIP3   OH243539   3.979   5.167  12.939 -0.2046  0.0173  0.2796
 7375TIP3    H143540   4.028   5.225  12.881 -0.2998  0.2841  0.4636
 7375TIP3    H243541   3.904   5.219  12.967 -0.0310 -0.0207  0.8372
 7376TIP3   OH243542   5.004   4.490  15.088  0.0215 -1.0076  0.0500
 7376TIP3    H143543   5.064   4.432  15.136  1.6744  0.0909 -0.6551
 7376TIP3    H243544   4.923   4.440  15.082  0.1593 -1.6430  2.9496
 7377TIP3   OH243545   0.650   5.174   0.491 -0.4869 -0.0092 -0.6024
 7377TIP3    H143546   0.680   5.111   0.425  1.3456 -1.0357  1.1357
 7377TIP3    H243547   0.571   5.134   0.527 -0.0454 -0.7103 -0.3932
 7378TIP3   OH243548   3.068   3.449  17.035 -0.1906 -0.2525  0.5663
 7378TIP3    H143549   3.056   3.543  17.021 -0.6399 -0.4438 -0.4103
 7378TIP3    H243550   3.162   3.437  17.039 -0.1516  0.3477  1.4729
 7379TIP3   OH243551   0.486   4.123  16.150 -0.2366  0.3915  0.6482
 7379TIP3    H143552   0.462   4.180  16.223  0.7786 -0.2300  1.4708
 7379TIP3    H243553   0.574   4.150  16.126  0.1004 -0.5821  0.7879
 7380TIP3   OH243554   2.109   3.284   1.377  0.2503  0.1281  0.2077
 7380TIP3    H143555   2.109   3.285   1.473  0.4737 -1.4863  0.2318
 7380TIP3    H243556   2.027   3.240   1.353  1.0088 -1.0235 -0.3074
 7381TIP3   OH243557   1.430   6.674  10.618 -0.8365 -0.1969 -0.0346
 7381TIP3    H143558   1.401   6.589  10.650 -1.6684  1.1295  2.8838
 7381TIP3    H243559   1.356   6.707  10.566 -0.4537 -1.2655 -1.2993
 7382TIP3   OH243560   2.964   1.654   3.058 -0.3932 -0.5308 -0.5063
 7382TIP3    H143561   2.990   1.657   2.966 -0.7465 -1.3227 -0.6301
 7382TIP3    H243562   2.883   1.707   3.062  1.1284  1.8547 -0.1365
 7383TIP3   OH243563   1.004   4.292   2.863 -0.3185  0.0331  0.7562
 7383TIP3    H143564   1.025   4.357   2.796 -0.7858  0.4993  1.0705
 7383TIP3    H243565   1.080   4.294   2.922  0.1452 -0.4553  0.1876
 7384TIP3   OH243566   5.479   0.636  12.684  0.1776 -0.1426 -0.7243
 7384TIP3    H143567   5.476   0.550  12.727  1.1577 -0.5374 -1.4184
 7384TIP3    H243568   5.511   0.695  12.752 -0.4123 -0.3385 -0.2673
 7385TIP3   OH243569   5.386   6.347  15.700  0.6658 -0.2070  0.0306
 7385TIP3    H143570   5.296   6.325  15.723  0.4701  1.5614  1.0867
 7385TIP3    H243571   5.381   6.380  15.611  0.0580  1.0366  0.5124
 7386TIP3   OH243572   4.997   0.850  12.311  0.1262 -0.3131  0.1284
 7386TIP3    H143573   5.017   0.944  12.313 -1.8237  0.1255  0.7964
 7386TIP3    H243574   5.052   0.815  12.241  1.4288  1.1895  0.3671
 7387TIP3   OH243575   0.752   3.212  16.832  0.1112 -0.0293  0.4625
 7387TIP3    H143576   0.797   3.204  16.917  0.1027 -1.9093  0.3060
 7387TIP3    H243577   0.659   3.215  16.855  0.1986  1.5950  0.6445
 7388TIP3   OH243578   5.406   3.585   4.314 -0.3763 -0.4746 -0.3622
 7388TIP3    H143579   5.465   3.595   4.240  0.1962 -0.2361  0.1200
 7388TIP3    H243580   5.462   3.555   4.386 -1.1048 -1.7594 -0.3054
 7389TIP3   OH243581   3.737   1.225  12.193 -0.5246  0.4375  0.1112
 7389TIP3    H143582   3.690   1.196  12.271  0.5397 -0.2298  0.5268
 7389TIP3    H243583   3.670   1.259  12.135 -1.3241  1.0387  1.3623
 7390TIP3   OH243584   1.613   5.519   5.514 -0.5240 -0.3208  0.6499
 7390TIP3    H143585   1.695   5.562   5.539 -0.3571 -1.0206  1.3376
 7390TIP3    H243586   1.627   5.493   5.423 -0.2368  0.1511  0.5533
 7391TIP3   OH243587   6.219   4.941  12.740  0.1862  0.9030 -0.0091
 7391TIP3    H143588   6.298   4.917  12.691  0.9024  0.9457  1.1054
 7391TIP3    H243589   6.239   5.027  12.777  0.7936 -0.3667  2.7346
 7392TIP3   OH243590   5.943   1.323  13.835  0.0900  0.0393  0.2241
 7392TIP3    H143591   6.026   1.277  13.828 -0.8594 -1.7268  0.2520
 7392TIP3    H243592   5.916   1.339  13.745  1.0608  1.7934  0.2122
 7393TIP3   OH243593   1.911   6.423  16.831 -0.4087  0.3267  0.1971
 7393TIP3    H143594   1.968   6.353  16.800 -2.7504 -1.3132 -0.5146
 7393TIP3    H243595   1.964   6.470  16.895  1.8253 -0.9752 -0.6318
 7394TIP3   OH243596   2.196   5.371  14.257 -0.8174  0.0526  0.0998
 7394TIP3    H143597   2.286   5.371  14.288 -1.1109 -0.7955  0.9868
 7394TIP3    H243598   2.192   5.441  14.191  0.2040  0.8266  0.8604
 7395TIP3   OH243599   5.093   2.268   3.818 -0.1089  0.4576  0.4489
 7395TIP3    H143600   5.170   2.269   3.762 -1.6012  1.3538 -1.6660
 7395TIP3    H243601   5.095   2.182   3.861  1.5409  0.1043 -0.3060
 7396TIP3   OH243602   0.797   4.803  15.261 -0.1271  0.2541  0.1681
 7396TIP3    H143603   0.865   4.860  15.225 -0.0124 -0.4660 -0.7671
 7396TIP3    H243604   0.834   4.770  15.342  1.4376 -1.6649 -1.2893
 7397TIP3   OH243605   5.174   4.652   1.350  0.0612 -0.1480 -0.3224
 7397TIP3    H143606   5.156   4.640   1.443 -0.4511  0.2711 -0.3609
 7397TIP3    H243607   5.175   4.563   1.314  1.1956 -0.3707  0.2464
 7398TIP3   OH243608   5.168   2.868   0.400  0.2565  0.3937 -0.3172
 7398TIP3    H143609   5.225   2.936   0.435 -2.8877  2.2476  1.4622
 7398TIP3    H243610   5.091   2.916   0.369 -1.4847 -2.2412 -0.1816
 7399TIP3   OH243611   4.563   1.242  16.948  0.0300 -0.9372 -0.4093
 7399TIP3    H143612   4.597   1.293  17.021  0.2535 -2.4935  0.5876
 7399TIP3    H243613   4.487   1.196  16.984  0.3824 -2.0225 -1.0456
 7400TIP3   OH243614   2.343   5.751   0.932  0.7758 -0.2326  0.0567
 7400TIP3    H143615   2.387   5.705   0.861  1.2376 -1.8507  1.3619
 7400TIP3    H243616   2.391   5.727   1.011  0.1285  1.3489  0.9695
 7401TIP3   OH243617   2.057   2.535   0.076 -0.1622  0.0753 -0.1509
 7401TIP3    H143618   2.042   2.450   0.116 -2.0370  0.3953 -0.1146
 7401TIP3    H243619   2.001   2.595   0.127  0.1357  1.0794 -1.0033
 7402TIP3   OH243620   2.092   6.683  12.912  0.2697 -0.7122  0.0648
 7402TIP3    H143621   2.020   6.736  12.877  0.1838 -0.6787  0.2951
 7402TIP3    H243622   2.071   6.671  13.004 -0.7905 -2.9521 -0.4453
 7403TIP3   OH243623   1.983   5.793  10.498 -0.5436  0.2954 -0.7208
 7403TIP3    H143624   2.058   5.841  10.465 -1.0206  0.5202 -1.4953
 7403TIP3    H243625   1.965   5.832  10.584  2.4853 -2.2112  1.1403
 7404TIP3   OH243626   3.904   2.062   1.358  0.3216  0.0386 -0.2788
 7404TIP3    H143627   3.952   2.021   1.286 -0.7322  0.3680 -1.1903
 7404TIP3    H243628   3.970   2.114   1.404  0.9551  0.0601 -1.1870
 7405TIP3   OH243629   3.041   1.952   3.825  0.2828  0.3106 -0.5721
 7405TIP3    H143630   3.095   1.968   3.902  0.7160 -0.4207 -0.7173
 7405TIP3    H243631   3.016   1.860   3.833 -0.6743  0.5657 -0.6752
 7406TIP3   OH243632   3.420   2.799  11.726  0.0955  0.6187 -0.5907
 7406TIP3    H143633   3.383   2.850  11.798  1.5076  1.3355 -0.3741
 7406TIP3    H243634   3.374   2.714  11.731  1.0330  0.2221  1.8717
 7407TIP3   OH243635   5.418   1.754   0.813  0.3776 -0.1129 -0.2196
 7407TIP3    H143636   5.445   1.845   0.815  0.0172 -0.0112  0.1772
 7407TIP3    H243637   5.325   1.757   0.788  0.3359 -0.3612 -0.1006
 7408TIP3   OH243638   4.880   6.595  17.210 -0.2105  0.6108  0.0770
 7408TIP3    H143639   4.849   6.636  17.129 -0.8157 -0.1357 -0.0639
 7408TIP3    H243640   4.956   6.544  17.184  0.5640  1.6522  0.2593
 7409TIP3   OH243641   3.800   6.533   3.714  0.4345 -0.1315 -0.2841
 7409TIP3    H143642   3.814   6.439   3.723  2.2032  0.2062  0.5780
 7409TIP3    H243643   3.802   6.567   3.803 -2.3514  0.4535 -0.4059
 7410TIP3   OH243644   2.005   1.552   1.145  0.1674 -0.2315  0.4073
 7410TIP3    H143645   2.034   1.643   1.154 -0.3743 -0.2468  2.7421
 7410TIP3    H243646   2.074   1.500   1.186  0.2627 -0.8246 -0.5075
 7411TIP3   OH243647   2.877   0.387  13.876 -0.0078 -0.4481  0.7100
 7411TIP3    H143648   2.915   0.458  13.927 -0.3724  0.7970 -0.7438
 7411TIP3    H243649   2.951   0.328  13.858  1.3888  2.1141 -2.3642
 7412TIP3   OH243650   4.733   6.110   0.578  0.7449  0.0156 -0.0690
 7412TIP3    H143651   4.661   6.050   0.561  1.7065 -1.1472 -0.0454
 7412TIP3    H243652   4.691   6.194   0.595 -0.6039 -0.6680 -0.0272
 7413TIP3   OH243653   3.627   3.591   1.038 -0.2223  0.5245 -0.4389
 7413TIP3    H143654   3.696   3.655   1.055 -0.8033  1.3089 -0.9700
 7413TIP3    H243655   3.546   3.638   1.059 -0.7013  0.2306 -1.6205
 7414TIP3   OH243656   0.230   0.470   1.141 -0.3352  0.3304 -0.2873
 7414TIP3    H143657   0.278   0.540   1.187  0.4802 -1.4710  1.6931
 7414TIP3    H243658   0.298   0.409   1.112 -1.0896  0.0501 -1.4984
 7415TIP3   OH243659   6.193   6.200   1.562 -0.5547 -0.0422 -0.0775
 7415TIP3    H143660   6.178   6.265   1.494  0.5473  0.2681 -0.0219
 7415TIP3    H243661   6.207   6.118   1.514 -1.5632 -0.1830 -0.1569
 7416TIP3   OH243662   3.480   1.801  16.985 -0.3869 -0.2867  0.1484
 7416TIP3    H143663   3.398   1.830  16.946  0.4802  1.8193 -0.1761
 7416TIP3    H243664   3.540   1.874  16.971  1.8273 -2.1624 -0.4970
 7417TIP3   OH243665   6.351   0.977  13.410  0.1954 -0.3579 -0.1594
 7417TIP3    H143666   6.404   0.976  13.489  1.7939  1.0550 -1.1781
 7417TIP3    H243667   6.412   0.951  13.340 -1.3903 -2.4272 -0.8122
 7418TIP3   OH243668   0.564   1.678  11.390 -0.6113  0.0577 -0.4696
 7418TIP3    H143669   0.649   1.657  11.429 -1.2877 -3.3101 -0.6760
 7418TIP3    H243670   0.579   1.675  11.296 -0.5203  1.5028 -0.5134
 7419TIP3   OH243671   1.176   3.481  15.934  0.4715  0.1631 -0.3533
 7419TIP3    H143672   1.262   3.489  15.892  0.8495 -0.3566  0.3054
 7419TIP3    H243673   1.176   3.549  16.000  0.8729 -0.6290  0.4747
 7420TIP3   OH243674   5.285   4.160   1.235  0.2586 -0.4548  0.1798
 7420TIP3    H143675   5.322   4.084   1.280  1.1269  0.3063  0.7769
 7420TIP3    H243676   5.357   4.194   1.182  0.0656  0.3335  0.4197
 7421TIP3   OH243677   6.060   5.946   3.567  0.4655 -0.3616  0.4849
 7421TIP3    H143678   6.127   5.999   3.610 -1.5438  1.6683  1.1646
 7421TIP3    H243679   6.094   5.933   3.478 -0.2419  4.4736 -0.6214
 7422TIP3   OH243680   1.219   1.914  12.510 -0.7499  0.3894  0.3350
 7422TIP3    H143681   1.232   1.899  12.603  1.7174  0.3814  0.0096
 7422TIP3    H243682   1.259   1.999  12.493 -0.1400 -0.1334 -0.9255
 7423TIP3   OH243683   4.914   4.674   2.582  0.5782 -0.1003 -0.0775
 7423TIP3    H143684   4.904   4.655   2.489 -1.2536  1.5861 -0.2397
 7423TIP3    H243685   4.875   4.760   2.594 -0.0031 -0.6656  2.4133
 7424TIP3   OH243686   6.537   5.919   3.464  0.5719  0.3044  0.2261
 7424TIP3    H143687   6.473   5.990   3.463 -1.5727 -1.5593  1.1303
 7424TIP3    H243688   6.568   5.914   3.374 -0.8120  1.0100 -0.3110
 7425TIP3   OH243689   2.497   0.998   3.869  0.5789  0.5435 -0.0979
 7425TIP3    H143690   2.516   0.966   3.782  2.3727  0.3672  0.3432
 7425TIP3    H243691   2.405   1.025   3.866  0.0055 -1.5421 -1.3838
 7426TIP3   OH243692   4.399   2.708  14.204 -0.1218  0.3903  0.1290
 7426TIP3    H143693   4.494   2.693  14.206 -0.0600  0.4557 -1.7747
 7426TIP3    H243694   4.362   2.628  14.243  0.6898  0.2656  0.6652
 7427TIP3   OH243695   2.804   5.461   3.680  0.2717 -0.6109 -0.0640
 7427TIP3    H143696   2.855   5.478   3.601  0.9055 -0.2412  0.4200
 7427TIP3    H243697   2.713   5.462   3.650  0.5497 -1.3734 -0.9473
 7428TIP3   OH243698   5.900   5.583   5.729 -0.3870  0.0992  0.2875
 7428TIP3    H143699   5.890   5.663   5.781 -0.2512  0.4386 -0.2001
 7428TIP3    H243700   5.827   5.528   5.756 -0.3859  0.3202  0.7504
 7429TIP3   OH243701   1.003   0.530  11.882  0.0260  0.1541  0.2994
 7429TIP3    H143702   1.061   0.463  11.918 -0.0547 -0.6342 -1.0425
 7429TIP3    H243703   1.048   0.613  11.901  2.3381 -0.5141 -2.0533
 7430TIP3   OH243704   5.771   0.917   1.026 -0.3511  0.4775 -0.1642
 7430TIP3    H143705   5.678   0.938   1.030 -0.3762  0.3829 -0.2464
 7430TIP3    H243706   5.791   0.884   1.113 -0.3611  0.6333 -0.1026
 7431TIP3   OH243707   2.018   0.621  12.845 -0.0774 -0.0485 -0.0619
 7431TIP3    H143708   1.926   0.648  12.841  0.5038  1.8487 -1.4364
 7431TIP3    H243709   2.023   0.544  12.789 -0.9678 -0.6478  0.6562
 7432TIP3   OH243710   1.666   0.943  16.926 -0.0754 -0.5204  0.0741
 7432TIP3    H143711   1.739   0.908  16.875  0.0275 -0.1157 -0.0582
 7432TIP3    H243712   1.703   0.956  17.014 -0.1784 -0.9562  0.1851
 7433TIP3   OH243713   5.695   3.545  11.539  0.2072 -0.9280 -0.0130
 7433TIP3    H143714   5.673   3.638  11.534 -0.8205 -1.0430  1.8619
 7433TIP3    H243715   5.790   3.542  11.525  0.2681  0.4159  0.0944
 7434TIP3   OH243716   4.258   6.328   3.655 -0.3136 -0.0658 -0.0212
 7434TIP3    H143717   4.229   6.405   3.704  0.2639 -0.4880  1.0038
 7434TIP3    H243718   4.248   6.255   3.716  2.4827 -0.2840  0.2726
 7435TIP3   OH243719   2.093   4.723  13.085 -0.2787  0.0709  0.1445
 7435TIP3    H143720   2.040   4.754  13.012 -0.3275 -0.0657  0.1220
 7435TIP3    H243721   2.159   4.667  13.045 -0.4777 -0.2286  0.2341
 7436TIP3   OH243722   1.868   1.024   2.206  0.2168 -0.0601 -0.5438
 7436TIP3    H143723   1.933   1.061   2.266  0.0703  1.8401 -1.5039
 7436TIP3    H243724   1.846   0.939   2.243  0.3962  0.9155  1.8822
 7437TIP3   OH243725   0.627   0.040   3.319  0.3497  0.5017 -0.0407
 7437TIP3    H143726   0.550   0.043   3.375  0.1361  2.0327 -0.4172
 7437TIP3    H243727   0.697   0.010   3.377 -0.2803  0.1788  0.5601
 7438TIP3   OH243728   6.717   1.205  12.149  0.3113  0.0025 -0.5765
 7438TIP3    H143729   6.732   1.263  12.223  0.5074 -0.4903 -0.2301
 7438TIP3    H243730   6.622   1.208  12.135  0.3687  0.7493 -0.8408
 7439TIP3   OH243731   3.500   5.813   2.031 -0.4173 -0.2140 -0.2206
 7439TIP3    H143732   3.572   5.750   2.034  0.0771  0.3951  0.6102
 7439TIP3    H243733   3.505   5.861   2.114 -0.5390  1.1995 -1.0122
 7440TIP3   OH243734   3.214   2.404  13.586  0.5486  0.2385 -0.1200
 7440TIP3    H143735   3.301   2.442  13.599  1.2313 -1.2614 -0.2277
 7440TIP3    H243736   3.219   2.361  13.500  0.3288 -1.5070  0.7145
 7441TIP3   OH243737   0.928   5.983   4.700 -0.1111  0.5197 -0.3385
 7441TIP3    H143738   0.888   5.898   4.715  0.8258 -0.2004 -1.8510
 7441TIP3    H243739   0.891   6.039   4.768 -1.5463 -0.8204  0.0132
 7442TIP3   OH243740   0.033   5.346   3.992  0.1952 -0.1650  0.5986
 7442TIP3    H143741   0.052   5.403   4.067  0.9446  0.6400 -0.1904
 7442TIP3    H243742   0.110   5.355   3.935 -0.3083 -0.8675 -0.2059
 7443TIP3   OH243743   3.946   0.541  15.287 -0.5909 -0.0053 -0.2346
 7443TIP3    H143744   3.989   0.593  15.219 -2.5322  0.2549 -1.2952
 7443TIP3    H243745   3.856   0.530  15.256 -1.4262 -0.1885  2.1226
 7444TIP3   OH243746   6.553   6.624  12.535  0.1708  0.0265  0.5333
 7444TIP3    H143747   6.621   6.672  12.488 -0.0867 -0.0795  0.0475
 7444TIP3    H243748   6.600   6.577  12.604  0.6205 -0.2150  0.0668
 7445TIP3   OH243749   0.161   0.387  14.960 -0.4476  0.6423 -0.1460
 7445TIP3    H143750   0.152   0.406  15.053 -0.5506  0.4407 -0.1133
 7445TIP3    H243751   0.103   0.311  14.946 -0.4147  0.6581 -0.3688
 7446TIP3   OH243752   1.578   3.293   2.720  0.4887 -0.6529  0.8230
 7446TIP3    H143753   1.533   3.257   2.797 -1.4585 -2.0276 -0.8744
 7446TIP3    H243754   1.671   3.278   2.737  0.1105 -0.5990  3.0672
 7447TIP3   OH243755   6.574   0.824   3.096  0.4030 -0.4391 -0.4048
 7447TIP3    H143756   6.571   0.826   3.000  1.7240  0.8756 -0.4272
 7447TIP3    H243757   6.657   0.780   3.116  1.0971  1.0816  0.1210
 7448TIP3   OH243758   1.947   4.962   1.133 -0.7679 -0.4320  0.0266
 7448TIP3    H143759   2.036   4.990   1.111 -1.4468  2.2333  0.4562
 7448TIP3    H243760   1.926   4.896   1.068  1.2807 -0.6305 -0.4812
 7449TIP3   OH243761   1.521   2.750   3.899  0.2007  0.4686  0.3015
 7449TIP3    H143762   1.547   2.715   3.813  1.2788 -1.5085  1.3947
 7449TIP3    H243763   1.593   2.807   3.925  0.2994  0.3487  0.2920
 7450TIP3   OH243764   3.223   5.042   2.231 -0.7111 -0.5438 -0.1621
 7450TIP3    H143765   3.190   4.961   2.192 -1.1352 -0.8074  0.7263
 7450TIP3    H243766   3.272   5.013   2.309 -2.6572  0.1830  1.3683
 7451TIP3   OH243767   4.118   3.452   2.601  0.0770  0.0451  0.0471
 7451TIP3    H143768   4.114   3.542   2.634  0.8883  0.5534 -1.1675
 7451TIP3    H243769   4.176   3.407   2.663  1.6013  0.9892 -0.6445
 7452TIP3   OH243770   6.277   1.318  16.465 -0.2940 -0.5464  0.0355
 7452TIP3    H143771   6.252   1.389  16.524  1.3790  0.4103 -0.3778
 7452TIP3    H243772   6.348   1.273  16.511 -2.1437 -2.7395  0.8452
 7453TIP3   OH243773   2.349   6.734   3.958  0.3324  0.3518  0.0095
 7453TIP3    H143774   2.383   6.744   3.869 -1.3710  0.2563 -0.6546
 7453TIP3    H243775   2.310   6.819   3.979 -1.0021 -0.2238 -0.0853
 7454TIP3   OH243776   2.513   3.519  12.829  0.2808 -0.2198  0.0788
 7454TIP3    H143777   2.477   3.554  12.910  0.3468 -2.5737  1.1817
 7454TIP3    H243778   2.598   3.562  12.820 -0.1158  0.7294  0.7696
 7455TIP3   OH243779   0.033   0.926  11.541  0.4645 -0.2459 -0.0443
 7455TIP3    H143780   0.034   0.832  11.555 -1.5473 -0.4276 -0.9959
 7455TIP3    H243781  -0.059   0.949  11.533  1.0056  1.4457 -2.1081
 7456TIP3   OH243782   5.520   5.661   1.642  0.1493  0.5579 -0.0145
 7456TIP3    H143783   5.606   5.699   1.623  1.1573 -1.5917  0.1720
 7456TIP3    H243784   5.537   5.594   1.708 -1.1971 -2.0576 -2.2483
 7457TIP3   OH243785   2.124   2.314   3.843 -0.0162  0.0641  0.7133
 7457TIP3    H143786   2.208   2.310   3.888  1.3875 -0.0531 -1.7854
 7457TIP3    H243787   2.079   2.389   3.882  0.8235 -0.4764  2.7632
 7458TIP3   OH243788   3.138   0.934   6.781  0.3118  0.4015 -0.2279
 7458TIP3    H143789   3.186   0.990   6.718 -1.1068  0.7762 -0.9989
 7458TIP3    H243790   3.118   0.992   6.854  0.7217  0.3388 -0.0654
 7459TIP3   OH243791   1.967   2.971  12.171 -0.0134  0.0135  0.7490
 7459TIP3    H143792   2.036   2.910  12.145 -1.5827 -0.8002 -1.7126
 7459TIP3    H243793   1.908   2.919  12.225 -0.2595 -0.0994  0.3739
 7460TIP3   OH243794   5.078   3.452   4.423 -0.0070 -0.2558 -0.0169
 7460TIP3    H143795   5.133   3.520   4.464  2.9466 -2.1189 -0.7207
 7460TIP3    H243796   5.034   3.497   4.351 -2.1153  2.0953  2.5993
 7461TIP3   OH243797   0.255   2.334  16.991  0.1439 -0.0533  0.2068
 7461TIP3    H143798   0.289   2.367  17.074 -0.0320  1.2258 -0.2237
 7461TIP3    H243799   0.252   2.410  16.933  1.6659 -1.2061 -1.4590
 7462TIP3   OH243800   2.684   4.550   3.584  0.6283  0.0435 -0.2477
 7462TIP3    H143801   2.757   4.566   3.525  1.1202 -0.1708  0.2944
 7462TIP3    H243802   2.645   4.468   3.552  0.7536  0.0445 -0.4059
 7463TIP3   OH243803   3.684   1.049   0.293  0.1063 -0.4924 -0.0555
 7463TIP3    H143804   3.727   1.127   0.328 -0.5683  0.4884 -1.3445
 7463TIP3    H243805   3.647   1.005   0.370  0.7735  0.2742  0.7164
 7464TIP3   OH243806   5.221   6.247  15.321  0.1338  0.2385  0.8660
 7464TIP3    H143807   5.282   6.320  15.332  1.0858 -0.7186  2.1183
 7464TIP3    H243808   5.184   6.259  15.234 -0.7148  2.9644  1.5362
 7465TIP3   OH243809   3.144   3.004   5.196 -0.3432  0.2088 -0.5679
 7465TIP3    H143810   3.087   2.936   5.232 -1.4839  0.9989 -0.8409
 7465TIP3    H243811   3.219   3.006   5.255 -1.3832  0.3060  0.7734
 7466TIP3   OH243812   0.470   0.287   1.551  0.5132  0.2508  0.8009
 7466TIP3    H143813   0.406   0.289   1.622 -2.3744 -0.9941 -1.6733
 7466TIP3    H243814   0.464   0.374   1.511 -0.0834 -0.0757  0.1795
 7467TIP3   OH243815   5.848   6.138   5.734 -0.5786  0.2865  0.2550
 7467TIP3    H143816   5.760   6.123   5.769 -0.0123 -1.2744  1.0664
 7467TIP3    H243817   5.886   6.051   5.728 -0.1402  0.6615 -2.9968
 7468TIP3   OH243818   0.840   3.791   0.222  0.1747  0.3113 -0.0885
 7468TIP3    H143819   0.749   3.820   0.214  0.6800  1.9728 -0.1496
 7468TIP3    H243820   0.865   3.770   0.132 -0.3089 -0.6903  0.0039
 7469TIP3   OH243821   2.929   0.542   1.269 -0.2294 -0.4069  0.2092
 7469TIP3    H143822   2.966   0.618   1.314 -0.0968 -0.0052 -0.5638
 7469TIP3    H243823   2.909   0.574   1.181 -1.3099 -0.9485  0.2583
 7470TIP3   OH243824   4.664   0.232   5.664 -0.0862  0.3720 -0.0392
 7470TIP3    H143825   4.577   0.265   5.641  0.2027  1.6376  0.6189
 7470TIP3    H243826   4.718   0.311   5.672  1.1411 -0.4088 -0.5046
 7471TIP3   OH243827   4.956   5.014   3.437 -0.5660  0.1320 -0.2164
 7471TIP3    H143828   4.964   4.958   3.514 -0.5686 -0.8033 -0.9021
 7471TIP3    H243829   4.885   5.075   3.460  0.6674  1.0685  1.2593
 7472TIP3   OH243830   3.866   5.289   4.238  0.2188 -0.1103  0.0172
 7472TIP3    H143831   3.935   5.259   4.298  0.0743  1.1586  0.8130
 7472TIP3    H243832   3.811   5.347   4.290  1.9266  3.6288 -2.1104
 7473TIP3   OH243833   5.959   0.963  12.458 -0.2786  0.1390  0.3204
 7473TIP3    H143834   5.925   0.874  12.447  1.6958 -0.4424 -1.5170
 7473TIP3    H243835   5.984   0.967  12.551 -0.4941 -1.1795  0.4529
 7474TIP3   OH243836   5.545   0.533   4.783  0.3051  0.0693 -0.3466
 7474TIP3    H143837   5.631   0.574   4.796  0.7154 -1.1738  0.9719
 7474TIP3    H243838   5.482   0.603   4.803  1.0045  0.2489  1.3725
 7475TIP3   OH243839   4.064   2.175   6.178 -0.0797 -0.1213 -0.6214
 7475TIP3    H143840   4.058   2.105   6.113  1.0438  0.6387 -1.5581
 7475TIP3    H243841   4.074   2.130   6.262 -1.3278 -1.1049 -0.9864
 7476TIP3   OH243842   0.324   0.254  16.197  0.0632 -0.0270 -0.2536
 7476TIP3    H143843   0.299   0.343  16.223  0.7726 -0.4274  1.8930
 7476TIP3    H243844   0.415   0.262  16.168  0.4813 -0.2131  0.9611
 7477TIP3   OH243845   5.066   4.318  16.486 -0.1011  0.0692  0.1641
 7477TIP3    H143846   4.998   4.315  16.419  0.3212 -1.0003 -0.2344
 7477TIP3    H243847   5.042   4.248  16.548  0.0160  0.4366  0.6306
 7478TIP3   OH243848   3.398   6.185  12.054  0.1811  0.5699  0.7428
 7478TIP3    H143849   3.401   6.096  12.089 -1.7214  0.9417  1.9309
 7478TIP3    H243850   3.305   6.208  12.057  0.4194  1.8978 -1.3383
 7479TIP3   OH243851   4.943   0.512  15.492 -0.1262  0.1157 -0.1624
 7479TIP3    H143852   5.032   0.505  15.527  0.2604  0.3472 -1.0714
 7479TIP3    H243853   4.928   0.429  15.446  0.2135  0.6784 -1.3232
 7480TIP3   OH243854   1.807   5.730  11.587  0.5203 -0.1394 -0.1423
 7480TIP3    H143855   1.822   5.673  11.662 -0.7637  0.2566  0.4150
 7480TIP3    H243856   1.721   5.705  11.554  0.3369  0.8589 -0.4455
 7481TIP3   OH243857   4.582   3.468   6.084  0.0374  0.0015 -0.0914
 7481TIP3    H143858   4.621   3.385   6.111 -0.5065 -0.5421 -0.9232
 7481TIP3    H243859   4.488   3.449   6.080  0.0952 -0.0317 -2.5376
 7482TIP3   OH243860   2.841   5.140   1.978 -0.7125  1.0225  0.3154
 7482TIP3    H143861   2.866   5.050   2.001 -2.4129  0.5617  0.4320
 7482TIP3    H243862   2.856   5.145   1.884  1.0611  1.1790  0.5961
 7483TIP3   OH243863   4.080   4.304  13.317  0.4255  0.1544  0.4903
 7483TIP3    H143864   4.068   4.399  13.322 -0.1921  0.1291 -0.4028
 7483TIP3    H243865   4.046   4.272  13.401  0.1609  0.6769  0.5874
 7484TIP3   OH243866   2.964   2.540  16.565 -0.2105  0.2273 -0.3254
 7484TIP3    H143867   2.935   2.491  16.642  1.6434 -0.5011 -0.0597
 7484TIP3    H243868   2.919   2.497  16.492 -0.9591  0.0855  0.2120
 7485TIP3   OH243869   4.734   4.010   5.700  0.1227  0.0291  0.1665
 7485TIP3    H143870   4.712   4.073   5.631  0.8170 -0.0561 -0.1330
 7485TIP3    H243871   4.768   3.934   5.654 -2.1373 -1.2016  0.4327
 7486TIP3   OH243872   1.032   0.899  15.677  0.5626  0.1825 -0.2172
 7486TIP3    H143873   0.966   0.962  15.648  1.1377  0.1885 -1.5223
 7486TIP3    H243874   1.014   0.888  15.771 -1.4535 -0.0134 -0.5940
 7487TIP3   OH243875   5.169   0.461   2.057 -0.0832 -0.1747 -0.1119
 7487TIP3    H143876   5.195   0.553   2.060 -0.2153 -0.1582  0.5066
 7487TIP3    H243877   5.168   0.433   2.148 -3.3397  0.1549  0.0324
 7488TIP3   OH243878   2.785   1.289   4.852  0.2856  0.1016  0.3190
 7488TIP3    H143879   2.809   1.286   4.945 -0.6016 -1.8598  0.5175
 7488TIP3    H243880   2.793   1.198   4.823 -1.4782  0.3353 -0.9859
 7489TIP3   OH243881   3.958   6.470  10.681 -0.4892  0.3221  0.0814
 7489TIP3    H143882   3.929   6.449  10.593  0.3645  0.8622 -0.3346
 7489TIP3    H243883   3.881   6.507  10.724 -0.4906  1.5737 -0.9513
 7490TIP3   OH243884   1.176   1.132  16.276  0.5125  0.2191 -0.1869
 7490TIP3    H143885   1.112   1.083  16.225  2.3224 -0.8989 -1.4579
 7490TIP3    H243886   1.188   1.214  16.227  1.1731 -0.2327 -0.7949
 7491TIP3   OH243887   2.502   3.220   2.466 -0.0127 -0.5572  0.6578
 7491TIP3    H143888   2.514   3.242   2.373 -0.2021 -1.7917  0.3264
 7491TIP3    H243889   2.585   3.245   2.507  0.6718 -1.4631 -0.1370
 7492TIP3   OH243890   0.499   3.961  12.203 -0.7315 -0.0602 -0.1757
 7492TIP3    H143891   0.454   3.960  12.287 -1.6860 -2.4948 -0.6595
 7492TIP3    H243892   0.553   3.882  12.204  1.3233  1.3042 -0.7806
 7493TIP3   OH243893   3.613   4.431   0.515  0.8577  0.2657  0.5652
 7493TIP3    H143894   3.529   4.430   0.469  0.0510 -0.2915  2.0100
 7493TIP3    H243895   3.651   4.516   0.495  0.2526  0.2683 -0.6228
 7494TIP3   OH243896   5.858   5.291   3.425 -0.3719 -0.8795  0.1948
 7494TIP3    H143897   5.770   5.258   3.441 -0.4382 -0.0303  1.7536
 7494TIP3    H243898   5.914   5.244   3.487 -0.0341 -0.1070  0.4948
 7495TIP3   OH243899   2.659   2.051   0.784  0.2780  0.0613 -0.0161
 7495TIP3    H143900   2.647   2.105   0.705  2.4183  1.8374  0.8227
 7495TIP3    H243901   2.695   2.111   0.849  2.8166 -2.3915  0.9253
 7496TIP3   OH243902   6.130   0.591   5.910  0.5005 -0.0092 -0.6835
 7496TIP3    H143903   6.224   0.577   5.901  0.4799 -0.3776 -0.3391
 7496TIP3    H243904   6.113   0.580   6.004  0.0336 -0.4349 -0.8179
 7497TIP3   OH243905   6.668   1.174   5.243  0.2785 -0.8197  0.0490
 7497TIP3    H143906   6.616   1.098   5.267 -3.6429  1.7910  0.1561
 7497TIP3    H243907   6.677   1.225   5.324 -0.0227  0.4896 -0.7196
 7498TIP3   OH243908   5.705   3.888  11.054 -0.4560  0.1372  0.6691
 7498TIP3    H143909   5.722   3.793  11.054 -0.7850  0.0321 -1.8700
 7498TIP3    H243910   5.610   3.895  11.045 -0.1653  0.6378 -2.7765
 7499TIP3   OH243911   2.611   0.465  14.868 -0.5367  0.2741  0.4429
 7499TIP3    H143912   2.564   0.412  14.932 -1.3372  0.8950  0.3733
 7499TIP3    H243913   2.627   0.549  14.913  1.0623 -0.1377  0.6967
 7500TIP3   OH243914   5.740   2.013  15.687 -1.0559 -0.0752  0.1372
 7500TIP3    H143915   5.786   1.952  15.744 -0.2473 -0.3472 -0.7842
 7500TIP3    H243916   5.741   1.970  15.601 -1.4207  0.7581 -0.2851
 7501TIP3   OH243917   2.066   3.611   0.696  0.0829  0.4166 -0.3038
 7501TIP3    H143918   2.114   3.537   0.658  0.7634  0.2944  0.7858
 7501TIP3    H243919   2.134   3.668   0.732 -0.5783  0.2748  1.1871
 7502TIP3   OH243920   0.639   5.903   0.467 -0.4964 -0.0006  0.3671
 7502TIP3    H143921   0.702   5.973   0.484 -0.0569 -0.5374  0.9751
 7502TIP3    H243922   0.683   5.824   0.499 -0.0024 -0.9138 -2.4447
 7503TIP3   OH243923   1.639   0.977   4.202  0.6316 -0.0016  0.0097
 7503TIP3    H143924   1.689   0.923   4.140  1.3756  1.1568 -0.4207
 7503TIP3    H243925   1.691   1.056   4.212 -0.5464  0.7289  0.4731
 7504TIP3   OH243926   3.154   6.633  14.416  0.0068 -0.4730 -1.0238
 7504TIP3    H143927   3.155   6.581  14.335 -0.6394 -0.0376 -1.3153
 7504TIP3    H243928   3.198   6.715  14.391  0.3783 -0.5917 -0.7605
 7505TIP3   OH243929   1.984   1.865  14.299 -0.9562  0.0306  0.5137
 7505TIP3    H143930   2.062   1.893  14.251  0.2978 -0.5584  2.1905
 7505TIP3    H243931   2.012   1.789  14.349 -2.1057  0.9335  2.5764
 7506TIP3   OH243932   4.422   6.009  11.417 -0.1527  0.5958 -0.0285
 7506TIP3    H143933   4.485   5.964  11.360  0.9943  1.8186  0.2340
 7506TIP3    H243934   4.339   5.964  11.403  1.0048 -1.6800  0.3533
 7507TIP3   OH243935   5.660   4.466   0.513  0.1194 -0.1572  0.3828
 7507TIP3    H143936   5.736   4.466   0.453 -0.2044  0.1041 -0.0321
 7507TIP3    H243937   5.662   4.553   0.553 -0.8679  0.4072 -0.7904
 7508TIP3   OH243938   0.958   2.137   4.335  0.0441  0.4761  0.3393
 7508TIP3    H143939   0.878   2.109   4.380  0.0092 -0.0279 -0.0349
 7508TIP3    H243940   1.029   2.098   4.387  0.0213  0.2899  0.2293
 7509TIP3   OH243941   5.073   4.818  13.045  0.0921  0.3424 -0.0602
 7509TIP3    H143942   5.155   4.861  13.069 -0.7569  1.3578  1.0540
 7509TIP3    H243943   5.078   4.808  12.950  0.8089  1.8585 -0.1888
 7510TIP3   OH243944   3.903   6.323   2.742  0.3288  0.4149  0.1248
 7510TIP3    H143945   3.922   6.309   2.835  0.0568  0.5073  0.1946
 7510TIP3    H243946   3.983   6.361   2.707  1.2210 -1.6558 -0.1449
 7511TIP3   OH243947   0.535   0.245  15.587  0.3257 -0.6987  0.2766
 7511TIP3    H143948   0.551   0.214  15.497  0.2638  2.0578 -0.7285
 7511TIP3    H243949   0.609   0.303  15.606 -1.0268  0.8300  0.9962
 7512TIP3   OH243950   2.958   2.910  12.345 -0.2586  0.0677  0.3725
 7512TIP3    H143951   2.981   2.940  12.433  0.4803 -0.2804  0.3069
 7512TIP3    H243952   3.043   2.891  12.304 -0.5988  0.2908 -0.4316
 7513TIP3   OH243953   0.246   3.777   6.030  0.2502 -0.0711 -0.1492
 7513TIP3    H143954   0.335   3.811   6.019  0.6760 -0.7686  1.0099
 7513TIP3    H243955   0.190   3.842   5.987  1.4479 -0.5692 -2.5256
 7514TIP3   OH243956   1.369   4.336   6.613 -0.5690 -0.5275 -0.3441
 7514TIP3    H143957   1.422   4.273   6.661 -1.0248 -0.2775  0.5079
 7514TIP3    H243958   1.311   4.282   6.559  0.0450 -0.8089 -0.7251
 7515TIP3   OH243959   4.990   6.288  12.143  0.2072  0.2237  0.2454
 7515TIP3    H143960   5.069   6.342  12.150  0.3700 -0.3147  3.1908
 7515TIP3    H243961   4.957   6.283  12.232 -0.9227 -2.9274 -0.3103
 7516TIP3   OH243962   4.424   0.747  13.349  0.4262 -0.6263 -0.1190
 7516TIP3    H143963   4.379   0.724  13.431  0.8621 -0.8602  0.0529
 7516TIP3    H243964   4.507   0.784  13.378  1.4891 -2.6369 -0.5089
 7517TIP3   OH243965   4.445   5.031  15.361 -0.0593 -0.5356 -0.0416
 7517TIP3    H143966   4.518   5.055  15.417  0.9014 -1.5450 -0.8400
 7517TIP3    H243967   4.429   4.939  15.380  0.3383 -0.9120 -1.4813
 7518TIP3   OH243968   4.272   3.874  14.051  0.4189 -0.2686  0.4064
 7518TIP3    H143969   4.286   3.782  14.028 -0.3492 -0.5004  0.8327
 7518TIP3    H243970   4.190   3.874  14.101 -0.2735  0.8279 -0.7164
 7519TIP3   OH243971   1.076   0.366  14.808 -0.2264 -0.3776 -0.4270
 7519TIP3    H143972   1.075   0.426  14.882 -1.5486  0.5251 -1.1465
 7519TIP3    H243973   1.112   0.418  14.736 -0.1439 -0.8566 -0.7345
 7520TIP3   OH243974   4.240   4.362   1.046  0.2559 -0.5130 -0.0861
 7520TIP3    H143975   4.214   4.359   0.954 -1.2268  0.0586  0.2987
 7520TIP3    H243976   4.223   4.273   1.078  0.5247 -0.6402 -0.2868
 7521TIP3   OH243977   3.224   0.990   2.892 -0.5079  0.7385 -0.0259
 7521TIP3    H143978   3.204   0.898   2.907 -0.7070  0.4769 -1.7901
 7521TIP3    H243979   3.229   0.998   2.797  1.8962  2.0401  0.1616
 7522TIP3   OH243980   5.072   6.590   0.749 -0.2440  0.8107  0.3729
 7522TIP3    H143981   5.074   6.645   0.671 -0.7176 -0.8395 -0.8182
 7522TIP3    H243982   5.151   6.615   0.798 -0.2076  2.2060 -0.3639
 7523TIP3   OH243983   5.528   6.243  11.388 -0.1550 -0.2156  0.4273
 7523TIP3    H143984   5.583   6.259  11.310  0.4683 -1.9707  0.4766
 7523TIP3    H243985   5.498   6.330  11.414 -1.6158  0.2915 -2.6619
 7524TIP3   OH243986   1.653   4.490  11.526 -0.5945  0.1186 -0.4999
 7524TIP3    H143987   1.725   4.430  11.506 -2.0925 -2.3228  1.1685
 7524TIP3    H243988   1.694   4.558  11.581  0.6559 -0.6487 -0.4540
 7525TIP3   OH243989   1.328   3.900   5.007  0.2780  0.1247  0.4933
 7525TIP3    H143990   1.316   3.810   4.978 -0.2069  0.3451  0.0088
 7525TIP3    H243991   1.370   3.944   4.933  2.0495 -0.1019  1.3374
 7526TIP3   OH243992   5.493   1.689   3.068 -0.1823 -0.3948  0.8174
 7526TIP3    H143993   5.462   1.723   2.983  0.1948 -0.1604  0.7702
 7526TIP3    H243994   5.437   1.731   3.132  0.8219  0.9816  0.8153
 7527TIP3   OH243995   0.034   6.202   2.254 -0.6281  0.4975 -0.2623
 7527TIP3    H143996   0.013   6.110   2.241 -1.9899  0.7654 -0.0475
 7527TIP3    H243997   0.126   6.203   2.281 -0.3779 -0.7281 -1.0556
 7528TIP3   OH243998   4.625   1.403   5.664  0.5144  0.3316  0.2884
 7528TIP3    H143999   4.649   1.495   5.675  0.4316  0.2328  1.3773
 7528TIP3    H244000   4.705   1.355   5.682 -0.1002  0.0725  2.4467
 7529TIP3   OH244001   6.432   6.674   3.306  0.6141 -0.0840  0.4185
 7529TIP3    H144002   6.503   6.610   3.300  1.2055  0.4923  1.2062
 7529TIP3    H244003   6.476   6.759   3.296  0.1263  0.3115  1.6204
 7530TIP3   OH244004   2.965   5.995   2.433  0.1486 -0.7664 -0.5943
 7530TIP3    H144005   2.928   6.048   2.363  0.9517 -2.1842 -2.1318
 7530TIP3    H244006   2.949   5.904   2.405  1.3602 -1.3555  0.5614
 7531TIP3   OH244007   6.506   1.162   6.720 -0.6639  0.2636  0.2208
 7531TIP3    H144008   6.427   1.210   6.744 -1.0532  0.0014 -0.5172
 7531TIP3    H244009   6.491   1.073   6.753 -0.8704  0.1030 -0.2904
 7532TIP3   OH244010   0.701   2.438   2.213 -0.0843  0.4421  0.0345
 7532TIP3    H144011   0.796   2.445   2.207  0.0488 -2.0862 -1.5128
 7532TIP3    H244012   0.686   2.391   2.295 -0.0856  1.7187  0.7880
 7533TIP3   OH244013   0.247   4.897  13.118  0.0566  0.2372  0.8230
 7533TIP3    H144014   0.160   4.925  13.087  0.6030  0.8321 -0.2038
 7533TIP3    H244015   0.298   4.887  13.038  1.2065  0.8172  1.4764
 7534TIP3   OH244016   1.775   3.202   3.742 -0.6325  0.2669 -0.2075
 7534TIP3    H144017   1.834   3.248   3.801 -0.4870 -0.3600  0.1396
 7534TIP3    H244018   1.772   3.256   3.663  1.2343 -0.2446 -0.6376
 7535TIP3   OH244019   2.019   2.045   0.113 -0.2955  0.1722  0.3432
 7535TIP3    H144020   2.056   2.057   0.026  0.1405  1.0614  0.6442
 7535TIP3    H244021   2.022   2.132   0.153 -3.0647  0.3587  0.2489
 7536TIP3   OH244022   2.421   1.754   6.673 -0.2920 -0.0160 -0.7739
 7536TIP3    H144023   2.509   1.784   6.649 -0.2629  0.4403 -0.0814
 7536TIP3    H244024   2.370   1.834   6.685 -1.0409 -0.2903 -2.0379
 7537TIP3   OH244025   2.183   6.511  13.392  0.0843 -0.2163 -0.0682
 7537TIP3    H144026   2.132   6.583  13.429  0.2838  0.1518 -0.5001
 7537TIP3    H244027   2.273   6.526  13.423  0.3989  0.5275 -1.3240
 7538TIP3   OH244028   5.221   4.923  12.514 -0.1120 -0.4408 -0.0821
 7538TIP3    H144029   5.287   4.873  12.563  0.3628 -0.4945 -0.7756
 7538TIP3    H244030   5.165   4.856  12.475  0.2855 -0.4234 -0.6828
 7539TIP3   OH244031   5.957   3.697  14.661 -0.1121 -0.2027  0.7718
 7539TIP3    H144032   6.018   3.623  14.664  4.4952  3.3923  1.6417
 7539TIP3    H244033   5.959   3.726  14.570 -0.2685  0.1720  0.8873
 7540TIP3   OH244034   4.802   5.658   3.682 -0.1603 -0.0848  0.2987
 7540TIP3    H144035   4.732   5.723   3.695  0.5313  0.4917  1.1644
 7540TIP3    H244036   4.839   5.680   3.596 -1.0274 -0.3772 -0.1528
 7541TIP3   OH244037   2.721   5.061  16.849  0.2543 -1.2116  0.5446
 7541TIP3    H144038   2.705   5.107  16.932 -1.4094  1.0616 -0.9652
 7541TIP3    H244039   2.816   5.053  16.844  0.3735 -1.5531  2.7609
 7542TIP3   OH244040   6.289   3.856  12.852 -0.0905  0.1435 -0.5982
 7542TIP3    H144041   6.253   3.783  12.903  2.2650 -1.0289 -0.5278
 7542TIP3    H244042   6.255   3.934  12.895  2.0182 -0.7874  3.0429
 7543TIP3   OH244043   4.337   4.908   4.612 -0.0943  0.0011 -0.3979
 7543TIP3    H144044   4.309   4.932   4.523 -0.4862 -0.7305 -0.4756
 7543TIP3    H244045   4.376   4.821   4.602  1.0251  0.4575 -0.0677
 7544TIP3   OH244046   0.999   1.411   4.740  0.1429  0.0972  0.0811
 7544TIP3    H144047   1.040   1.340   4.692  1.2165  0.1066  0.9571
 7544TIP3    H244048   1.058   1.485   4.730  0.5410  0.0166  1.6357
 7545TIP3   OH244049   1.036   4.115  15.149  0.1900 -0.0573  0.4006
 7545TIP3    H144050   1.079   4.041  15.192 -0.5768 -1.5436 -1.3812
 7545TIP3    H244051   0.978   4.151  15.217  0.5926 -1.0488  1.2888
 7546TIP3   OH244052   4.119   0.684   4.431 -0.1589  0.3761  0.3414
 7546TIP3    H144053   4.212   0.695   4.412 -0.6501 -0.5460 -2.7877
 7546TIP3    H244054   4.093   0.767   4.472  1.5812  1.4311 -0.6236
 7547TIP3   OH244055   6.088   2.647   1.273 -0.1417 -0.4718 -0.3219
 7547TIP3    H144056   6.167   2.595   1.257  0.1577  0.3231 -1.4847
 7547TIP3    H244057   6.097   2.676   1.364  1.4880  0.5556 -0.7917
 7548TIP3   OH244058   0.343   2.910  16.080 -0.5493  0.0434  0.1490
 7548TIP3    H144059   0.286   2.887  16.153  0.0496  1.4969  1.1029
 7548TIP3    H244060   0.425   2.865  16.099 -0.2334  0.8093  0.6539
 7549TIP3   OH244061   4.725   6.611  10.791  0.7012 -0.2144 -0.5358
 7549TIP3    H144062   4.632   6.603  10.814  0.5134  1.1275 -0.8076
 7549TIP3    H244063   4.729   6.689  10.737  2.0712 -0.0099 -0.1438
 7550TIP3   OH244064   5.267   2.830   4.177 -0.2062  0.9578  0.0765
 7550TIP3    H144065   5.263   2.872   4.092 -0.5683  1.3935  0.3091
 7550TIP3    H244066   5.347   2.864   4.217 -1.2643  2.5647  0.8603
 7551TIP3   OH244067   0.223   4.596  14.773 -0.3417  0.2829 -0.0060
 7551TIP3    H144068   0.303   4.553  14.804  0.8813  2.7143  0.4186
 7551TIP3    H244069   0.238   4.610  14.679 -0.6918 -0.1655 -0.1246
 7552TIP3   OH244070   1.192   3.920   5.780 -0.8850  0.1499 -0.1733
 7552TIP3    H144071   1.254   3.870   5.726 -1.8446 -0.2526 -0.9067
 7552TIP3    H244072   1.245   3.991   5.817  0.0347 -0.2332 -0.7370
 7553TIP3   OH244073   0.479   4.635   5.324 -0.4369  0.5771 -0.0472
 7553TIP3    H144074   0.421   4.596   5.389 -1.9529  2.0518 -0.5036
 7553TIP3    H244075   0.437   4.717   5.299  1.5766  1.4363 -0.7726
 7554TIP3   OH244076   0.539   2.421   1.798  0.4359  0.0233  0.1007
 7554TIP3    H144077   0.489   2.343   1.821  0.0123  0.6525  1.3565
 7554TIP3    H244078   0.542   2.472   1.878 -0.1945  1.8096 -0.9780
 7555TIP3   OH244079   1.051   0.715   6.297 -0.1000  0.7304 -0.6205
 7555TIP3    H144080   1.082   0.789   6.246  0.1283  0.3860 -0.9814
 7555TIP3    H244081   1.125   0.692   6.354 -0.4215  1.2403  0.0106
 7556TIP3   OH244082   0.450   5.838   4.305  0.5174  0.8483  0.3920
 7556TIP3    H144083   0.523   5.797   4.261 -0.6743 -1.7173  0.7361
 7556TIP3    H244084   0.424   5.910   4.247  1.1814 -0.3026 -1.3463
 7557TIP3   OH244085   0.237   5.160  11.906 -0.2739  0.0403  0.0178
 7557TIP3    H144086   0.167   5.105  11.940 -2.0071  1.7970 -0.5952
 7557TIP3    H244087   0.299   5.099  11.867 -1.4329 -1.5570  0.6235
 7558TIP3   OH244088   5.455   1.080   4.000  0.1048  0.2089  0.0620
 7558TIP3    H144089   5.396   1.058   4.072  0.8497 -3.1408 -0.2287
 7558TIP3    H244090   5.506   1.154   4.032 -1.6053  0.6653  1.8092
 7559TIP3   OH244091   6.623   5.726  14.124 -0.1696  0.3070 -0.4690
 7559TIP3    H144092   6.534   5.709  14.156 -0.5846  1.9331 -0.7208
 7559TIP3    H244093   6.613   5.738  14.030  0.7588 -2.3694 -0.9667
 7560TIP3   OH244094   5.969   2.242   4.539 -0.0084  0.5178  0.1150
 7560TIP3    H144095   6.051   2.245   4.491 -0.2263  0.6437 -0.2455
 7560TIP3    H244096   5.925   2.163   4.507  0.5356 -0.2645  1.2264
 7561TIP3   OH244097   1.457   0.513  13.671  0.0771 -0.1663 -0.3141
 7561TIP3    H144098   1.364   0.498  13.653  0.0675 -0.5248  0.0299
 7561TIP3    H244099   1.503   0.474  13.596 -0.1291  1.7775 -1.4929
 7562TIP3   OH244100   4.870   1.752  16.096  0.2690 -0.6519  0.1299
 7562TIP3    H144101   4.963   1.764  16.075 -0.4475  2.3028 -1.4939
 7562TIP3    H244102   4.854   1.659  16.077  2.5944 -0.9366 -0.6632
 7563TIP3   OH244103   5.459   0.985  16.194 -0.5152 -0.0411 -0.3945
 7563TIP3    H144104   5.427   1.068  16.230 -0.1969 -0.2303  0.3397
 7563TIP3    H244105   5.529   0.959  16.253  0.8238  0.2281 -1.8448
 7564TIP3   OH244106   1.973   4.473   2.082 -0.5453 -1.0913 -0.4589
 7564TIP3    H144107   1.897   4.417   2.066 -1.6552 -0.3395  1.9812
 7564TIP3    H244108   1.981   4.526   2.002 -0.7927 -3.1892 -1.9152
 7565TIP3   OH244109   3.296   3.204  12.453  0.0001  0.1337 -0.0726
 7565TIP3    H144110   3.264   3.225  12.365  0.4984  0.7023 -0.1275
 7565TIP3    H244111   3.313   3.289  12.493 -1.3650 -0.0910  1.0158
 7566TIP3   OH244112   1.896   2.448  16.391 -0.4816 -0.2585  0.1131
 7566TIP3    H144113   1.815   2.401  16.405 -1.2245  0.6603 -1.0303
 7566TIP3    H244114   1.901   2.510  16.464 -0.7536 -0.3690  0.2252
 7567TIP3   OH244115   1.129   5.077  14.685  0.2020 -0.3596  0.0276
 7567TIP3    H144116   1.092   5.164  14.667 -1.4517 -0.5650  2.2437
 7567TIP3    H244117   1.053   5.019  14.684  0.3083 -0.7555  5.0316
 7568TIP3   OH244118   3.700   2.795  11.724  0.1362  0.1207 -0.3298
 7568TIP3    H144119   3.721   2.814  11.816  0.2808  1.1055 -0.5684
 7568TIP3    H244120   3.614   2.834  11.710 -0.5413 -1.2777 -0.2217
 7569TIP3   OH244121   2.963   4.278   1.298 -0.4130  0.5590  0.1777
 7569TIP3    H144122   2.961   4.224   1.377 -0.3598  0.3673  0.0468
 7569TIP3    H244123   2.895   4.241   1.242  2.1274 -1.7752 -1.5083
 7570TIP3   OH244124   5.393   0.516  14.996 -0.3407 -0.0917 -0.0857
 7570TIP3    H144125   5.446   0.541  14.921 -2.3643 -0.3319 -1.6406
 7570TIP3    H244126   5.456   0.495  15.065  1.5321  0.3926 -1.6309
 7571TIP3   OH244127   6.623   3.032   4.651 -0.1832  0.3560  0.3509
 7571TIP3    H144128   6.650   3.052   4.741 -0.0142  0.7261  0.2157
 7571TIP3    H244129   6.692   2.976   4.617  0.2082  0.9556  0.1483
 7572TIP3   OH244130   3.971   5.060   0.221  0.2225 -0.9123  0.1300
 7572TIP3    H144131   4.052   5.093   0.259 -0.1179  0.0979  0.0168
 7572TIP3    H244132   3.970   5.095   0.132  0.4301 -2.2546 -0.4130
 7573TIP3   OH244133   2.050   2.157   5.101  0.4308  0.3971  0.1474
 7573TIP3    H144134   1.968   2.145   5.149  0.9624 -1.8128  0.5554
 7573TIP3    H244135   2.065   2.073   5.057  1.4702  1.4176 -1.5137
 7574TIP3   OH244136   3.639   0.107  11.989  0.1594  0.2373  0.2882
 7574TIP3    H144137   3.655   0.201  11.987  1.1796  0.0673  0.5338
 7574TIP3    H244138   3.578   0.095  12.063 -0.8332  0.8239 -0.4152
 7575TIP3   OH244139   5.294   4.886   0.812  0.4481  0.1007  0.0526
 7575TIP3    H144140   5.253   4.934   0.739 -2.5114 -1.7375  0.4154
 7575TIP3    H244141   5.254   4.924   0.890  0.1741 -1.0436  0.4698
 7576TIP3   OH244142   1.040   6.028   6.231  0.6028 -0.2684  0.1173
 7576TIP3    H144143   1.031   5.977   6.311  0.9142  2.6670  2.1015
 7576TIP3    H244144   1.134   6.041   6.221  0.4593  1.1073  0.4395
 7577TIP3   OH244145   1.576   4.631  15.523  0.3323 -0.1338  0.1305
 7577TIP3    H144146   1.619   4.598  15.444  1.5591  1.0602  0.2611
 7577TIP3    H244147   1.649   4.657  15.581 -0.5554  0.3096  1.0748
 7578TIP3   OH244148   4.182   1.488  12.254 -0.0101  0.3189 -0.1205
 7578TIP3    H144149   4.234   1.507  12.176 -2.0870 -0.6580 -1.8007
 7578TIP3    H244150   4.120   1.421  12.225 -1.3834  0.5610  2.1546
 7579TIP3   OH244151   1.674   1.350  14.883 -0.1489 -0.6172 -0.5774
 7579TIP3    H144152   1.639   1.390  14.963 -1.9393 -0.3618 -1.4558
 7579TIP3    H244153   1.639   1.261  14.884 -0.4552 -0.5046 -1.2413
 7580TIP3   OH244154   2.252   0.833  14.250 -0.6590 -0.2416 -0.6947
 7580TIP3    H144155   2.242   0.855  14.157  3.1779 -0.8690 -1.3355
 7580TIP3    H244156   2.249   0.738  14.252 -0.4614 -0.2353 -0.2047
 7581TIP3   OH244157   5.143   1.689  13.584 -0.2544 -0.1805  0.4753
 7581TIP3    H144158   5.193   1.633  13.643 -0.3625 -0.2183  0.5316
 7581TIP3    H244159   5.086   1.739  13.642  0.6845  0.8416  0.5244
 7582TIP3   OH244160   3.484   4.803  14.968 -0.4536 -0.4397  0.1424
 7582TIP3    H144161   3.537   4.795  15.047 -0.2199  0.0053  0.0306
 7582TIP3    H244162   3.473   4.898  14.956 -1.6674 -0.5323  0.4293
 7583TIP3   OH244163   4.342   0.409  12.451 -0.2111 -0.7912 -0.0889
 7583TIP3    H144164   4.356   0.498  12.483 -0.7490 -0.8184  0.2278
 7583TIP3    H244165   4.401   0.356  12.504  0.1833 -0.6099 -0.3459
 7584TIP3   OH244166   4.210   2.390  14.665  0.6395  0.2032  0.3040
 7584TIP3    H144167   4.190   2.323  14.730 -0.1396  0.2433  0.1065
 7584TIP3    H244168   4.299   2.420  14.687 -0.4048  1.7086  2.6301
 7585TIP3   OH244169   0.419   1.983  16.796  0.2869  0.2507 -0.0377
 7585TIP3    H144170   0.470   2.024  16.726  2.1275 -1.7878  0.0500
 7585TIP3    H244171   0.387   1.901  16.758 -1.3045  0.5873  0.5443
 7586TIP3   OH244172   2.462   3.290  16.036  0.0684  0.6465 -0.3916
 7586TIP3    H144173   2.377   3.248  16.049 -0.2918  1.7843  1.0314
 7586TIP3    H244174   2.443   3.384  16.033  0.9560  0.8099 -2.8045
 7587TIP3   OH244175   3.679   6.116   3.401  0.1145 -0.3408 -0.2384
 7587TIP3    H144176   3.701   6.023   3.410  0.9130 -0.1761 -0.4601
 7587TIP3    H244177   3.761   6.162   3.418 -0.8768  0.4607  2.7190
 7588TIP3   OH244178   6.333   2.216   0.134 -0.1218 -0.0768 -0.3906
 7588TIP3    H144179   6.373   2.151   0.076  0.5657  1.0230 -1.1591
 7588TIP3    H244180   6.324   2.294   0.080 -0.3839  0.6592  0.7070
 7589TIP3   OH244181   0.740   4.568   3.692  0.6785 -0.4022  0.1244
 7589TIP3    H144182   0.735   4.501   3.760 -1.9595 -2.4128 -1.9583
 7589TIP3    H244183   0.804   4.535   3.629  1.4633  0.3917  0.4943
 7590TIP3   OH244184   1.003   3.815  12.408 -0.3762 -0.3323 -0.0720
 7590TIP3    H144185   1.030   3.907  12.403 -1.2969 -0.1359 -1.5336
 7590TIP3    H244186   1.044   3.773  12.332  0.0752 -1.1546  0.6074
 7591TIP3   OH244187   2.090   4.668  16.469 -0.5356 -0.4066  0.0498
 7591TIP3    H144188   2.085   4.692  16.561  0.1177  1.1882 -0.3211
 7591TIP3    H244189   2.005   4.627  16.451 -0.6700 -0.7375  1.3382
 7592TIP3   OH244190   5.808   4.721  16.966 -0.4832 -0.3560  0.2653
 7592TIP3    H144191   5.865   4.702  17.041  0.0102  2.1688  0.5707
 7592TIP3    H244192   5.862   4.703  16.889  0.2717  0.6562  0.5481
 7593TIP3   OH244193   2.278   0.050   6.191  0.4138  0.4674  0.4038
 7593TIP3    H144194   2.225  -0.005   6.133  0.2739  1.6561 -0.6036
 7593TIP3    H244195   2.219   0.121   6.217  1.6540  2.1489 -1.2190
 7594TIP3   OH244196   5.606   2.511   2.266  0.5791 -0.6132 -0.3774
 7594TIP3    H144197   5.640   2.428   2.302 -1.5241 -0.4350  2.1620
 7594TIP3    H244198   5.540   2.539   2.329 -2.0600  0.6602 -3.5742
 7595TIP3   OH244199   3.509   5.409  11.286  0.4112 -0.0138 -0.4477
 7595TIP3    H144200   3.505   5.444  11.197  0.8240  0.9695 -0.0835
 7595TIP3    H244201   3.443   5.340  11.288  1.4914 -1.1385 -1.9960
 7596TIP3   OH244202   5.210   1.783   4.133  0.3855 -0.0995 -0.2946
 7596TIP3    H144203   5.238   1.705   4.085  0.4133  0.5130 -1.2926
 7596TIP3    H244204   5.254   1.856   4.088 -2.2400  0.8195 -1.4909
 7597TIP3   OH244205   5.686   2.581   1.470 -0.2280 -0.1926  0.3519
 7597TIP3    H144206   5.747   2.655   1.464 -2.7425  1.8085 -1.7461
 7597TIP3    H244207   5.630   2.590   1.393  0.3157 -5.2120 -0.7621
 7598TIP3   OH244208   4.446   5.143  13.202 -0.1790  0.0072  0.0216
 7598TIP3    H144209   4.354   5.129  13.181 -1.0747 -0.3546  3.7259
 7598TIP3    H244210   4.449   5.231  13.240  0.6897 -0.5780  1.3604
 7599TIP3   OH244211   3.823   0.698  14.076  0.4466  0.5488  0.0053
 7599TIP3    H144212   3.887   0.683  14.146 -0.0227 -1.2204  0.0759
 7599TIP3    H244213   3.875   0.697  13.996  0.5298 -0.8011  0.0690
 7600TIP3   OH244214   0.439   5.760  15.993 -0.1084 -0.3815  0.2599
 7600TIP3    H144215   0.412   5.852  15.996  0.3673 -0.1606 -1.7117
 7600TIP3    H244216   0.428   5.735  15.902  0.3120 -2.1338  0.6758
 7601TIP3   OH244217   4.637   3.557   3.900 -0.5686 -0.2601 -0.3009
 7601TIP3    H144218   4.718   3.607   3.889 -0.8285 -0.0195 -1.1010
 7601TIP3    H244219   4.585   3.610   3.961 -0.3298 -0.1737 -0.1682
 7602TIP3   OH244220   2.959   2.655  16.032 -0.0538 -0.4075 -0.2228
 7602TIP3    H144221   2.863   2.663  16.032  0.1293  2.9814  2.2034
 7602TIP3    H244222   2.977   2.583  16.092 -1.0970 -0.1448  0.4245
 7603TIP3   OH244223   5.965   5.093  16.849  0.3035  0.4931 -0.6102
 7603TIP3    H144224   5.977   5.184  16.820  0.8896 -0.3228 -3.0856
 7603TIP3    H244225   5.888   5.063  16.801  1.3251 -0.9183 -1.4202
 7604TIP3   OH244226   3.320   3.608   5.842  0.0045 -0.5673  0.0086
 7604TIP3    H144227   3.408   3.626   5.810  0.4102 -1.3513  0.6635
 7604TIP3    H244228   3.273   3.691   5.832  1.2946  0.3263  1.1956
 7605TIP3   OH244229   3.622   0.454   3.357 -0.0467 -0.2806 -0.1331
 7605TIP3    H144230   3.632   0.399   3.279 -1.2604 -1.1424  0.3152
 7605TIP3    H244231   3.667   0.536   3.334 -1.7113  0.0488 -2.3338
 7606TIP3   OH244232   4.369   0.676   5.199 -0.0063 -0.2685  0.7959
 7606TIP3    H144233   4.323   0.755   5.227  0.4976  0.2349  0.2394
 7606TIP3    H244234   4.404   0.699   5.113  0.5950 -0.9175  0.8650
 7607TIP3   OH244235   6.232   5.254   2.842  0.0893 -0.3027  0.2484
 7607TIP3    H144236   6.255   5.290   2.756  0.4996 -0.6793  0.1974
 7607TIP3    H244237   6.255   5.161   2.835 -2.1506 -0.8630 -0.0537
 7608TIP3   OH244238   0.448   0.484   4.496  0.5591 -0.4949 -0.3765
 7608TIP3    H144239   0.373   0.499   4.554  0.7719 -1.3133  0.1264
 7608TIP3    H244240   0.515   0.546   4.527  1.2696 -2.0757  1.3828
 7609TIP3   OH244241   1.208   5.986   5.799  0.6749 -0.5114  0.0697
 7609TIP3    H144242   1.138   5.993   5.864  2.9661  0.0816  2.5414
 7609TIP3    H244243   1.222   5.892   5.789 -1.2620 -0.6840 -1.3745
 7610TIP3   OH244244   2.783   2.528   1.147  0.2161  0.2427  0.6743
 7610TIP3    H144245   2.761   2.580   1.070 -0.8020 -0.0746  0.7397
 7610TIP3    H244246   2.843   2.462   1.115 -0.3034  0.0313  0.1140
 7611TIP3   OH244247   0.387   1.216  11.939 -0.2994 -0.5048  0.6925
 7611TIP3    H144248   0.365   1.298  11.984 -0.3023  0.4354 -0.9799
 7611TIP3    H244249   0.304   1.170  11.929 -0.2799 -0.7852  1.7531
 7612TIP3   OH244250   3.962   0.443   5.858 -0.2432  0.4667 -0.1896
 7612TIP3    H144251   3.962   0.519   5.915 -1.9524 -0.3800  0.9840
 7612TIP3    H244252   3.871   0.433   5.831  0.0651 -0.8074 -0.8079
 7613TIP3   OH244253   3.290   6.734  17.039 -0.7839  0.4749  0.3824
 7613TIP3    H144254   3.348   6.755  16.966 -0.6970  0.7169  0.5181
 7613TIP3    H244255   3.346   6.742  17.116 -1.1874  1.5322  0.5850
 7614TIP3   OH244256   4.302   1.657  16.285  0.5666  0.2733  0.1234
 7614TIP3    H144257   4.362   1.700  16.225  0.1521 -0.3367 -0.7408
 7614TIP3    H244258   4.228   1.718  16.293 -0.2273 -0.4402 -1.4532
 7615TIP3   OH244259   6.778   4.835   4.450 -0.1345  0.2928  0.4745
 7615TIP3    H144260   6.685   4.852   4.459 -0.6619 -1.9831 -0.2905
 7615TIP3    H244261   6.809   4.823   4.539 -0.8632 -0.2469  0.6617
 7616TIP3   OH244262   6.551   4.018   6.467 -0.2801  0.4822  0.5977
 7616TIP3    H144263   6.485   4.055   6.409  1.5457  0.7994 -1.3641
 7616TIP3    H244264   6.616   4.088   6.478  0.3512 -0.2218  1.4889
 7617TIP3   OH244265   3.914   1.922  14.205 -0.3754  0.5012  0.0604
 7617TIP3    H144266   3.819   1.935  14.197 -0.5350 -0.5318  0.2602
 7617TIP3    H244267   3.945   2.004  14.244 -1.2796  0.5536  0.6895
 7618TIP3   OH244268   2.315   0.922   0.882  0.3423  0.2517  0.0704
 7618TIP3    H144269   2.279   0.844   0.925  2.3991 -1.0465 -0.5160
 7618TIP3    H244270   2.339   0.980   0.954  2.2669 -1.2245  0.6421
 7619TIP3   OH244271   1.364   2.105  14.480  0.0441  0.1650  0.0520
 7619TIP3    H144272   1.353   2.011  14.471  0.0701 -0.0835  2.3583
 7619TIP3    H244273   1.457   2.118  14.496 -0.3129  0.3488  2.1005
 7620TIP3   OH244274   5.022   3.505  16.244 -0.3659 -0.4568  0.6425
 7620TIP3    H144275   5.060   3.421  16.268 -0.4006 -0.4268  0.8033
 7620TIP3    H244276   5.064   3.568  16.302  2.3486  0.1792 -1.8591
 7621TIP3   OH244277   2.297   5.830  10.673 -0.7955 -0.4038  0.2583
 7621TIP3    H144278   2.261   5.904  10.623 -0.4224  1.1247  2.1755
 7621TIP3    H244279   2.304   5.759  10.609  0.2722  1.6787 -2.0370
 7622TIP3   OH244280   0.913   0.321   3.408  0.2721  0.1041 -0.2061
 7622TIP3    H144281   0.838   0.308   3.465  0.8338  0.2694  0.5685
 7622TIP3    H244282   0.923   0.416   3.402  2.4440  0.0719  2.3620
 7623TIP3   OH244283   3.461   6.488  17.096 -0.7249  0.3345 -0.5088
 7623TIP3    H144284   3.462   6.535  17.013 -1.4867  1.6012  0.1837
 7623TIP3    H244285   3.453   6.395  17.071 -0.0397  0.6274 -1.8619
 7624TIP3   OH244286   0.062   0.355   0.320 -0.0980 -0.6997  0.2441
 7624TIP3    H144287  -0.018   0.347   0.372 -0.4791  1.2111 -0.0040
 7624TIP3    H244288   0.044   0.305   0.240 -1.0954 -0.1981  0.1443
 7625TIP3   OH244289   3.098   4.030  13.826  0.2126  0.2506 -0.9078
 7625TIP3    H144290   3.188   4.000  13.837 -0.2592 -0.7514  0.3553
 7625TIP3    H244291   3.105   4.125  13.818  1.2636  0.3318  0.7177
 7626TIP3   OH244292   4.613   4.729   2.085  0.2937  0.1589 -0.0163
 7626TIP3    H144293   4.591   4.671   2.012 -0.7482 -2.0194  1.9364
 7626TIP3    H244294   4.531   4.776   2.104  1.1741  2.4625 -1.6903
 7627TIP3   OH244295   1.907   6.318   4.037  0.0466  0.4024  0.1532
 7627TIP3    H144296   1.899   6.381   4.108 -2.1941 -0.1963  0.4658
 7627TIP3    H244297   1.908   6.371   3.957 -0.6933  0.8820  0.4643
 7628TIP3   OH244298   2.391   3.450  14.638 -0.4389 -0.2515 -0.4581
 7628TIP3    H144299   2.415   3.409  14.555  3.3245 -0.1504  0.5020
 7628TIP3    H244300   2.399   3.544  14.621 -1.4610 -0.1631 -0.4771
 7629TIP3   OH244301   6.099   1.400  16.920 -0.0716  0.0349  0.6530
 7629TIP3    H144302   6.065   1.382  17.008 -1.7017 -0.6574 -0.0945
 7629TIP3    H244303   6.062   1.485  16.897 -0.3405 -0.1793  0.2951
 7630TIP3   OH244304   5.806   2.505  16.954 -0.4429  0.7093 -0.4856
 7630TIP3    H144305   5.861   2.489  17.031 -0.2600  0.0894 -0.7410
 7630TIP3    H244306   5.774   2.418  16.929 -0.5942  0.9246 -1.0398
 7631TIP3   OH244307   6.050   4.781  12.122 -0.5135  0.1377  0.2829
 7631TIP3    H144308   6.059   4.702  12.174 -0.5677 -0.8780 -1.2128
 7631TIP3    H244309   6.014   4.846  12.182  0.7321 -0.6103  1.8565
 7632TIP3   OH244310   6.724   5.779   0.592  0.2517 -0.3941  0.8066
 7632TIP3    H144311   6.698   5.779   0.500  0.3668 -0.5008  0.7735
 7632TIP3    H244312   6.657   5.831   0.636  1.8931  2.3613  0.1985
 7633TIP3   OH244313   3.331   4.348   3.964 -0.3599 -0.4908  0.1271
 7633TIP3    H144314   3.249   4.303   3.944 -0.6468 -0.8018  1.8665
 7633TIP3    H244315   3.305   4.435   3.992  0.2262  0.9548 -3.6052
 7634TIP3   OH244316   6.494   4.741  11.614  0.2694 -0.1556 -0.7107
 7634TIP3    H144317   6.523   4.740  11.523  2.3085  1.4849 -0.1100
 7634TIP3    H244318   6.514   4.829  11.646 -2.3546 -0.0126  0.7450
 7635TIP3   OH244319   5.737   2.555   5.379 -0.2128  0.0676 -0.2916
 7635TIP3    H144320   5.791   2.550   5.458 -2.5821 -0.2433  1.3423
 7635TIP3    H244321   5.742   2.647   5.353  0.1864  0.2724  0.4943
 7636TIP3   OH244322   0.998   4.372   2.414  0.0920  0.0574 -0.1416
 7636TIP3    H144323   1.070   4.374   2.351  0.7796 -0.4175  0.6101
 7636TIP3    H244324   0.931   4.430   2.377  1.3822  1.5283 -0.2353
 7637TIP3   OH244325   5.137   0.058   6.364 -0.4821 -0.4906 -0.2487
 7637TIP3    H144326   5.059   0.113   6.366  0.6542  1.2690 -1.9738
 7637TIP3    H244327   5.132   0.005   6.444 -4.0407 -1.3108 -0.9232
 7638TIP3   OH244328   5.132   3.163   4.467  0.3764  0.3820 -0.4852
 7638TIP3    H144329   5.193   3.108   4.417 -0.3693 -1.3032  0.4233
 7638TIP3    H244330   5.147   3.252   4.434  1.6586 -0.3493 -1.9235
 7639TIP3   OH244331   2.189   0.620   1.823 -0.6950  0.1892 -0.4566
 7639TIP3    H144332   2.100   0.620   1.788 -1.4663 -1.1257  1.4457
 7639TIP3    H244333   2.241   0.576   1.755 -1.7212 -0.1380 -1.0345
 7640TIP3   OH244334   6.557   5.789  12.640 -0.1280  0.1220 -0.3815
 7640TIP3    H144335   6.461   5.798  12.634 -0.1869  0.1117  0.4522
 7640TIP3    H244336   6.571   5.696  12.653  0.0304  0.0498 -1.0578
 7641TIP3   OH244337   1.850   4.948   2.710  0.5090 -0.3246 -0.3428
 7641TIP3    H144338   1.776   4.888   2.712  0.5119 -0.3511 -0.9342
 7641TIP3    H244339   1.888   4.937   2.622 -1.0446  2.4026 -1.4286
 7642TIP3   OH244340   4.676   1.045  11.170 -0.1202 -0.1320 -0.1702
 7642TIP3    H144341   4.649   0.965  11.214  0.3410 -0.7143 -0.9393
 7642TIP3    H244342   4.594   1.094  11.156 -0.3196 -0.1638  0.8911
 7643TIP3   OH244343   4.930   5.683   0.660 -0.4161 -0.5279  0.2748
 7643TIP3    H144344   5.000   5.709   0.720 -1.0159 -1.6976  1.4776
 7643TIP3    H244345   4.955   5.724   0.577  0.5968  0.8227  1.2071
 7644TIP3   OH244346   1.470   5.059  11.624  0.3518  0.3279  0.0867
 7644TIP3    H144347   1.468   4.976  11.576  0.2397  1.2858 -1.6167
 7644TIP3    H244348   1.535   5.045  11.693  0.0529 -1.3042  0.0676
 7645TIP3   OH244349   1.440   3.276   3.412 -0.0127 -0.2435 -0.0192
 7645TIP3    H144350   1.356   3.231   3.423 -0.5428  0.7164 -0.0851
 7645TIP3    H244351   1.444   3.337   3.486  1.3354 -1.3678  0.8616
 7646TIP3   OH244352   3.284   1.150  10.649  0.7062 -0.8408 -0.0136
 7646TIP3    H144353   3.238   1.224  10.609  0.6608 -1.4921 -1.1729
 7646TIP3    H244354   3.280   1.081  10.583  2.4486 -1.2445  0.2809
 7647TIP3   OH244355   2.983   2.813  15.771  0.1982  0.2867 -0.0147
 7647TIP3    H144356   2.945   2.725  15.774  1.2378 -0.1575  0.3235
 7647TIP3    H244357   3.062   2.803  15.719 -0.4385  1.3292 -1.2106
 7648TIP3   OH244358   0.169   2.955   1.687 -0.2805 -0.1325  0.2530
 7648TIP3    H144359   0.257   2.989   1.678  0.0407 -1.5367 -2.3059
 7648TIP3    H244360   0.179   2.860   1.681 -1.6939 -0.4921  2.6026
 7649TIP3   OH244361   2.856   4.613   5.190  0.2517  0.1988 -0.0722
 7649TIP3    H144362   2.928   4.569   5.236  0.4812  0.1840 -0.4460
 7649TIP3    H244363   2.898   4.683   5.140 -0.2030  1.3151  1.0953
 7650TIP3   OH244364   5.490   3.594   4.731 -0.6266 -0.0628  0.2183
 7650TIP3    H144365   5.502   3.571   4.639 -0.4965 -1.1484  0.4982
 7650TIP3    H244366   5.477   3.510   4.775 -0.8992  0.4659  1.1601
 7651TIP3   OH244367   2.078   1.074  16.819 -0.2724 -0.0300  0.5545
 7651TIP3    H144368   2.087   1.156  16.770  0.8706 -0.0733  0.6690
 7651TIP3    H244369   2.150   1.020  16.787  0.7386  0.0820  2.5466
 7652TIP3   OH244370   1.737   6.410   3.598  0.4108 -0.0562  0.2589
 7652TIP3    H144371   1.690   6.351   3.539  0.2359 -0.1473  0.4921
 7652TIP3    H244372   1.687   6.491   3.596  2.4099  1.1986 -2.5912
 7653TIP3   OH244373   5.039   1.831  12.596  0.0210 -0.2160 -0.5013
 7653TIP3    H144374   4.984   1.881  12.535  0.3741  0.2429 -0.4410
 7653TIP3    H244375   5.062   1.752  12.547 -2.1399 -1.2541  0.0914
 7654TIP3   OH244376   3.776   0.011  13.441  0.1498 -0.7980 -0.1739
 7654TIP3    H144377   3.696  -0.021  13.483 -0.2838 -2.4801 -2.1778
 7654TIP3    H244378   3.748   0.090  13.394  0.1680 -0.1424  0.9006
 7655TIP3   OH244379   6.467   2.220   5.897 -0.0324 -0.1935 -0.0110
 7655TIP3    H144380   6.543   2.175   5.934  0.5347  0.5338 -0.2763
 7655TIP3    H244381   6.441   2.282   5.966 -0.7613 -0.8528  0.3226
 7656TIP3   OH244382   6.390   2.487   3.900 -0.3486  0.0782 -0.0990
 7656TIP3    H144383   6.368   2.476   3.808  0.3498 -0.2918 -0.2242
 7656TIP3    H244384   6.450   2.415   3.919  0.2548  0.7031  0.3981
 7657TIP3   OH244385   3.928   1.937   4.862 -0.1903 -0.3790 -0.1390
 7657TIP3    H144386   3.953   1.850   4.833 -1.7498 -1.2245  0.9738
 7657TIP3    H244387   3.972   1.948   4.946  0.2988  0.0618 -0.4492
 7658TIP3   OH244388   3.418   2.509   0.982  0.5240  0.3169 -0.2964
 7658TIP3    H144389   3.366   2.440   0.941  0.6938 -0.9232  1.5151
 7658TIP3    H244390   3.495   2.464   1.016  1.0390  1.5345  0.1938
 7659TIP3   OH244391   4.956   5.564   2.184  0.5383  0.1791 -0.3888
 7659TIP3    H144392   4.910   5.647   2.199  1.0799  0.6381 -1.2526
 7659TIP3    H244393   5.021   5.560   2.254 -1.1887 -0.7542  1.2000
 7660TIP3   OH244394   1.777   3.433   1.239  0.4660 -0.2208 -0.2115
 7660TIP3    H144395   1.869   3.449   1.220  0.8853 -2.0974  0.1761
 7660TIP3    H244396   1.732   3.448   1.156  0.9389  1.8346 -0.1436
 7661TIP3   OH244397   3.453   5.991  16.508 -0.6870  0.5575 -0.5537
 7661TIP3    H144398   3.458   6.022  16.598 -1.5133  2.0929 -1.0138
 7661TIP3    H244399   3.408   6.061  16.461 -2.5266 -1.3013 -1.6545
 7662TIP3   OH244400   2.683   0.370  16.476  0.2856 -0.4502 -0.0306
 7662TIP3    H144401   2.702   0.305  16.544 -0.8225 -0.3167  0.4194
 7662TIP3    H244402   2.762   0.424  16.472  0.4723 -0.6456  0.9328
 7663TIP3   OH244403   3.410   5.839  11.520  0.6411 -0.1458 -0.1298
 7663TIP3    H144404   3.360   5.765  11.486  0.4281  0.4987 -1.2492
 7663TIP3    H244405   3.501   5.818  11.498  0.8412 -1.1349  1.5628
 7664TIP3   OH244406   3.090   0.867   3.428  0.0454  0.3851  0.0542
 7664TIP3    H144407   3.017   0.893   3.373 -0.0157  1.1312  0.4756
 7664TIP3    H244408   3.088   0.928   3.502  0.7767  0.0890  0.3331
 7665TIP3   OH244409   4.412   0.656  12.337  0.0234 -0.3194  0.0702
 7665TIP3    H144410   4.438   0.600  12.263 -0.2187  0.3632 -0.5345
 7665TIP3    H244411   4.437   0.744  12.310  1.1415 -0.2219  1.3591
 7666TIP3   OH244412   5.969   4.480   4.490  0.3908 -0.5151  0.0177
 7666TIP3    H144413   5.968   4.486   4.394 -2.1874 -2.7419 -0.1507
 7666TIP3    H244414   6.009   4.395   4.508  1.1126  0.0132  0.9550
 7667TIP3   OH244415   0.677   2.267  16.981  0.0482  0.2099  0.4759
 7667TIP3    H144416   0.676   2.310  17.066 -2.0850  1.6945 -0.2766
 7667TIP3    H244417   0.611   2.199  16.987 -1.5068  1.5876 -0.6002
 7668TIP3   OH244418   5.161   4.175   3.961  0.0029 -0.4665 -0.0920
 7668TIP3    H144419   5.132   4.266   3.958  0.9724 -0.1598 -0.2378
 7668TIP3    H244420   5.107   4.130   3.896  1.1776  0.4900 -1.7596
 7669TIP3   OH244421   6.576   5.869  16.330 -0.6908 -0.3157  0.2352
 7669TIP3    H144422   6.535   5.951  16.355  0.1159  0.0077  0.5216
 7669TIP3    H244423   6.518   5.801  16.364 -0.6422  0.1263  1.1937
 7670TIP3   OH244424   2.391   1.560   3.140 -0.3041  0.1488 -0.4921
 7670TIP3    H144425   2.476   1.587   3.176 -0.6982  1.4655 -0.5249
 7670TIP3    H244426   2.412   1.488   3.081  0.5883 -0.7107  0.8558
 7671TIP3   OH244427   3.958   0.139   6.131  0.2932 -0.8152  0.0305
 7671TIP3    H144428   3.886   0.138   6.194  0.0272  0.9251 -0.2098
 7671TIP3    H244429   3.953   0.055   6.086 -1.7612 -0.6132 -0.1571
 7672TIP3   OH244430   2.042   3.059  15.901 -0.5076 -0.2938  0.0124
 7672TIP3    H144431   2.070   3.106  15.980  0.8607 -2.3517  0.8035
 7672TIP3    H244432   1.965   3.009  15.929 -0.2782 -0.6920 -0.0613
 7673TIP3   OH244433   0.137   3.614  16.426 -1.1963  0.5951  0.2941
 7673TIP3    H144434   0.202   3.619  16.496  0.0926  0.0850 -0.8320
 7673TIP3    H244435   0.122   3.520  16.414 -1.2050  0.6675 -0.2821
 7674TIP3   OH244436   6.032   3.899  14.488 -0.0440  0.1492 -0.0317
 7674TIP3    H144437   5.944   3.935  14.475  0.0072 -0.1940 -1.3564
 7674TIP3    H244438   6.086   3.941  14.422  0.8125  0.3901  0.8092
 7675TIP3   OH244439   3.025   2.310  12.012  0.0024  0.5576 -0.0550
 7675TIP3    H144440   3.106   2.326  11.963 -1.2061 -0.5510 -2.5176
 7675TIP3    H244441   3.013   2.215  12.007 -1.8485  0.7934 -0.4082
 7676TIP3   OH244442   1.761   2.932  14.816 -0.3145 -0.0155  0.1827
 7676TIP3    H144443   1.717   2.855  14.779 -2.0886  0.6311  0.8852
 7676TIP3    H244444   1.837   2.945  14.760 -1.8732 -0.2260 -2.0486
 7677TIP3   OH244445   6.397   2.705  14.616  0.0220 -0.4619  0.1814
 7677TIP3    H144446   6.488   2.729  14.598 -0.4477 -0.5984 -2.4658
 7677TIP3    H244447   6.403   2.619  14.657  0.9624 -1.7744 -2.5847
 7678TIP3   OH244448   4.917   5.935  11.538  0.5385 -0.3548 -0.0548
 7678TIP3    H144449   4.869   5.856  11.564 -0.8971  0.3448 -0.5173
 7678TIP3    H244450   4.924   5.928  11.442  1.1161 -0.3167 -0.0150
 7679TIP3   OH244451   0.364   3.566   0.942  0.2104 -0.1113 -0.2351
 7679TIP3    H144452   0.382   3.581   1.036  1.8245  1.0542 -0.6956
 7679TIP3    H244453   0.373   3.653   0.903 -0.2457 -0.6352 -1.5033
 7680TIP3   OH244454   5.444   3.760   3.912  0.3077 -0.1519 -0.6471
 7680TIP3    H144455   5.403   3.763   3.999  0.3118 -1.6764 -0.5728
 7680TIP3    H244456   5.371   3.773   3.851  0.2474  0.5614 -0.4208
 7681TIP3   OH244457   6.069   6.590  15.054  0.0958  0.1501 -0.3108
 7681TIP3    H144458   6.111   6.676  15.046  0.7607 -0.1682 -0.3391
 7681TIP3    H244459   6.138   6.534  15.089  0.9727 -1.3449 -4.2038
 7682TIP3   OH244460   4.210   5.726   0.266 -0.0011  0.0810 -0.1621
 7682TIP3    H144461   4.129   5.732   0.216  0.1621  0.7931 -0.3445
 7682TIP3    H244462   4.206   5.801   0.326  0.1469 -0.3434  0.3857
 7683TIP3   OH244463   4.502   3.961  13.028 -0.7879  0.2157  0.9752
 7683TIP3    H144464   4.567   3.986  12.961 -0.2687  0.1760  1.4613
 7683TIP3    H244465   4.504   4.033  13.091 -0.4442 -0.2909  1.5459
 7684TIP3   OH244466   3.031   1.488  14.952  0.0463  0.9925  0.1373
 7684TIP3    H144467   3.039   1.533  14.869  0.7103 -2.0497 -1.5258
 7684TIP3    H244468   2.937   1.472  14.962  0.0693  0.3669 -0.6062
 7685TIP3   OH244469   2.964   1.540  11.095 -0.0854 -0.1828  0.1390
 7685TIP3    H144470   3.025   1.605  11.061 -0.4250 -0.5485 -1.2114
 7685TIP3    H244471   2.899   1.530  11.026  0.3854 -2.5026 -0.0137
 7686TIP3   OH244472   5.213   2.871  11.468  0.2077 -0.1149 -0.0646
 7686TIP3    H144473   5.125   2.832  11.461 -0.1730  0.7215 -0.0556
 7686TIP3    H244474   5.208   2.949  11.412  1.3146 -0.7054 -0.9927
 7687TIP3   OH244475   5.502   0.587   3.582 -0.2703 -0.5400 -0.4925
 7687TIP3    H144476   5.505   0.642   3.504  1.1548 -0.9292 -0.7348
 7687TIP3    H244477   5.592   0.589   3.615 -0.3919 -2.0607 -0.0543
 7688TIP3   OH244478   3.872   3.628   5.179  0.1207 -0.0459  0.0704
 7688TIP3    H144479   3.820   3.595   5.252 -0.5965  0.9406  0.0240
 7688TIP3    H244480   3.830   3.711   5.155  1.7511  0.8066  0.0648
 7689TIP3   OH244481   5.189   1.786   3.093 -0.7775  0.6672  0.0194
 7689TIP3    H144482   5.163   1.873   3.123 -0.2687  0.2474  1.7517
 7689TIP3    H244483   5.158   1.727   3.162 -0.3281 -0.4361 -0.7113
 7690TIP3   OH244484   3.315   1.602   2.649  0.7134  0.0713 -0.0556
 7690TIP3    H144485   3.239   1.660   2.652  0.3488 -0.4304  0.3859
 7690TIP3    H244486   3.372   1.641   2.582 -0.2172  0.0823 -0.8457
 7691TIP3   OH244487   6.633   2.572   2.673  0.1345  0.6514 -0.1742
 7691TIP3    H144488   6.548   2.588   2.716  0.5014 -0.3710  0.9443
 7691TIP3    H244489   6.614   2.580   2.580 -0.8899  1.8878  0.1187
 7692TIP3   OH244490   5.585   1.257   4.172 -0.4621  0.0877  0.1527
 7692TIP3    H144491   5.555   1.309   4.247  1.0669 -0.8937  1.4971
 7692TIP3    H244492   5.658   1.206   4.207 -1.0332 -1.9228 -1.5005
 7693TIP3   OH244493   6.591   1.131  13.208  0.0606  0.2544  0.4636
 7693TIP3    H144494   6.543   1.060  13.167 -2.6057  1.0045  2.1411
 7693TIP3    H244495   6.641   1.090  13.278  0.4563 -0.2862 -0.1351
 7694TIP3   OH244496   4.325   4.181  12.763  0.2885  0.2873 -0.4726
 7694TIP3    H144497   4.338   4.113  12.829  1.6003  0.2617 -0.7386
 7694TIP3    H244498   4.408   4.184  12.715 -0.9011 -0.2800 -2.6467
 7695TIP3   OH244499   1.285   1.085   4.545  0.2957  0.2650  0.4841
 7695TIP3    H144500   1.309   1.062   4.455 -1.2870 -0.0040  0.1225
 7695TIP3    H244501   1.257   1.003   4.585 -0.5422  0.6660  0.7304
 7696TIP3   OH244502   3.901   6.169   0.157 -0.6724  0.4523  0.0354
 7696TIP3    H144503   3.943   6.230   0.097 -0.3960 -0.5538 -0.8188
 7696TIP3    H244504   3.866   6.101   0.101 -0.9267 -0.2051  0.9730
 7697TIP3   OH244505   0.873   4.269  14.929  0.2207 -0.5609 -1.0407
 7697TIP3    H144506   0.865   4.207  15.001  2.0111  0.1265 -0.2039
 7697TIP3    H244507   0.884   4.354  14.972 -0.1898  0.0553 -2.1438
 7698TIP3   OH244508   0.743   3.408   3.698  0.0869 -0.1903  0.2719
 7698TIP3    H144509   0.724   3.481   3.639 -0.2091  0.4902  1.1874
 7698TIP3    H244510   0.743   3.331   3.642  1.8244  0.6743 -0.9661
 7699TIP3   OH244511   1.052   3.899  13.524 -0.1225 -0.5341  0.1273
 7699TIP3    H144512   1.034   3.988  13.493  0.5019 -0.4745 -0.0817
 7699TIP3    H244513   1.147   3.897  13.534  0.0145 -1.6307 -1.2847
 7700TIP3   OH244514   0.563   6.460  14.541  0.0741  0.3594  0.0086
 7700TIP3    H144515   0.512   6.441  14.620 -1.1521  1.0689 -0.5995
 7700TIP3    H244516   0.509   6.429  14.469  0.4513  1.2029 -0.6535
 7701TIP3   OH244517   2.554   2.119   6.286 -0.2006 -0.1910 -0.4276
 7701TIP3    H144518   2.480   2.176   6.306 -0.8041 -0.4093 -1.9547
 7701TIP3    H244519   2.626   2.178   6.267 -0.3832  0.0456 -0.3862
 7702TIP3   OH244520   4.750   5.530   4.454 -0.2464 -0.4548  0.4278
 7702TIP3    H144521   4.756   5.434   4.455 -2.7705 -0.7250 -2.7069
 7702TIP3    H244522   4.670   5.549   4.502  0.7862  0.1987  1.9334
 7703TIP3   OH244523   4.240   0.286   1.128  0.0107  0.3493  0.0979
 7703TIP3    H144524   4.153   0.317   1.102 -0.9142 -1.4549  0.9358
 7703TIP3    H244525   4.259   0.330   1.210 -0.5047  0.0647  0.3685
 7704TIP3   OH244526   1.373   2.565  12.301  0.5956 -0.1387  0.1967
 7704TIP3    H144527   1.301   2.516  12.261  3.1208 -3.3256 -0.6037
 7704TIP3    H244528   1.442   2.564  12.235  2.2611  0.7645  1.8960
 7705TIP3   OH244529   6.209   3.003   0.866 -0.1381 -0.2034  0.9336
 7705TIP3    H144530   6.244   3.003   0.955  2.0215  1.8490  0.1512
 7705TIP3    H244531   6.202   3.096   0.843 -2.8186 -0.6619 -0.2404
 7706TIP3   OH244532   1.975   6.297   4.751  0.7767  0.4482 -0.5375
 7706TIP3    H144533   1.936   6.384   4.757 -0.9947 -0.4773  2.0717
 7706TIP3    H244534   1.957   6.268   4.661 -1.1253  1.6261 -0.5433
 7707TIP3   OH244535   2.508   3.068  15.137  0.8438 -0.6208 -0.0373
 7707TIP3    H144536   2.603   3.058  15.134  0.8049 -0.6210 -3.2736
 7707TIP3    H244537   2.475   2.993  15.088 -0.8994 -1.0552  1.7346
 7708TIP3   OH244538   4.227   0.248  14.365  0.2770 -0.4529  0.1926
 7708TIP3    H144539   4.148   0.214  14.407  0.7089  0.0080  1.3967
 7708TIP3    H244540   4.282   0.277  14.438  1.4723 -0.5918 -0.6398
 7709TIP3   OH244541   6.309   4.680  14.692 -0.8870 -0.4431 -0.5672
 7709TIP3    H144542   6.215   4.677  14.708 -0.7556 -2.5044 -0.0389
 7709TIP3    H244543   6.348   4.626  14.761  0.7466  0.8750 -0.4095
 7710TIP3   OH244544   5.831   0.764  15.945 -0.0112  0.1226 -0.2296
 7710TIP3    H144545   5.747   0.724  15.965  0.6285 -0.0243  2.3778
 7710TIP3    H244546   5.814   0.818  15.869 -1.7352 -2.2711 -1.6218
 7711TIP3   OH244547   2.455   6.686  10.945 -1.0671 -0.2758 -0.4254
 7711TIP3    H144548   2.373   6.676  10.897 -0.5894  2.2642 -1.8940
 7711TIP3    H244549   2.522   6.698  10.877  0.6184 -2.7643  0.7344
 7712TIP3   OH244550   6.307   0.881   5.826  0.0239  0.4571 -0.2603
 7712TIP3    H144551   6.287   0.844   5.912 -1.1469  0.8927 -0.3280
 7712TIP3    H244552   6.307   0.806   5.766  0.7781  0.1611  0.1133
 7713TIP3   OH244553   5.151   0.952   0.246  0.4153 -0.1463  0.3912
 7713TIP3    H144554   5.170   0.865   0.283  1.1983  0.7237  2.0758
 7713TIP3    H244555   5.231   1.002   0.259  0.1976  0.6537 -1.1884
 7714TIP3   OH244556   1.214   5.485   2.581  0.7327 -0.3265  0.0710
 7714TIP3    H144557   1.137   5.432   2.563  0.8051  0.8035 -3.9776
 7714TIP3    H244558   1.279   5.423   2.615 -0.8125 -1.8949  0.2241
 7715TIP3   OH244559   5.227   1.945   6.123  0.0332  0.6980 -1.2868
 7715TIP3    H144560   5.204   1.885   6.194  0.9563  2.0031  0.1411
 7715TIP3    H244561   5.310   1.912   6.089  0.6874  1.3015 -0.3095
 7716TIP3   OH244562   0.852   0.634  13.907  0.4814 -0.0878  0.8751
 7716TIP3    H144563   0.937   0.679  13.907  0.1470  0.5554  0.1143
 7716TIP3    H244564   0.792   0.699  13.945 -0.2579  0.6122 -1.4443
 7717TIP3   OH244565   3.687   1.654   5.484 -0.6560  0.1125 -0.4971
 7717TIP3    H144566   3.688   1.628   5.576  1.2068  0.2496 -0.4586
 7717TIP3    H244567   3.603   1.699   5.473 -0.9363  0.0208  1.0996
 7718TIP3   OH244568   1.533   5.480  12.930 -0.1999 -0.4506 -0.2744
 7718TIP3    H144569   1.591   5.513  12.998  1.8813 -1.4295 -1.5256
 7718TIP3    H244570   1.519   5.555  12.872  1.4094 -0.7340 -1.0315
 7719TIP3   OH244571   5.228   6.235  17.050 -0.3217  0.1107  0.3188
 7719TIP3    H144572   5.236   6.181  16.971 -0.5518 -0.3551  0.6106
 7719TIP3    H244573   5.235   6.172  17.122  2.0766  0.7801  0.7189
 7720TIP3   OH244574   4.717   6.285  14.382 -0.0440  0.2177 -0.0942
 7720TIP3    H144575   4.731   6.192  14.365 -0.1350  0.6786 -2.9476
 7720TIP3    H244576   4.622   6.293  14.390 -0.0443  0.0582  0.0520
 7721TIP3   OH244577   4.476   2.807  13.259  0.2385 -0.5272  0.7293
 7721TIP3    H144578   4.559   2.847  13.235  1.0739 -3.1402 -0.9374
 7721TIP3    H244579   4.421   2.815  13.181  0.2009 -1.9941  0.5811
 7722TIP3   OH244580   5.778   6.184  14.853  0.0805 -0.5778  0.1726
 7722TIP3    H144581   5.692   6.143  14.850  0.3674 -1.3165  1.7196
 7722TIP3    H244582   5.818   6.152  14.934  2.5892 -1.8550 -1.4756
 7723TIP3   OH244583   2.409   1.496  16.194 -0.2690  0.3394 -0.5768
 7723TIP3    H144584   2.426   1.410  16.156 -0.9966  0.5707 -1.4632
 7723TIP3    H244585   2.313   1.499  16.203 -0.0849  0.1927  1.5253
 7724TIP3   OH244586   2.936   0.062  12.985  0.0380  0.0178  0.1183
 7724TIP3    H144587   2.872   0.100  13.045  0.2283 -0.3055  0.5251
 7724TIP3    H244588   2.969  -0.016  13.030 -0.0012 -0.3710 -0.5071
 7725TIP3   OH244589   3.757   1.240   2.670 -0.0243  0.5607  0.3210
 7725TIP3    H144590   3.729   1.328   2.695  1.9603  1.0914  0.7750
 7725TIP3    H244591   3.688   1.208   2.613 -1.4970  1.8297  1.3645
 7726TIP3   OH244592   0.335   3.652   2.326 -0.3486 -0.4199 -0.5619
 7726TIP3    H144593   0.239   3.654   2.328 -0.3748 -0.7585 -1.1476
 7726TIP3    H244594   0.356   3.639   2.233  0.2935  1.3975 -0.6968
 7727TIP3   OH244595   6.333   2.067   3.081  0.3374  0.2854 -0.7783
 7727TIP3    H144596   6.329   2.024   2.996 -0.5493  0.0169 -0.6004
 7727TIP3    H244597   6.387   2.009   3.135  0.4731  0.1971 -1.0111
 7728TIP3   OH244598   3.236   2.752  12.499 -0.0396  0.0428  0.1741
 7728TIP3    H144599   3.228   2.795  12.413 -0.5822 -0.8676 -0.2404
 7728TIP3    H244600   3.324   2.715  12.498 -0.0712 -0.0323 -0.0256
 7729TIP3   OH244601   3.955   0.878  17.070  0.2851  0.2799  0.1466
 7729TIP3    H144602   3.861   0.891  17.079 -0.0047 -1.6605  0.2995
 7729TIP3    H244603   3.977   0.816  17.141  2.0204  2.1719  1.3169
 7730TIP3   OH244604   5.663   6.051   3.891 -0.4148  0.5328 -0.2256
 7730TIP3    H144605   5.729   6.102   3.937 -0.4885  0.3807  0.0535
 7730TIP3    H244606   5.704   6.026   3.808 -0.4779  1.2774 -0.4845
 7731TIP3   OH244607   2.285   4.445  17.157  0.0167 -0.7214  0.0111
 7731TIP3    H144608   2.368   4.486  17.133 -1.1506  0.9774 -1.2481
 7731TIP3    H244609   2.297   4.418  17.248  2.2842 -1.4088 -0.4523
 7732TIP3   OH244610   3.493   4.654   3.040  0.0909 -0.2859 -0.4462
 7732TIP3    H144611   3.408   4.698   3.046  0.5789  0.8117 -1.3726
 7732TIP3    H244612   3.502   4.630   2.948  1.3084  0.6797 -0.5928
 7733TIP3   OH244613   2.970   0.261   3.389  0.4068 -0.2686 -0.3554
 7733TIP3    H144614   2.878   0.285   3.379  1.1901  3.4945  0.8383
 7733TIP3    H244615   3.013   0.296   3.312  1.2623  0.4551  0.4347
 7734TIP3   OH244616   2.751   4.504  12.849 -0.3140  0.0618  0.2637
 7734TIP3    H144617   2.793   4.569  12.905  1.7705 -0.6463 -0.4622
 7734TIP3    H244618   2.811   4.430  12.848 -2.2492 -1.5590  0.3569
 7735TIP3   OH244619   1.480   0.573   2.707  0.0576 -0.3786  0.6901
 7735TIP3    H144620   1.507   0.589   2.616 -0.6339 -0.8977  0.3883
 7735TIP3    H244621   1.552   0.524   2.745 -0.5043 -1.9187 -0.1669
 7736TIP3   OH244622   2.223   5.966  12.893  0.4205 -0.1350 -0.3159
 7736TIP3    H144623   2.257   5.876  12.890 -1.9436 -1.1048  1.3629
 7736TIP3    H244624   2.183   5.979  12.807  0.5119 -0.7959 -0.4626
 7737TIP3   OH244625   3.702   1.645   0.986 -0.1214 -0.1377  0.2759
 7737TIP3    H144626   3.748   1.671   0.907 -0.0935 -0.5959  0.1405
 7737TIP3    H244627   3.631   1.588   0.955  0.1276 -0.6381  0.6132
 7738TIP3   OH244628   1.763   6.413   0.508 -0.0011  0.0889  0.3658
 7738TIP3    H144629   1.680   6.416   0.460  0.5076 -1.5897 -0.6336
 7738TIP3    H244630   1.794   6.503   0.508 -0.4040  0.2403 -1.7638
 7739TIP3   OH244631   6.226   6.254  13.893  0.6041  0.0330  0.5799
 7739TIP3    H144632   6.133   6.262  13.914  0.1936  1.3855 -1.6581
 7739TIP3    H244633   6.271   6.301  13.964 -0.5692  1.8517  0.1410
 7740TIP3   OH244634   3.529   2.065   5.432 -0.2809 -0.3727  0.4257
 7740TIP3    H144635   3.489   1.978   5.430 -0.8727 -0.1357  1.3745
 7740TIP3    H244636   3.595   2.061   5.501 -0.2644 -0.0890  0.4297
 7741TIP3   OH244637   4.362   2.461   2.940  0.1093  0.1082  0.3696
 7741TIP3    H144638   4.396   2.495   3.023  0.4477 -0.4677  0.4718
 7741TIP3    H244639   4.439   2.429   2.894 -0.0027  0.9361 -0.4190
 7742TIP3   OH244640   0.929   0.892  11.424  0.6042  0.0398 -0.1800
 7742TIP3    H144641   0.925   0.825  11.493 -0.7262  0.8063  0.5164
 7742TIP3    H244642   1.009   0.941  11.443  1.1541 -0.8287 -0.2084
 7743TIP3   OH244643   1.450   3.075   1.605 -0.0686 -0.2391  0.6643
 7743TIP3    H144644   1.367   3.119   1.584  0.2541 -0.3363 -0.8897
 7743TIP3    H244645   1.510   3.146   1.624 -0.7016 -0.1959  2.5779
 7744TIP3   OH244646   5.178   2.007  14.860 -0.4531  0.0702 -0.5199
 7744TIP3    H144647   5.142   2.054  14.785  0.9653  1.3437 -0.4273
 7744TIP3    H244648   5.196   2.075  14.925  0.7685 -0.6962 -0.0406
 7745TIP3   OH244649   4.847   3.845   5.504  0.9361  0.0637 -0.0039
 7745TIP3    H144650   4.878   3.910   5.442 -0.1102 -0.5411 -1.1897
 7745TIP3    H244651   4.926   3.813   5.547  1.5158  1.6355  0.1218
 7746TIP3   OH244652   6.495   6.144   2.199  0.1535  0.0197 -0.0748
 7746TIP3    H144653   6.439   6.206   2.152 -0.6756  0.0163  0.8910
 7746TIP3    H244654   6.482   6.165   2.292  0.9113 -0.7047  0.2042
 7747TIP3   OH244655   4.991   1.231   3.955 -0.2846  0.3608  0.5666
 7747TIP3    H144656   5.046   1.308   3.945  0.0699  0.4557  2.9130
 7747TIP3    H244657   5.017   1.172   3.884 -0.1412  2.1348 -0.8738
 7748TIP3   OH244658   0.311   5.717  15.709 -0.2795 -0.2992  0.3934
 7748TIP3    H144659   0.265   5.668  15.641 -1.8830  0.8060  0.6495
 7748TIP3    H244660   0.254   5.711  15.785  0.9603 -0.5657  1.3201
 7749TIP3   OH244661   6.388   4.454  16.556 -0.5418  0.4240 -0.3095
 7749TIP3    H144662   6.431   4.380  16.600  0.1668  1.3100  0.4983
 7749TIP3    H244663   6.301   4.458  16.596 -0.3692  0.3977  0.0659
 7750TIP3   OH244664   3.555   1.898  16.254  0.2648  0.3252  0.0141
 7750TIP3    H144665   3.591   1.973  16.302  0.1079 -0.8965  2.1099
 7750TIP3    H244666   3.467   1.926  16.229  0.2986  0.9407  0.5621
 7751TIP3   OH244667   5.177   1.999  16.998  0.0817  0.4961  0.1987
 7751TIP3    H144668   5.242   1.929  16.999 -0.1043  0.3236  1.1706
 7751TIP3    H244669   5.099   1.958  16.959 -0.3037 -0.1066  1.5673
 7752TIP3   OH244670   2.852   1.380   3.241 -0.6045 -0.0274 -0.1803
 7752TIP3    H144671   2.913   1.445   3.277  0.4443 -0.6893 -0.7584
 7752TIP3    H244672   2.896   1.345   3.164 -2.1839  0.2490 -1.2300
 7753TIP3   OH244673   5.335   3.351   2.916  0.3127 -0.0829 -0.0997
 7753TIP3    H144674   5.346   3.257   2.904 -0.4335 -0.3326  1.0621
 7753TIP3    H244675   5.242   3.361   2.938  0.8885  0.6721  2.0660
 7754TIP3   OH244676   0.744   3.836  16.089 -0.0868 -0.4076  0.4358
 7754TIP3    H144677   0.790   3.885  16.021 -1.4020 -0.6991 -0.7083
 7754TIP3    H244678   0.811   3.815  16.153  0.9786  0.8120 -0.2359
 7755TIP3   OH244679   5.328   4.863   1.247 -0.1236 -0.2980 -0.4855
 7755TIP3    H144680   5.309   4.779   1.288  0.4732 -0.4880 -0.5972
 7755TIP3    H244681   5.424   4.868   1.245 -0.1324 -0.9013 -3.0935
 7756TIP3   OH244682   4.163   2.444  12.602  0.4926 -0.9158 -0.0767
 7756TIP3    H144683   4.216   2.444  12.682  0.3874  0.7160 -0.0012
 7756TIP3    H244684   4.204   2.377  12.547  2.4847  0.1359  0.0820
 7757TIP3   OH244685   4.006   0.640   4.191 -0.6037 -0.4250  0.4415
 7757TIP3    H144686   4.054   0.602   4.265  1.1869  2.2842  0.7663
 7757TIP3    H244687   3.981   0.727   4.222  1.3338  1.2783 -2.5729
 7758TIP3   OH244688   4.183   2.142  17.132 -0.3728 -0.4596 -0.7847
 7758TIP3    H144689   4.111   2.203  17.147  1.5362  1.6653 -0.0159
 7758TIP3    H244690   4.159   2.064  17.182 -1.0780  1.0890  1.3918
 7759TIP3   OH244691   3.826   4.406  15.598 -0.0566  0.2110 -0.0048
 7759TIP3    H144692   3.833   4.326  15.650 -1.4434 -0.3606 -0.6689
 7759TIP3    H244693   3.878   4.471  15.646  2.8443 -1.6119 -0.5484
 7760TIP3   OH244694   0.667   1.027   3.974 -0.0365 -0.0200 -0.2410
 7760TIP3    H144695   0.654   0.991   3.886 -0.1538  0.8044 -0.5586
 7760TIP3    H244696   0.580   1.058   4.000 -0.1278 -0.7901  0.4074
 7761TIP3   OH244697   4.239   5.389   5.546  0.0563  0.5020  0.5343
 7761TIP3    H144698   4.186   5.459   5.584 -0.1469  1.0857 -0.7830
 7761TIP3    H244699   4.195   5.308   5.572 -0.1148  0.8948  1.4642
 7762TIP3   OH244700   5.313   6.400   5.319 -0.0925 -0.2050 -0.3568
 7762TIP3    H144701   5.405   6.428   5.319  0.0910 -0.7865 -1.1204
 7762TIP3    H244702   5.277   6.435   5.401  0.2359  1.8912 -1.0785
 7763TIP3   OH244703   3.389   0.241  12.123  0.0375 -0.6779  0.6267
 7763TIP3    H144704   3.430   0.244  12.210 -1.4987 -0.3424  1.3686
 7763TIP3    H244705   3.298   0.217  12.141 -0.2480 -0.7657 -0.9172
 7764TIP3   OH244706   6.264   4.903   4.173 -0.5926  0.1647  0.1215
 7764TIP3    H144707   6.262   4.810   4.196 -1.3441  0.3240  0.7079
 7764TIP3    H244708   6.281   4.904   4.079 -1.1920 -0.5884 -0.0008
 7765TIP3   OH244709   5.142   6.245  15.794  0.1597  0.1358  0.6621
 7765TIP3    H144710   5.057   6.272  15.760  0.0527 -0.9198  0.0656
 7765TIP3    H244711   5.122   6.201  15.876  0.3232  1.7278  1.5673
 7766TIP3   OH244712   1.493   6.262  11.829 -0.2319 -0.0088  0.1373
 7766TIP3    H144713   1.442   6.215  11.764  0.5303 -0.9581  0.2118
 7766TIP3    H244714   1.428   6.296  11.891 -0.7355 -1.6139  0.5034
 7767TIP3   OH244715   2.067   6.622   3.672  0.5780 -0.2622  0.1707
 7767TIP3    H144716   2.062   6.700   3.617  0.8296  0.9703  1.8581
 7767TIP3    H244717   2.138   6.570   3.634  0.7878  0.6105 -0.6314
 7768TIP3   OH244718   0.862   5.864  14.969 -0.0278  0.3279 -0.0292
 7768TIP3    H144719   0.841   5.775  14.997 -0.2934  0.6604  0.8181
 7768TIP3    H244720   0.866   5.859  14.873  3.0572 -1.3079  0.1147
 7769TIP3   OH244721   5.951   3.615  10.917  0.0031 -1.2883  0.4539
 7769TIP3    H144722   6.030   3.572  10.886 -0.2547 -1.2936 -0.2034
 7769TIP3    H244723   5.957   3.704  10.882 -0.2393 -1.2628  0.4760
 7770TIP3   OH244724   5.090   2.663  13.907 -0.0417 -0.0873  0.1000
 7770TIP3    H144725   5.013   2.655  13.851  0.4987 -0.7114 -0.5629
 7770TIP3    H244726   5.062   2.626  13.991 -0.6903  0.3716  0.0916
 7771TIP3   OH244727   3.184   3.894   4.875 -0.4840 -0.1557  0.2660
 7771TIP3    H144728   3.272   3.875   4.842 -0.8859  2.3485 -2.4701
 7771TIP3    H244729   3.194   3.892   4.970  1.5805 -3.9137  0.0820
 7772TIP3   OH244730   5.662   6.209   4.689  0.2564 -0.0513 -0.0725
 7772TIP3    H144731   5.622   6.295   4.681  0.5846  0.4047  2.4998
 7772TIP3    H244732   5.672   6.196   4.784  0.0717 -2.9824 -0.3961
 7773TIP3   OH244733   3.613   4.829   1.271  0.2362  0.0152  0.4310
 7773TIP3    H144734   3.672   4.795   1.204 -0.7216 -1.9681  0.5252
 7773TIP3    H244735   3.614   4.924   1.260  1.6959 -0.1636 -1.0157
 7774TIP3   OH244736   4.113   3.291   0.195 -0.2171 -0.7229  0.1677
 7774TIP3    H144737   4.028   3.257   0.224 -1.5754 -0.0385 -2.7656
 7774TIP3    H244738   4.136   3.237   0.119  0.2606  1.3104 -1.1718
 7775TIP3   OH244739   5.462   5.523  11.681 -0.1086 -0.3264  0.3487
 7775TIP3    H144740   5.367   5.527  11.690 -0.1256 -0.2311  0.1304
 7775TIP3    H244741   5.487   5.611  11.652  0.2558  0.2387  2.3034
 7776TIP3   OH244742   3.372   0.004   3.983  0.1093 -0.0943  0.3525
 7776TIP3    H144743   3.376   0.060   3.905 -1.5466  0.9900  1.0107
 7776TIP3    H244744   3.311  -0.066   3.959  2.4528 -1.8626 -0.5942
 7777TIP3   OH244745   6.677   5.171   0.578 -0.1726  0.6607  0.0535
 7777TIP3    H144746   6.757   5.214   0.551 -0.1747  0.8745  0.3907
 7777TIP3    H244747   6.690   5.150   0.670 -0.4500  0.5770  0.0756
 7778TIP3   OH244748   4.594   3.320  15.990 -0.0340 -0.2996  0.4402
 7778TIP3    H144749   4.577   3.331  16.084  1.5652 -0.0410  0.7144
 7778TIP3    H244750   4.687   3.343  15.979 -0.5555  1.0308 -1.4377
 7779TIP3   OH244751   2.815   0.245  11.356  0.0083 -0.4120 -0.4093
 7779TIP3    H144752   2.786   0.168  11.308 -0.9599  0.1414 -0.7187
 7779TIP3    H244753   2.750   0.312  11.336 -0.5879 -0.2550  1.8907
 7780TIP3   OH244754   4.915   6.645  11.426  0.4939  0.2956 -0.0958
 7780TIP3    H144755   4.833   6.597  11.438  0.6515 -0.6158 -2.4186
 7780TIP3    H244756   4.899   6.701  11.350  2.6128 -1.2831 -1.7509
 7781TIP3   OH244757   4.738   5.761  13.717  0.5612  0.0971  0.0264
 7781TIP3    H144758   4.660   5.734  13.669  0.6093  0.7945 -0.4458
 7781TIP3    H244759   4.707   5.777  13.806  0.6947 -2.3921  0.5791
 7782TIP3   OH244760   1.763   1.760   6.014  0.3406  0.6122 -0.3885
 7782TIP3    H144761   1.856   1.780   6.005  0.9279 -1.5480  0.3348
 7782TIP3    H244762   1.750   1.748   6.108 -0.3644 -0.3366 -0.5895
 7783TIP3   OH244763   1.081   1.166   2.409 -0.0578  0.1508 -0.5497
 7783TIP3    H144764   1.143   1.220   2.360  0.0792 -0.1670 -0.7250
 7783TIP3    H244765   1.066   1.215   2.490  1.5033 -0.4431  0.1263
 7784TIP3   OH244766   1.875   5.249  14.610  0.2525 -0.0304  0.3861
 7784TIP3    H144767   1.879   5.291  14.524  0.2091 -0.6295  0.0901
 7784TIP3    H244768   1.967   5.228  14.630  0.2813  0.2529  0.5636
 7785TIP3   OH244769   0.800   0.734  15.496 -0.0510  0.1074  0.0518
 7785TIP3    H144770   0.840   0.812  15.457  0.6341  0.1161  0.7705
 7785TIP3    H244771   0.784   0.759  15.588  1.3991 -1.0626  0.6259
 7786TIP3   OH244772   0.469   5.342  11.864  0.4311  0.1363 -0.4437
 7786TIP3    H144773   0.531   5.269  11.867 -0.7959 -0.8876  2.4335
 7786TIP3    H244774   0.387   5.303  11.836  0.0420  0.6162  0.0108
 7787TIP3   OH244775   0.822   4.589   2.334 -0.5449  0.1937  0.1536
 7787TIP3    H144776   0.739   4.545   2.351 -0.0095 -0.9676 -0.1923
 7787TIP3    H244777   0.854   4.614   2.420 -0.6424 -0.4943  0.3905
 7788TIP3   OH244778   3.158   5.372   3.667  0.9459  0.9482 -0.0680
 7788TIP3    H144779   3.238   5.418   3.692  1.6536 -0.4573  0.3091
 7788TIP3    H244780   3.188   5.289   3.629 -0.3309  0.2252  0.4497
 7789TIP3   OH244781   3.446   2.154   0.744  0.3152 -0.2919  0.3441
 7789TIP3    H144782   3.535   2.188   0.731 -0.3982  1.0731 -1.0721
 7789TIP3    H244783   3.429   2.099   0.668 -0.5152  0.4516 -0.0151
 7790TIP3   OH244784   6.725   5.094   1.375  0.1872  0.9905  0.4761
 7790TIP3    H144785   6.683   5.008   1.369 -0.2832  1.3111 -1.2540
 7790TIP3    H244786   6.819   5.074   1.379  0.2140  0.3989 -1.8552
 7791TIP3   OH244787   0.284   5.880  16.475  0.0219  0.5719  0.2123
 7791TIP3    H144788   0.363   5.919  16.513 -0.6798  1.9942  0.2464
 7791TIP3    H244789   0.218   5.888  16.544 -0.1997 -0.4917  0.1321
 7792TIP3   OH244790   4.092   1.552   3.232 -0.6227  0.2110  0.0629
 7792TIP3    H144791   4.177   1.542   3.190 -0.8634  0.2533 -0.4333
 7792TIP3    H244792   4.055   1.631   3.192 -1.5615 -0.6979 -0.8657
 7793TIP3   OH244793   6.295   1.529   5.032  0.5733  0.1916  0.2474
 7793TIP3    H144794   6.241   1.517   5.111  1.0370  0.8332  0.6612
 7793TIP3    H244795   6.252   1.600   4.984  1.1558  0.8380  0.6748
 7794TIP3   OH244796   4.941   1.534  13.480  0.2042  0.5413  0.1267
 7794TIP3    H144797   5.002   1.597  13.519  0.6434 -1.6757  3.2720
 7794TIP3    H244798   4.994   1.482  13.421  0.4523  1.3233 -0.3390
 7795TIP3   OH244799   4.773   6.325   0.289  0.2104  0.3500  0.3319
 7795TIP3    H144800   4.851   6.295   0.242  0.3822  0.2960  0.6497
 7795TIP3    H244801   4.808   6.367   0.368 -0.0986 -0.0884  0.7075
 7796TIP3   OH244802   1.151   6.462  11.036 -0.3060 -0.1359 -0.3265
 7796TIP3    H144803   1.134   6.486  10.945 -0.0909 -1.3380 -0.6936
 7796TIP3    H244804   1.240   6.428  11.036 -0.7824 -1.3986  0.0843
 7797TIP3   OH244805   5.062   1.903   6.679  0.2957  0.2560 -0.0230
 7797TIP3    H144806   5.045   1.941   6.766 -0.0882  1.2276 -0.5186
 7797TIP3    H244807   5.043   1.974   6.618 -1.2626 -0.9816 -1.0181
 7798TIP3   OH244808   0.397   5.738   0.034 -0.0131 -0.3149  0.1756
 7798TIP3    H144809   0.335   5.798   0.076  0.0979 -0.4031  0.4684
 7798TIP3    H244810   0.439   5.790  -0.034 -0.2876 -0.2054  0.0898
 7799TIP3   OH244811   1.807   0.108  13.046  0.7976  0.1187 -0.1796
 7799TIP3    H144812   1.902   0.113  13.048  0.8796 -1.0760 -0.4515
 7799TIP3    H244813   1.785   0.080  12.957  0.2072  0.1106 -0.0378
 7800TIP3   OH244814   4.725   2.462  14.768  0.1582  0.0747 -0.1506
 7800TIP3    H144815   4.787   2.522  14.725  0.6314 -0.9319 -0.8756
 7800TIP3    H244816   4.763   2.375  14.755 -1.4158 -0.5511 -0.6058
 7801TIP3   OH244817   2.633   6.257  12.635  0.2622  0.4117 -0.1081
 7801TIP3    H144818   2.653   6.187  12.697  0.9605  0.7398  0.0372
 7801TIP3    H244819   2.589   6.324  12.687  2.5660  1.5310  0.4429
 7802TIP3   OH244820   0.648   5.440   3.007 -0.5179  0.2616 -0.0791
 7802TIP3    H144821   0.741   5.451   2.986 -0.2483 -0.2055  0.8089
 7802TIP3    H244822   0.622   5.361   2.961 -0.5932  0.6359 -0.6854
 7803TIP3   OH244823   4.984   0.162  12.503 -0.2167  0.4429 -0.4147
 7803TIP3    H144824   5.072   0.166  12.464 -0.4758  0.2554 -1.0246
 7803TIP3    H244825   4.960   0.069  12.499 -1.2002  0.7320 -1.9775
 7804TIP3   OH244826   4.363   2.152  12.872 -0.9891  0.3203  0.3792
 7804TIP3    H144827   4.297   2.221  12.877  1.0636  2.4936 -1.3297
 7804TIP3    H244828   4.439   2.188  12.916 -0.3104 -1.3791  0.6099
 7805TIP3   OH244829   5.740   0.846   1.561  0.1073 -0.3268  0.1349
 7805TIP3    H144830   5.729   0.756   1.530  0.6385 -0.2353 -0.3302
 7805TIP3    H244831   5.701   0.900   1.492  1.8150 -0.0920 -0.6669
 7806TIP3   OH244832   0.223   6.586  14.330 -0.4480  0.3502 -1.1864
 7806TIP3    H144833   0.283   6.654  14.298  0.5213 -0.6508 -1.5024
 7806TIP3    H244834   0.278   6.509  14.342 -1.5349 -0.3617 -0.7440
 7807TIP3   OH244835   0.820   5.420  13.983 -0.9371  0.1434 -0.3788
 7807TIP3    H144836   0.743   5.457  13.939 -0.6516  1.8833  0.5120
 7807TIP3    H244837   0.861   5.496  14.025  0.2210 -1.0769  0.7143
 7808TIP3   OH244838   1.325   1.376   6.066 -0.1499  0.5803 -0.5386
 7808TIP3    H144839   1.326   1.299   6.124 -0.1954  1.0079  0.0384
 7808TIP3    H244840   1.256   1.357   6.003  1.2714 -0.8143 -1.7302
 7809TIP3   OH244841   6.120   2.654   0.239  0.2938 -0.2177 -0.8328
 7809TIP3    H144842   6.189   2.687   0.182  0.6474  0.6927  0.1028
 7809TIP3    H244843   6.040   2.698   0.209  0.7220  1.3695  0.2626
 7810TIP3   OH244844   5.336   5.585   1.207  0.1411 -0.0104 -0.2508
 7810TIP3    H144845   5.272   5.521   1.238  0.0920 -0.7819 -1.8890
 7810TIP3    H244846   5.405   5.583   1.273 -2.0570  1.7709  2.2353
 7811TIP3   OH244847   4.550   3.739   5.858  0.9199 -0.5664  0.1397
 7811TIP3    H144848   4.469   3.701   5.892  1.1502  0.3664  1.7952
 7811TIP3    H244849   4.608   3.663   5.847  1.1743 -0.8368  2.8507
 7812TIP3   OH244850   3.033   1.018   4.621 -1.0800 -0.1415  0.1932
 7812TIP3    H144851   2.979   1.031   4.542 -1.2750 -0.0165  0.3474
 7812TIP3    H244852   3.063   0.927   4.615  1.5018  0.7582 -1.6521
 7813TIP3   OH244853   4.378   5.602  11.981 -0.7628  0.1714 -0.5626
 7813TIP3    H144854   4.375   5.511  11.952  2.5250  0.3639 -1.6523
 7813TIP3    H244855   4.354   5.653  11.904 -1.2934  0.2998 -0.3159
 7814TIP3   OH244856   0.825   1.775  15.489 -0.1300 -0.1142 -0.4033
 7814TIP3    H144857   0.863   1.852  15.446  1.3645 -0.9358 -0.6067
 7814TIP3    H244858   0.844   1.703  15.428  0.3744 -0.9854  0.7677
 7815TIP3   OH244859   4.826   5.836   2.270 -0.6055  0.0853  0.5653
 7815TIP3    H144860   4.754   5.892   2.299 -0.6072 -0.2543  1.2281
 7815TIP3    H244861   4.863   5.881   2.195 -1.1291  0.5638  0.5943
 7816TIP3   OH244862   0.629   0.778  14.323 -0.4040  0.5326  0.1482
 7816TIP3    H144863   0.573   0.736  14.258  1.2480 -2.6760  0.7421
 7816TIP3    H244864   0.586   0.763  14.406 -0.1363  0.5744  0.2961
 7817TIP3   OH244865   2.580   2.409   6.169 -0.3191  0.3398  0.2902
 7817TIP3    H144866   2.525   2.406   6.091  0.4143  0.1447 -0.2209
 7817TIP3    H244867   2.519   2.400   6.242 -0.9811  0.2936 -0.2691
 7818TIP3   OH244868   6.179   6.346   0.452 -0.5066 -0.0933 -0.1528
 7818TIP3    H144869   6.183   6.437   0.481 -1.4293 -0.3864  0.9259
 7818TIP3    H244870   6.133   6.350   0.368 -0.5557  0.4248 -0.1034
 7819TIP3   OH244871   6.146   6.561  16.600 -0.0352  0.4618 -0.3587
 7819TIP3    H144872   6.084   6.512  16.545 -0.4578  0.3987  0.1639
 7819TIP3    H244873   6.228   6.557  16.552 -0.3646  0.2906 -0.9235
 7820TIP3   OH244874   6.062   5.412  14.467  0.5622 -0.2936  0.0915
 7820TIP3    H144875   6.007   5.486  14.440 -0.3728 -0.6849  0.9057
 7820TIP3    H244876   6.132   5.410  14.402  0.3782  1.0636 -0.1685
 7821TIP3   OH244877   2.468   3.416  14.077 -0.4777  0.0570  0.2509
 7821TIP3    H144878   2.546   3.363  14.095 -0.8741 -1.1534 -1.5279
 7821TIP3    H244879   2.466   3.479  14.149  2.6377  0.6775 -0.1140
 7822TIP3   OH244880   1.396   1.620   0.373 -0.2168  0.5072 -0.0050
 7822TIP3    H144881   1.351   1.663   0.300 -1.6842  0.1093  0.6596
 7822TIP3    H244882   1.489   1.627   0.350 -0.6172  0.9788 -1.5884
 7823TIP3   OH244883   6.251   3.942  12.351 -0.5217  0.1889 -0.2115
 7823TIP3    H144884   6.171   3.965  12.397  0.3842  1.4546  0.7736
 7823TIP3    H244885   6.228   3.945  12.258 -1.7778 -0.1672  0.0844
 7824TIP3   OH244886   0.526   3.677   5.070 -0.3610 -0.5056  0.3923
 7824TIP3    H144887   0.507   3.624   5.147  0.8138 -2.0979 -0.3903
 7824TIP3    H244888   0.613   3.714   5.087 -1.4026  1.6619  1.1794
 7825TIP3   OH244889   4.280   5.694  13.973 -0.2070 -0.1345  0.2649
 7825TIP3    H144890   4.294   5.778  13.928 -1.0135 -0.2784 -0.2636
 7825TIP3    H244891   4.198   5.661  13.937 -0.7016 -0.4080  1.6276
 7826TIP3   OH244892   4.018   3.924  15.645  0.2122  0.2541 -0.3609
 7826TIP3    H144893   4.064   3.904  15.564 -0.8650 -0.0365 -0.9095
 7826TIP3    H244894   3.957   3.851  15.656  0.5203  0.1677  0.8382
 7827TIP3   OH244895   2.422   3.927  13.009  0.1603  0.5396  0.1556
 7827TIP3    H144896   2.392   3.931  12.918 -0.5740  2.2560  0.4641
 7827TIP3    H244897   2.444   3.835  13.022  2.0033  0.5859 -2.3061
 7828TIP3   OH244898   4.226   3.190  11.459  0.2776 -0.1188 -0.2202
 7828TIP3    H144899   4.173   3.195  11.379 -0.6288 -0.3259  0.3613
 7828TIP3    H244900   4.167   3.153  11.524  1.1730 -0.4260  0.4182
 7829TIP3   OH244901   2.978   6.276   5.490 -0.3586 -0.1758  0.4577
 7829TIP3    H144902   2.885   6.299   5.491 -0.8475 -1.9373 -1.1318
 7829TIP3    H244903   2.980   6.187   5.454  1.6347 -1.7151  4.0805
 7830TIP3   OH244904   0.534   0.801  13.002  0.3613  0.5123 -0.6888
 7830TIP3    H144905   0.508   0.750  13.079  1.8660  0.6583 -0.0724
 7830TIP3    H244906   0.574   0.737  12.943 -4.2634 -0.3616 -3.1062
 7831TIP3   OH244907   4.181   5.622   2.364  0.5117 -0.2495  0.5919
 7831TIP3    H144908   4.253   5.629   2.427  0.4124  1.5729  0.5331
 7831TIP3    H244909   4.137   5.707   2.368 -2.0097 -1.5284  1.0496
 7832TIP3   OH244910   5.502   2.300  12.238 -0.1589 -0.5961 -0.3311
 7832TIP3    H144911   5.478   2.393  12.246  2.4987  0.2215 -1.3271
 7832TIP3    H244912   5.475   2.275  12.150  0.4559 -0.3572 -0.5872
 7833TIP3   OH244913   1.388   1.043   4.307  0.2967 -0.3508 -0.0380
 7833TIP3    H144914   1.339   1.091   4.240 -0.1868 -1.0119 -0.1627
 7833TIP3    H244915   1.470   1.019   4.265 -0.0400 -0.8352 -0.4223
 7834TIP3   OH244916   1.004   2.816  16.096  0.2195 -0.6426  0.1332
 7834TIP3    H144917   0.958   2.803  16.012 -0.7329  0.3477  0.4969
 7834TIP3    H244918   1.057   2.737  16.106 -0.1550 -1.0644 -1.0965
 7835TIP3   OH244919   6.512   5.030  12.050  0.1353 -0.4110  0.0439
 7835TIP3    H144920   6.438   4.971  12.040  0.0023 -0.1889 -0.2664
 7835TIP3    H244921   6.499   5.098  11.983  0.5020 -0.2553  0.1274
 7836TIP3   OH244922   3.106   6.147   3.362 -0.0636  0.0959 -0.2376
 7836TIP3    H144923   3.083   6.169   3.452  0.4850 -0.7291  0.1018
 7836TIP3    H244924   3.159   6.068   3.369  2.3610  1.6029 -1.0412
 7837TIP3   OH244925   4.996   2.895  12.727 -0.2004  0.7849  0.7254
 7837TIP3    H144926   4.978   2.802  12.711  1.6807  0.0976  2.3862
 7837TIP3    H244927   5.088   2.906  12.702 -0.2065  2.0411  1.2410
 7838TIP3   OH244928   1.388   6.351  13.291  0.1128  0.8004  0.4411
 7838TIP3    H144929   1.407   6.260  13.267  0.3669  1.3225 -1.4846
 7838TIP3    H244930   1.308   6.346  13.343 -0.4749 -0.4577 -0.5341
 7839TIP3   OH244931   3.833   2.304   2.394 -0.4666  0.0739 -0.4197
 7839TIP3    H144932   3.781   2.361   2.451 -0.5603  0.1784 -0.6108
 7839TIP3    H244933   3.920   2.344   2.394 -0.1777 -0.5346  0.5229
 7840TIP3   OH244934   2.333   2.657  15.592 -0.4185  0.8011  0.1376
 7840TIP3    H144935   2.357   2.619  15.676  1.4484 -0.4041 -0.8976
 7840TIP3    H244936   2.414   2.698  15.560 -1.1410  1.3795 -1.0034
 7841TIP3   OH244937   3.532   4.410  15.564 -0.3358  0.7114 -0.2819
 7841TIP3    H144938   3.626   4.427  15.558 -0.5236  1.8500 -0.1140
 7841TIP3    H244939   3.512   4.423  15.657 -0.4775 -0.5434 -0.1242
 7842TIP3   OH244940   6.536   1.114  14.201  0.2352  0.5170  0.0724
 7842TIP3    H144941   6.585   1.190  14.170 -0.4724  1.1758  0.5128
 7842TIP3    H244942   6.479   1.090  14.128 -1.1882  1.8561  0.6941
 7843TIP3   OH244943   6.173   2.358   2.259 -0.2753  0.4589  0.2661
 7843TIP3    H144944   6.203   2.388   2.345 -1.2168 -0.0196  0.7718
 7843TIP3    H244945   6.192   2.431   2.200 -1.0936  1.4239  1.1813
 7844TIP3   OH244946   4.735   5.938   4.327 -0.4796 -0.1665 -0.0547
 7844TIP3    H144947   4.799   5.876   4.361 -0.7932  0.1607  1.1474
 7844TIP3    H244948   4.761   5.951   4.236  0.6093 -0.7413  0.1655
 7845TIP3   OH244949   2.561   4.045   1.732 -0.7200  0.4057  0.2410
 7845TIP3    H144950   2.524   4.122   1.775 -1.1712 -0.4780  1.4837
 7845TIP3    H244951   2.652   4.067   1.715 -0.6787  0.9559  1.1962
 7846TIP3   OH244952   3.383   0.995  11.627  0.0130 -0.8139 -0.6297
 7846TIP3    H144953   3.298   0.955  11.646 -0.7886  0.2321 -1.9097
 7846TIP3    H244954   3.363   1.086  11.606  1.6476 -0.0979  0.7602
 7847TIP3   OH244955   3.797   1.290   4.720  0.3346 -0.0396 -0.2659
 7847TIP3    H144956   3.764   1.380   4.719 -0.1342 -0.1656  1.3381
 7847TIP3    H244957   3.875   1.292   4.665 -0.3779  1.0638 -1.2512
 7848TIP3   OH244958   2.616   2.843   0.382 -0.0357 -0.1088 -0.3606
 7848TIP3    H144959   2.661   2.776   0.331 -1.0280 -0.2851 -1.0114
 7848TIP3    H244960   2.545   2.797   0.427 -1.4212  0.6874 -1.6914
 7849TIP3   OH244961   5.215   1.727   0.032 -0.7181  0.0094  0.2732
 7849TIP3    H144962   5.233   1.810   0.077 -0.8769 -0.3682  1.0312
 7849TIP3    H244963   5.277   1.665   0.071 -0.0524 -0.0515 -0.8557
 7850TIP3   OH244964   4.935   1.666  10.649  0.3510  0.1542  0.0830
 7850TIP3    H144965   4.936   1.757  10.679 -1.7791  0.3691 -0.4624
 7850TIP3    H244966   4.933   1.614  10.730 -0.4548  0.6413  0.3837
 7851TIP3   OH244967   3.025   5.596  16.564  0.3966 -0.0669  0.1637
 7851TIP3    H144968   3.018   5.514  16.613 -0.4980 -0.1956 -0.1572
 7851TIP3    H244969   3.032   5.569  16.473 -1.7822  0.2245 -0.1246
 7852TIP3   OH244970   4.449   4.722  15.959  0.4572 -0.4747  0.2995
 7852TIP3    H144971   4.458   4.647  15.899  0.1305 -0.1030 -0.2123
 7852TIP3    H244972   4.403   4.686  16.035 -3.1497  0.0820 -1.5540
 7853TIP3   OH244973   2.657   6.455   4.581  0.1680  0.5146 -0.1295
 7853TIP3    H144974   2.697   6.519   4.523  1.5278  0.2586  0.5091
 7853TIP3    H244975   2.679   6.486   4.669  0.8999 -0.8630  0.1805
 7854TIP3   OH244976   0.716   1.701   3.106  0.1329 -1.0218 -0.5129
 7854TIP3    H144977   0.742   1.759   3.178 -0.4478 -1.5828  0.1540
 7854TIP3    H244978   0.776   1.724   3.034  0.0438  0.2513 -0.1961
 7855TIP3   OH244979   5.288   2.433   1.447  0.2564 -0.4420 -0.2206
 7855TIP3    H144980   5.371   2.421   1.493  0.2293  1.3180  0.3111
 7855TIP3    H244981   5.224   2.450   1.516 -0.1197  0.4230 -0.7675
 7856TIP3   OH244982   2.173   3.329   5.740 -0.1812 -0.0461 -0.0621
 7856TIP3    H144983   2.177   3.384   5.818  0.3478 -2.8727  2.0236
 7856TIP3    H244984   2.259   3.339   5.699 -0.1621  0.8352  0.1968
 7857TIP3   OH244985   1.808   0.381  13.701  0.6867  0.3967 -0.0237
 7857TIP3    H144986   1.774   0.401  13.788  1.4031  1.4911  0.0163
 7857TIP3    H244987   1.884   0.325  13.716  1.5799  1.6303  0.1380
 7858TIP3   OH244988   1.955   3.802   4.355  0.2654  0.2922  0.3196
 7858TIP3    H144989   2.008   3.723   4.342  1.2054  0.9017  0.4098
 7858TIP3    H244990   1.868   3.769   4.379  1.1090 -0.7089  2.0882
 7859TIP3   OH244991   6.733   2.062   2.648 -0.4232  0.1010 -0.0422
 7859TIP3    H144992   6.689   2.053   2.733  1.7110  0.3003  1.1395
 7859TIP3    H244993   6.698   2.143   2.612 -0.3335  0.7614  1.3098
 7860TIP3   OH244994   3.606   6.440  14.448 -0.1736 -0.8278  0.4349
 7860TIP3    H144995   3.695   6.441  14.413 -0.2762  1.6540  0.1621
 7860TIP3    H244996   3.558   6.500  14.393 -1.6600 -0.9626  1.5508
 7861TIP3   OH244997   5.761   0.226   1.720  0.2242 -0.0562 -0.1136
 7861TIP3    H144998   5.771   0.135   1.748 -1.5120 -0.5250 -0.9573
 7861TIP3    H244999   5.836   0.272   1.759 -0.5447 -1.2382  2.8422
 7862TIP3   OH245000   6.200   3.031   3.271  0.7990  0.0850  0.0466
 7862TIP3    H145001   6.215   3.106   3.328  0.1511 -0.3953  0.8595
 7862TIP3    H245002   6.112   3.045   3.236  1.4141  0.6750 -1.3046
 7863TIP3   OH245003   2.501   0.039  13.100 -0.1147 -0.1817 -0.5365
 7863TIP3    H145004   2.549  -0.023  13.156 -1.6344 -2.5088 -1.7199
 7863TIP3    H245005   2.467  -0.015  13.028 -1.0591  2.1418 -1.9008
 7864TIP3   OH245006   3.604   5.279  12.388  0.1570 -0.1604  0.0300
 7864TIP3    H145007   3.611   5.187  12.361  0.5987 -0.4138  0.9963
 7864TIP3    H245008   3.660   5.326  12.327 -0.5475 -0.4434 -0.8627
 7865TIP3   OH245009   3.042   3.172   1.780  0.1171  0.6494  0.3001
 7865TIP3    H145010   3.051   3.125   1.696  0.3110 -2.0874  1.7793
 7865TIP3    H245011   2.948   3.186   1.790 -0.2840 -2.2842  1.2539
 7866TIP3   OH245012   6.725   0.421  12.997 -0.4476  0.4113 -0.2774
 7866TIP3    H145013   6.653   0.365  13.023  1.0230 -1.9274 -1.0957
 7866TIP3    H245014   6.804   0.376  13.029  0.7319  2.2114 -0.5703
 7867TIP3   OH245015   0.034   1.198   3.748  0.0448 -0.1128 -0.0675
 7867TIP3    H145016   0.121   1.225   3.778  0.1744 -1.1809  0.5598
 7867TIP3    H245017   0.026   1.237   3.661  0.8078  0.6978  0.2101
 7868TIP3   OH245018   1.816   2.930   4.588 -0.2262 -0.2688 -0.5444
 7868TIP3    H145019   1.799   2.989   4.514 -0.5029 -1.1164 -1.1647
 7868TIP3    H245020   1.822   2.843   4.548 -2.6632 -1.0537  0.6864
 7869TIP3   OH245021   4.384   6.480   4.709  0.3304  0.6548 -0.4108
 7869TIP3    H145022   4.321   6.451   4.775  2.2559  1.2882  1.7834
 7869TIP3    H245023   4.345   6.559   4.672 -0.5534  0.5722  0.3311
 7870TIP3   OH245024   5.063   4.024   4.890  0.4783  0.4350 -0.5814
 7870TIP3    H145025   5.103   4.081   4.956  2.0603 -0.1183 -1.0575
 7870TIP3    H245026   4.975   4.060   4.879  0.3772  0.8909  1.4103
 7871TIP3   OH245027   0.833   5.148  15.985  0.4348  0.2393 -0.5424
 7871TIP3    H145028   0.813   5.069  15.934  0.6307  0.0786 -0.3769
 7871TIP3    H245029   0.761   5.208  15.967 -0.3013 -0.4082  0.2101
 7872TIP3   OH245030   5.731   3.357  13.605 -0.0007  0.2125 -0.7717
 7872TIP3    H145031   5.812   3.338  13.557 -0.6277 -0.4977 -1.5638
 7872TIP3    H245032   5.685   3.421  13.550  0.3304  1.1488  0.0168
 7873TIP3   OH245033   4.629   4.320  15.844 -0.5599  0.1433 -0.4604
 7873TIP3    H145034   4.671   4.234  15.856 -0.3452  0.0949 -1.4478
 7873TIP3    H245035   4.677   4.379  15.902 -0.5557 -0.3582  0.0514
 7874TIP3   OH245036   0.339   6.282   5.094  0.0869 -0.2272 -0.0923
 7874TIP3    H145037   0.262   6.260   5.042 -0.4644 -0.4773  0.8333
 7874TIP3    H245038   0.376   6.197   5.119  1.1150 -0.1193 -1.1855
 7875TIP3   OH245039   1.514   2.534   4.099 -0.5441 -0.6479  0.2923
 7875TIP3    H145040   1.519   2.593   4.023 -1.7811  0.4058  1.0165
 7875TIP3    H245041   1.526   2.447   4.062 -0.3528 -0.0811 -1.0118
 7876TIP3   OH245042   3.219   5.280  13.433 -0.3654  0.2132  0.0206
 7876TIP3    H145043   3.313   5.294  13.428 -0.6492  1.8528 -1.1158
 7876TIP3    H245044   3.192   5.324  13.514 -0.3568  1.0795 -0.4353
 7877TIP3   OH245045   6.675   2.452   3.252 -0.5606  0.3347 -0.7184
 7877TIP3    H145046   6.646   2.542   3.236  2.7443  1.6380 -0.0101
 7877TIP3    H245047   6.677   2.445   3.348 -0.8762 -0.5353 -0.7718
 7878TIP3   OH245048   5.724   3.293   2.654  0.5502  0.1267 -0.0804
 7878TIP3    H145049   5.633   3.313   2.635  0.4631 -0.8725 -0.7282
 7878TIP3    H245050   5.768   3.300   2.569  0.9483 -0.0918  0.1093
 7879TIP3   OH245051   6.292   3.093   2.168  0.0338  1.0932 -0.0099
 7879TIP3    H145052   6.305   3.046   2.250  0.4759 -0.0410 -0.7239
 7879TIP3    H245053   6.381   3.108   2.135 -0.1720  0.9526 -0.6236
 7880TIP3   OH245054   0.541   5.091   2.370 -0.3564 -0.8660 -0.2734
 7880TIP3    H145055   0.458   5.112   2.327  0.5019  1.2297 -0.9967
 7880TIP3    H245056   0.598   5.062   2.299 -0.3551 -2.0200  0.1826
 7881TIP3   OH245057   1.621   2.723  14.726  0.0432  0.5867  0.1384
 7881TIP3    H145058   1.633   2.640  14.680 -0.5138  0.2554  0.5717
 7881TIP3    H245059   1.604   2.697  14.817 -2.9039  1.0146 -0.2341
 7882TIP3   OH245060   3.047   5.534   5.444 -0.2112 -0.2389 -0.0734
 7882TIP3    H145061   3.134   5.565   5.416 -0.0422 -1.2006 -0.6463
 7882TIP3    H245062   3.058   5.514   5.537  0.2777 -0.6909 -0.2277
 7883TIP3   OH245063   2.066   5.595   5.013  0.8494 -0.1442  0.2611
 7883TIP3    H145064   2.161   5.596   5.022  0.7701  0.9905  1.0012
 7883TIP3    H245065   2.034   5.650   5.084 -0.3892 -0.8482  0.2673
 7884TIP3   OH245066   4.294   3.379  16.254 -0.1513 -0.0416 -0.0879
 7884TIP3    H145067   4.386   3.356  16.267 -0.1472 -0.3674 -0.6534
 7884TIP3    H245068   4.246   3.315  16.307 -0.1035 -0.8245 -0.9670
 7885TIP3   OH245069   0.125   3.320  14.787 -0.2923 -0.1249  0.0385
 7885TIP3    H145070   0.189   3.376  14.744  0.7172 -1.2090  0.1024
 7885TIP3    H245071   0.059   3.381  14.822  0.7802  1.0014  0.1216
 7886TIP3   OH245072   5.877   2.018   2.621 -0.0276 -0.0312 -0.3989
 7886TIP3    H145073   5.795   1.973   2.600  0.2448 -0.6637 -0.1078
 7886TIP3    H245074   5.938   1.988   2.553 -0.2288  1.0008 -1.0486
 7887TIP3   OH245075   6.214   3.925   2.734 -0.1007  0.9818 -0.0972
 7887TIP3    H145076   6.308   3.936   2.715 -0.1816  0.5941 -0.7319
 7887TIP3    H245077   6.170   3.979   2.669 -0.2713  2.5474  1.2979
 7888TIP3   OH245078   5.706   4.228  16.162  0.2239 -0.1782  0.2310
 7888TIP3    H145079   5.706   4.296  16.095 -1.4642  0.4535  0.8508
 7888TIP3    H245080   5.754   4.155  16.122  0.8190  0.8590 -0.9631
 7889TIP3   OH245081   0.396   1.151  12.597  0.1301 -0.0897 -0.3065
 7889TIP3    H145082   0.419   1.244  12.596  0.4007 -0.1181  1.5643
 7889TIP3    H245083   0.479   1.105  12.604  0.1825 -0.5948 -3.7159
 7890TIP3   OH245084   6.079   3.442   0.813 -0.5614 -0.0487  0.4632
 7890TIP3    H145085   6.128   3.491   0.879  0.6479 -0.0892 -0.3827
 7890TIP3    H245086   6.141   3.375   0.781 -0.8622  0.4553 -1.2428
 7891TIP3   OH245087   3.634   3.499  14.010  0.2918 -0.2609  0.3801
 7891TIP3    H145088   3.544   3.505  14.042  0.0528 -2.6165  0.2358
 7891TIP3    H245089   3.626   3.508  13.915  0.2102 -0.3514  0.3768
 7892TIP3   OH245090   2.255   1.705  12.859  0.2040  0.6705 -0.6942
 7892TIP3    H145091   2.184   1.748  12.811 -1.6111 -0.2493  1.0440
 7892TIP3    H245092   2.241   1.612  12.843  0.0414  0.3938  0.9376
 7893TIP3   OH245093   0.903   4.924  14.721  0.2678 -0.3952  0.2829
 7893TIP3    H145094   0.873   4.846  14.674 -1.0267  2.1556 -3.4269
 7893TIP3    H245095   0.825   4.956  14.766  0.1425  0.1226 -0.2900
 7894TIP3   OH245096   2.207   2.386   5.349 -0.3499 -0.8772 -0.3154
 7894TIP3    H145097   2.166   2.407   5.265  1.0263  1.5795 -0.4320
 7894TIP3    H245098   2.297   2.364   5.326  0.5547  1.6191  0.6350
 7895TIP3   OH245099   4.118   4.107  14.400 -0.1148 -0.4087  0.0675
 7895TIP3    H145100   4.165   4.046  14.457 -0.2665 -0.3257  0.2821
 7895TIP3    H245101   4.179   4.124  14.328  0.2596 -0.1501  0.4453
 7896TIP3   OH245102   2.589   2.058   2.395  0.1991 -0.0742 -0.5385
 7896TIP3    H145103   2.579   2.131   2.333  0.1892 -0.1318 -0.6048
 7896TIP3    H245104   2.519   2.071   2.458  0.1445 -0.0740 -0.5989
 7897TIP3   OH245105   6.433   0.223  17.239  0.0509  0.5392 -0.0529
 7897TIP3    H145106   6.427   0.195  17.330  0.9425 -1.0148 -0.4655
 7897TIP3    H245107   6.461   0.315  17.244  0.5179  0.3347  1.2336
 7898TIP3   OH245108   3.028   1.478   2.073 -0.0465  0.4194  0.7430
 7898TIP3    H145109   3.056   1.494   2.163 -0.5536 -1.2568  1.2116
 7898TIP3    H245110   3.041   1.384   2.060 -0.0673  0.6214 -0.9075
 7899TIP3   OH245111   5.691   0.892   3.141  0.0141 -0.1739 -0.3695
 7899TIP3    H145112   5.760   0.924   3.083  0.3934  1.2519  0.8361
 7899TIP3    H245113   5.612   0.889   3.086  1.1317 -2.4467 -1.9408
 7900TIP3   OH245114   3.575   0.698  12.847  0.3277 -0.2096  0.0231
 7900TIP3    H145115   3.633   0.735  12.781  0.5510  0.7613  0.7471
 7900TIP3    H245116   3.613   0.613  12.869 -0.2313 -0.9313 -1.7160
 7901TIP3   OH245117   2.600   2.551   6.456 -0.3737 -0.5922 -0.4024
 7901TIP3    H145118   2.535   2.493   6.495 -1.4236 -0.6472 -2.1903
 7901TIP3    H245119   2.550   2.611   6.402  1.1338 -1.3847 -2.7570
 7902TIP3   OH245120   4.159   2.864   2.066 -0.5328  0.2318 -0.6553
 7902TIP3    H145121   4.210   2.793   2.028  1.2843  1.1171  0.0475
 7902TIP3    H245122   4.116   2.906   1.991  0.1908 -0.2060 -1.3248
 7903TIP3   OH245123   2.819   0.728  11.457  0.2485  0.9326  0.3147
 7903TIP3    H145124   2.883   0.752  11.389 -0.8517 -0.8012 -1.3935
 7903TIP3    H245125   2.754   0.798  11.454 -0.0884  0.5849 -0.8329
 7904TIP3   OH245126   3.230   5.462   4.030  0.4988  0.5816 -0.2393
 7904TIP3    H145127   3.204   5.414   4.109  1.1188  0.4024 -0.1364
 7904TIP3    H245128   3.151   5.467   3.977 -0.0487  1.1215  0.6150
 7905TIP3   OH245129   2.572   5.220   1.796 -0.4726  0.2165 -0.2400
 7905TIP3    H145130   2.539   5.130   1.805 -1.5570  0.4706 -1.4178
 7905TIP3    H245131   2.552   5.243   1.705  0.6936  1.3019 -0.2290
 7906TIP3   OH245132   3.210   6.236   5.742 -0.0916 -0.1839  0.1353
 7906TIP3    H145133   3.260   6.173   5.793 -0.7473 -1.0344 -0.2798
 7906TIP3    H245134   3.129   6.192   5.720 -0.4870  0.7380 -0.3058
 7907TIP3   OH245135   6.706   5.751  13.769  0.1642 -0.0704  0.2536
 7907TIP3    H145136   6.753   5.669  13.755 -2.5633 -1.4390 -1.2921
 7907TIP3    H245137   6.616   5.732  13.740 -0.8635  3.0150  1.2901
 7908TIP3   OH245138   1.792   1.308   5.665  0.5368  0.2776  0.5995
 7908TIP3    H145139   1.782   1.293   5.571  3.9366  0.4058  0.1523
 7908TIP3    H245140   1.773   1.401   5.676 -5.6036 -0.8195  1.0424
 7909TIP3   OH245141   5.734   2.301  11.379 -0.1235  0.3104  0.1237
 7909TIP3    H145142   5.741   2.295  11.474 -2.4777 -1.0773  0.2593
 7909TIP3    H245143   5.712   2.212  11.350  0.9038  0.6300 -1.7616
 7910TIP3   OH245144   4.406   5.244   1.071  0.0123  0.4108  0.4770
 7910TIP3    H145145   4.495   5.233   1.104 -0.3233 -0.2081  1.1940
 7910TIP3    H245146   4.375   5.155   1.055 -0.4968  0.6221  0.2734
 7911TIP3   OH245147   0.678   6.494  16.452  0.1059  0.0211 -0.3074
 7911TIP3    H145148   0.695   6.584  16.479 -0.6926  0.0108  0.2270
 7911TIP3    H245149   0.734   6.441  16.509  0.2225  0.1434 -0.3045
 7912TIP3   OH245150   4.673   0.020   4.210 -0.1326  0.0262 -0.0732
 7912TIP3    H145151   4.628  -0.047   4.261  0.3660 -0.4274 -0.2332
 7912TIP3    H245152   4.765  -0.007   4.210  0.1642  1.0213  0.3605
 7913TIP3   OH245153   6.337   6.183  12.052  0.2525 -0.0077 -0.2350
 7913TIP3    H145154   6.380   6.266  12.031 -0.5685  0.2520 -0.9236
 7913TIP3    H245155   6.409   6.122  12.069  0.9125  0.3034 -1.8250
 7914TIP3   OH245156   1.099   6.551  14.313 -0.0833 -0.0495  0.0594
 7914TIP3    H145157   1.077   6.621  14.374  1.2298 -0.1806  0.7061
 7914TIP3    H245158   1.181   6.514  14.347 -0.0728 -1.0426 -0.9997
 7915TIP3   OH245159   4.994   3.757  10.368  0.2626 -0.2157  0.5284
 7915TIP3    H145160   5.059   3.827  10.360 -0.0029 -0.0645 -0.3015
 7915TIP3    H245161   5.035   3.682  10.324 -0.5751  0.1945 -0.9957
 7916TIP3   OH245162   0.420   0.312  13.620 -0.2144  0.3095 -0.2398
 7916TIP3    H145163   0.429   0.405  13.642  0.8195 -0.6004  3.3633
 7916TIP3    H245164   0.498   0.271  13.655 -1.5214 -2.2259 -0.2263
 7917TIP3   OH245165   5.569   3.278   1.738 -0.0997 -0.4489  0.0992
 7917TIP3    H145166   5.546   3.262   1.646 -0.9369  1.1897 -0.0063
 7917TIP3    H245167   5.661   3.252   1.745  0.6427  1.4907 -1.7706
 7918TIP3   OH245168   0.806   5.612   5.204 -0.0327  0.7978  0.3372
 7918TIP3    H145169   0.719   5.578   5.186 -0.0150  0.4502  0.8942
 7918TIP3    H245170   0.824   5.673   5.132  0.1727 -0.7813 -0.9747
 7919TIP3   OH245171   4.326   4.654   1.668 -0.5757 -0.4441 -0.0097
 7919TIP3    H145172   4.295   4.604   1.593 -1.6064  0.6802 -0.3476
 7919TIP3    H245173   4.303   4.745   1.648  0.0443 -0.0076  1.2050
 7920TIP3   OH245174   6.526   5.725   4.042  0.2614  0.0229 -0.3004
 7920TIP3    H145175   6.462   5.656   4.059  0.5769 -0.1634  0.1288
 7920TIP3    H245176   6.611   5.682   4.048  0.4240  0.2214 -1.1030
 7921TIP3   OH245177   3.794   0.241  17.171  0.3559  0.2615  0.2186
 7921TIP3    H145178   3.702   0.217  17.182 -0.0025  0.4735 -2.1952
 7921TIP3    H245179   3.840   0.158  17.169  0.2003  0.1440  1.1830
 7922TIP3   OH245180   4.484   5.260  16.329 -0.1030 -0.2533  0.2366
 7922TIP3    H145181   4.444   5.211  16.400  0.6668 -2.1388 -0.5875
 7922TIP3    H245182   4.428   5.337  16.317 -2.7787 -2.2096 -0.1062
 7923TIP3   OH245183   6.279   4.240   2.912 -0.2637 -0.6332 -0.4838
 7923TIP3    H145184   6.275   4.278   3.000 -1.3608 -1.1835 -0.2839
 7923TIP3    H245185   6.312   4.151   2.927  0.8568 -0.2773 -0.7850
 7924TIP3   OH245186   1.060   0.192  11.393  0.3572 -0.5116  0.2431
 7924TIP3    H145187   1.012   0.226  11.469  2.1528 -0.9866  1.6082
 7924TIP3    H245188   1.125   0.260  11.374  1.0282 -1.1590  0.2123
 7925TIP3   OH245189   5.520   6.068  14.822  0.6760  0.4950 -0.0092
 7925TIP3    H145190   5.488   6.031  14.905  0.8132  0.4378  0.0176
 7925TIP3    H245191   5.440   6.097  14.777  0.4769 -0.6671 -0.4421
 7926TIP3   OH245192   1.594   2.442  13.270 -0.2483  0.5022  0.2049
 7926TIP3    H145193   1.561   2.508  13.208  0.9276  2.3461  1.4984
 7926TIP3    H245194   1.597   2.361  13.219 -0.6204  1.6843 -1.7523
 7927TIP3   OH245195   3.279   5.467  13.181 -0.0082  0.5642 -0.1559
 7927TIP3    H145196   3.319   5.520  13.250  0.6084  0.4576 -0.4304
 7927TIP3    H245197   3.315   5.380  13.193 -0.1667  0.4644 -0.3975
 7928TIP3   OH245198   4.709   5.989   3.756  0.6695 -0.0930 -0.2311
 7928TIP3    H145199   4.803   6.006   3.753  0.0231  3.7016 -0.7962
 7928TIP3    H245200   4.690   5.980   3.850  1.1592  1.9719  0.0904
 7929TIP3   OH245201   4.371   2.979   0.308 -0.2453  0.4524 -0.1806
 7929TIP3    H145202   4.379   2.955   0.216  1.8291 -1.9618  0.5745
 7929TIP3    H245203   4.371   3.075   0.308  2.2755  0.5044 -2.4881
 7930TIP3   OH245204   5.222   5.784  12.564  0.1003  0.2799  0.2484
 7930TIP3    H145205   5.161   5.784  12.637  0.8942 -1.8004  0.9309
 7930TIP3    H245206   5.305   5.812  12.602 -0.0198  1.5251 -0.3612
 7931TIP3   OH245207   4.617   3.506   5.715 -0.0514 -0.2650 -0.0015
 7931TIP3    H145208   4.556   3.442   5.753 -0.0128  1.0643  2.4135
 7931TIP3    H245209   4.567   3.546   5.644 -0.6531 -1.8141 -0.4873
 7932TIP3   OH245210   5.411   3.722  11.688 -0.1885  0.7722  0.3248
 7932TIP3    H145211   5.387   3.814  11.673  1.4096  0.8484 -1.9009
 7932TIP3    H245212   5.384   3.676  11.609  0.2784 -0.4418  0.8551
 7933TIP3   OH245213   6.433   4.492   2.549 -0.4559  0.1462  0.0200
 7933TIP3    H145214   6.349   4.531   2.573 -0.2554  0.7887 -0.3239
 7933TIP3    H245215   6.412   4.400   2.533 -1.1950  0.4041 -0.5488
 7934TIP3   OH245216   3.762   6.335  12.331 -0.2120 -0.0128  0.2566
 7934TIP3    H145217   3.724   6.270  12.273  1.2961 -0.6906 -0.0049
 7934TIP3    H245218   3.737   6.419  12.294 -4.3833 -0.3645  2.0354
 7935TIP3   OH245219   1.134   2.790   5.550  0.4772 -0.2862  0.0797
 7935TIP3    H145220   1.146   2.826   5.463 -1.0844 -2.5593 -1.1283
 7935TIP3    H245221   1.200   2.834   5.604  1.8385  0.7384 -2.3514
 7936TIP3   OH245222   5.210   3.794   5.826  0.2069 -0.0590  0.2566
 7936TIP3    H145223   5.175   3.748   5.903 -0.6352  0.7029  0.3399
 7936TIP3    H245224   5.290   3.836   5.857 -0.4776  0.7804  0.8814
 7937TIP3   OH245225   0.202   2.291  11.203  0.7687 -0.5092  0.0861
 7937TIP3    H145226   0.266   2.295  11.132  0.6381  0.3745  0.0156
 7937TIP3    H245227   0.123   2.257  11.162  1.1413 -1.4546  0.1378
 7938TIP3   OH245228   1.376   3.999   5.269 -0.4245  0.1259  0.0283
 7938TIP3    H145229   1.472   3.988   5.268 -0.2206  1.8081 -0.9661
 7938TIP3    H245230   1.346   3.951   5.192 -0.3998 -0.4388  0.3649
 7939TIP3   OH245231   2.810   4.512   4.139 -0.1053 -0.4304  0.4595
 7939TIP3    H145232   2.750   4.572   4.183  0.1474 -0.6041  1.0512
 7939TIP3    H245233   2.757   4.468   4.073 -0.7158 -0.8628  1.2350
 7940TIP3   OH245234   2.166   3.941  10.890  0.0459 -0.3621 -0.0617
 7940TIP3    H145235   2.245   3.958  10.839 -0.6576 -0.4556 -1.1965
 7940TIP3    H245236   2.173   3.999  10.966  1.7314 -1.1809  0.4153
 7941TIP3   OH245237   4.597   3.171   3.337 -0.2347 -0.3443 -0.2304
 7941TIP3    H145238   4.514   3.133   3.311 -1.2140  1.6244 -0.0521
 7941TIP3    H245239   4.574   3.244   3.394  1.5776  1.0513 -1.2366
 7942TIP3   OH245240   5.160   3.297  16.327 -0.4955 -0.2196  0.0362
 7942TIP3    H145241   5.174   3.253  16.243 -2.4615 -0.2776 -0.2718
 7942TIP3    H245242   5.246   3.296  16.369  0.2145 -1.3591 -1.4120
 7943TIP3   OH245243   0.012   3.806   0.018  0.0496  0.2632 -0.7037
 7943TIP3    H145244  -0.055   3.828  -0.048  0.1943  1.6976 -0.3925
 7943TIP3    H245245  -0.029   3.830   0.101  1.4488  2.4512 -0.6109
 7944TIP3   OH245246   3.019   2.249   4.492 -0.4628  0.3137  0.0070
 7944TIP3    H145247   2.961   2.324   4.502 -1.3398 -0.5426  1.4006
 7944TIP3    H245248   3.092   2.267   4.552 -1.3920 -0.6336  1.4328
 7945TIP3   OH245249   4.838   2.114   3.909  0.7489  0.0127  0.1304
 7945TIP3    H145250   4.831   2.207   3.932  1.4458  1.0975 -3.6665
 7945TIP3    H245251   4.910   2.081   3.964  4.0065  3.0446 -2.0687
 7946TIP3   OH245252   6.163   3.737  11.530  0.0269 -0.6809  0.1324
 7946TIP3    H145253   6.173   3.726  11.435 -0.9136 -0.4224  0.0017
 7946TIP3    H245254   6.150   3.831  11.542 -0.6537 -0.8169  0.4468
 7947TIP3   OH245255   0.741   1.693  11.154  0.4443  0.3418 -0.2900
 7947TIP3    H145256   0.733   1.695  11.059  0.7963 -0.7093 -0.3380
 7947TIP3    H245257   0.833   1.673  11.171  0.2475 -0.1110  0.2681
 7948TIP3   OH245258   2.238   5.230  12.846  0.6749  0.0704  0.1232
 7948TIP3    H145259   2.170   5.184  12.896 -0.2305  0.0654 -1.1077
 7948TIP3    H245260   2.286   5.160  12.802 -0.7524  0.2804 -1.8152
 7949TIP3   OH245261   2.060   0.618   2.451  0.1796  0.0667 -0.2307
 7949TIP3    H145262   2.078   0.697   2.399  0.3084  1.7310  2.2258
 7949TIP3    H245263   1.966   0.624   2.470  0.6802  1.0762  2.1482
 7950TIP3   OH245264   3.694   3.154   0.515  0.4214  0.0385 -0.2437
 7950TIP3    H145265   3.673   3.140   0.607  0.9289 -0.2184 -0.1629
 7950TIP3    H245266   3.637   3.094   0.467  0.2109  0.1195 -0.0941
 7951TIP3   OH245267   6.159   5.072  13.524 -0.1874  0.1285 -0.2685
 7951TIP3    H145268   6.094   5.091  13.591 -1.1004 -2.6064 -0.3081
 7951TIP3    H245269   6.244   5.085  13.567 -0.7528  1.3432  0.4919
 7952TIP3   OH245270   3.360   2.378   3.769  0.5409 -0.5850  0.1124
 7952TIP3    H145271   3.376   2.461   3.724 -0.6288 -0.6173 -0.3900
 7952TIP3    H245272   3.331   2.319   3.699 -0.4572 -0.8777  0.7700
 7953TIP3   OH245273   6.059   6.502   2.002 -0.4318  0.2775 -0.4102
 7953TIP3    H145274   6.065   6.450   1.922 -0.8241 -2.2528  1.1508
 7953TIP3    H245275   6.148   6.507   2.034 -0.1460  1.9923 -1.3809
 7954TIP3   OH245276   4.982   3.838   4.045  0.3173  0.1016  0.3311
 7954TIP3    H145277   4.962   3.930   4.061 -0.0720 -0.0568  0.7549
 7954TIP3    H245278   4.915   3.809   3.984  0.2306  0.0006  0.4760
 7955TIP3   OH245279   3.992   1.820  14.962  0.5298  0.0320 -0.2074
 7955TIP3    H145280   4.027   1.756  15.023 -0.6975 -1.6617 -1.2311
 7955TIP3    H245281   4.018   1.905  14.998  4.0138 -1.0656  0.0518
 7956TIP3   OH245282   1.841   1.157  15.352  0.8328 -0.4874  0.0503
 7956TIP3    H145283   1.790   1.130  15.275  0.7916 -1.4966  0.4157
 7956TIP3    H245284   1.824   1.251  15.361 -2.5476 -1.1314  1.3009
 7957TIP3   OH245285   2.180   5.871  14.101 -0.3825  0.1308 -0.1554
 7957TIP3    H145286   2.207   5.958  14.072  1.6384 -0.4062  0.0568
 7957TIP3    H245287   2.118   5.842  14.034  0.5074  0.8906 -1.3218
 7958TIP3   OH245288   1.098   6.532   1.613  0.0997  0.1198 -0.6496
 7958TIP3    H145289   1.123   6.624   1.603  0.5891  0.0903  0.2303
 7958TIP3    H245290   1.018   6.533   1.666  0.4376  0.0188 -0.1266
 7959TIP3   OH245291   4.518   1.311   4.110 -0.2283  0.1089 -0.2113
 7959TIP3    H145292   4.596   1.282   4.062  0.3929  0.1110  0.7908
 7959TIP3    H245293   4.462   1.233   4.112 -0.6148  0.3249 -1.6151
 7960TIP3   OH245294   1.344   6.386   4.110 -0.3079 -0.0483 -0.6887
 7960TIP3    H145295   1.399   6.344   4.043  0.1607 -0.8854  0.2234
 7960TIP3    H245296   1.307   6.462   4.065  4.1534  2.4658 -0.4655
 7961TIP3   OH245297   4.128   0.399   0.692 -0.3378 -0.5657  0.1234
 7961TIP3    H145298   4.085   0.481   0.716  0.4384 -0.3634  0.8445
 7961TIP3    H245299   4.221   0.415   0.709 -0.2337 -1.7503  0.7129
 7962TIP3   OH245300   6.442   4.095   2.099  0.0811  0.1743  0.1036
 7962TIP3    H145301   6.537   4.112   2.101 -0.0552  0.9751 -0.2046
 7962TIP3    H245302   6.433   4.021   2.039  0.5502 -0.1665  0.4466
 7963TIP3   OH245303   1.184   5.469   3.226 -0.2719  0.6804  0.6017
 7963TIP3    H145304   1.257   5.440   3.280 -1.2008 -1.3519  0.7994
 7963TIP3    H245305   1.106   5.449   3.277 -1.2525 -2.5437 -1.9714
 7964TIP3   OH245306   2.115   6.613  13.798 -0.2774  0.5828 -0.0770
 7964TIP3    H145307   2.093   6.638  13.708 -0.0896  0.5560 -0.1311
 7964TIP3    H245308   2.189   6.669  13.821  1.5293 -1.3383 -0.9570
 7965TIP3   OH245309   3.469   6.164  12.456  0.3631 -0.0706 -0.1274
 7965TIP3    H145310   3.501   6.144  12.544 -0.2950  1.2636  0.4390
 7965TIP3    H245311   3.387   6.115  12.449  0.5621 -0.4102 -0.1168
 7966TIP3   OH245312   6.240   6.046   2.480 -0.6025  0.2443 -0.0714
 7966TIP3    H145313   6.192   6.116   2.524 -0.6979  1.0973 -1.4875
 7966TIP3    H245314   6.179   6.013   2.413 -0.4327 -0.9700  0.3566
 7967TIP3   OH245315   2.798   1.309  16.741  0.2727 -0.2383 -0.1819
 7967TIP3    H145316   2.772   1.243  16.805 -1.9034  1.2391  0.5090
 7967TIP3    H245317   2.878   1.348  16.777  0.6891 -1.3910  0.1683
 7968TIP3   OH245318   6.590   0.113   2.660 -0.5785 -0.7480  0.0946
 7968TIP3    H145319   6.510   0.160   2.639 -1.1882 -0.6183  2.5498
 7968TIP3    H245320   6.630   0.093   2.575 -0.3762  3.9732 -1.0604
 7969TIP3   OH245321   2.895   4.754   2.396  0.6658 -0.3871  0.2600
 7969TIP3    H145322   2.843   4.824   2.356  1.2074  0.9756  1.8914
 7969TIP3    H245323   2.974   4.749   2.342  0.6261  0.2704  0.1403
 7970TIP3   OH245324   1.748   1.633  13.250 -0.1677 -0.3183  1.0240
 7970TIP3    H145325   1.745   1.594  13.163 -0.4497  1.1137  0.3785
 7970TIP3    H245326   1.813   1.581  13.298  0.8722 -0.3696 -0.4202
 7971TIP3   OH245327   3.905   6.074  15.986 -0.4398  0.1824 -0.4475
 7971TIP3    H145328   3.989   6.093  15.944  0.4374  1.3080  1.7024
 7971TIP3    H245329   3.845   6.139  15.950  0.2242  0.9400 -0.2103
 7972TIP3   OH245330   0.717   5.655   4.493  0.9636 -0.0959 -0.1406
 7972TIP3    H145331   0.783   5.586   4.492  1.7661  0.6518  0.0233
 7972TIP3    H245332   0.635   5.611   4.469  1.6230 -0.9272 -0.9004
 7973TIP3   OH245333   2.131   2.711   3.429  0.5923 -0.1732 -0.3759
 7973TIP3    H145334   2.221   2.746   3.427  0.5464  0.2016  2.5040
 7973TIP3    H245335   2.133   2.637   3.367  2.7092  0.2213 -0.8276
 7974TIP3   OH245336   2.101   4.587   1.150  0.0983  0.1062  0.3242
 7974TIP3    H145337   2.125   4.642   1.076  0.8196  1.9106  1.8500
 7974TIP3    H245338   2.005   4.584   1.148 -0.0959  3.3939  1.5306
 7975TIP3   OH245339   1.529   6.583  13.291 -0.0495 -0.1486 -0.0031
 7975TIP3    H145340   1.622   6.563  13.295  0.3220  1.1341 -1.8517
 7975TIP3    H245341   1.486   6.500  13.315  1.5423 -0.9409  0.1666
 7976TIP3   OH245342   0.243   1.135   1.645  0.4316 -0.3396  0.7305
 7976TIP3    H145343   0.312   1.155   1.708  0.6720  1.3443 -0.0210
 7976TIP3    H245344   0.272   1.176   1.563 -2.3187  2.1138  0.8712
 7977TIP3   OH245345   3.821   5.917  17.221 -0.5302 -0.0102  0.1008
 7977TIP3    H145346   3.883   5.928  17.149 -0.9431  1.2151 -0.0742
 7977TIP3    H245347   3.740   5.889  17.178 -0.0977 -1.6835  0.3401
 7978TIP3   OH245348   0.338   5.423  15.895 -0.2957 -0.1796  0.0237
 7978TIP3    H145349   0.421   5.384  15.924 -2.1203 -1.3087  3.9120
 7978TIP3    H245350   0.337   5.406  15.800  3.9737  0.0334 -0.1928
 7979TIP3   OH245351   5.545   3.902   5.669  0.3822  0.3273 -0.5757
 7979TIP3    H145352   5.503   3.930   5.751 -1.9999  0.7563 -1.8877
 7979TIP3    H245353   5.529   3.974   5.609  1.8791 -0.1092 -1.5152
 7980TIP3   OH245354   0.620   1.016  14.212 -0.3310 -0.2125  0.1204
 7980TIP3    H145355   0.612   0.938  14.266 -1.6212  0.8282  1.5026
 7980TIP3    H245356   0.671   1.077  14.265 -1.8556  0.9249  0.3352
 7981TIP3   OH245357   4.232   4.638   1.056  0.2951  0.3916 -0.0877
 7981TIP3    H145358   4.145   4.668   1.030  0.1215  0.6869  0.8273
 7981TIP3    H245359   4.226   4.543   1.057  0.0834  0.3994 -0.3455
 7982TIP3   OH245360   1.481   1.146  14.835  0.2420 -0.4646  0.1363
 7982TIP3    H145361   1.459   1.114  14.748  0.7727  0.5033 -0.3632
 7982TIP3    H245362   1.398   1.181  14.869  0.7256  2.2089 -1.3200
 7983TIP3   OH245363   5.768   2.884  15.074  0.1837  0.4370  0.4225
 7983TIP3    H145364   5.805   2.834  15.147  0.0769 -0.6513 -0.2529
 7983TIP3    H245365   5.837   2.945  15.050  0.6855 -0.0371  0.6413
 7984TIP3   OH245366   2.156   3.201  16.575  0.0736  0.2556  0.1575
 7984TIP3    H145367   2.139   3.252  16.495 -2.2518  3.3461  2.4965
 7984TIP3    H245368   2.247   3.219  16.596  0.7659 -0.7347 -1.8573
 7985TIP3   OH245369   1.052   5.420  17.137  0.5801 -0.2010  0.7838
 7985TIP3    H145370   1.075   5.474  17.213 -2.2716  0.9149  0.9016
 7985TIP3    H245371   1.045   5.331  17.172 -1.7183  0.4565  2.0905
 7986TIP3   OH245372   2.323   4.269  11.538 -0.0998 -0.3640 -0.2875
 7986TIP3    H145373   2.267   4.334  11.580 -0.8148  0.1341 -2.0081
 7986TIP3    H245374   2.263   4.198  11.513 -0.2402  0.7654 -3.3554
 7987TIP3   OH245375   3.402   4.235  10.825  0.1373  0.3645 -0.1509
 7987TIP3    H145376   3.495   4.249  10.841  0.5750  0.9595 -2.8926
 7987TIP3    H245377   3.364   4.323  10.826 -0.1593  0.2403 -0.2435
 7988TIP3   OH245378   1.253   5.934  16.487  0.3802 -0.0692  0.2262
 7988TIP3    H145379   1.348   5.934  16.476  0.5229  0.1192  1.4746
 7988TIP3    H245380   1.220   5.910  16.400  1.6019 -1.2850  0.0761
 7989TIP3   OH245381   5.103   5.514   1.938 -0.3066 -0.1087 -0.9449
 7989TIP3    H145382   5.063   5.537   2.022  0.9771 -0.8081 -0.1163
 7989TIP3    H245383   5.143   5.595   1.907  2.2676 -0.6197  0.8654
 7990TIP3   OH245384   4.950   2.862   5.032  0.1370 -0.2174 -0.4241
 7990TIP3    H145385   5.020   2.900   5.085 -1.6156  0.5419  1.4208
 7990TIP3    H245386   4.938   2.774   5.069 -0.3111 -0.1053 -0.2993
 7991TIP3   OH245387   5.702   2.827   4.434 -0.5216 -0.0501  0.0024
 7991TIP3    H145388   5.763   2.860   4.369  0.5476 -1.4832  0.2565
 7991TIP3    H245389   5.732   2.865   4.517 -0.4700 -0.0917  0.0026
 7992TIP3   OH245390   5.682   5.203   1.999 -0.9704  0.7253 -0.1077
 7992TIP3    H145391   5.605   5.157   1.965  0.0744 -0.3879 -1.0435
 7992TIP3    H245392   5.735   5.222   1.922  0.7122 -0.4637  0.7147
 7993TIP3   OH245393   4.702   2.518  11.530  0.3797 -0.5182 -0.1397
 7993TIP3    H145394   4.793   2.517  11.558  0.0936 -3.2488  0.8813
 7993TIP3    H245395   4.692   2.601  11.484  3.1668  0.1688  0.3841
 7994TIP3   OH245396   6.464   5.545   4.879  0.0362 -0.1824  0.2977
 7994TIP3    H145397   6.545   5.544   4.827  0.6176 -1.7855  1.2005
 7994TIP3    H245398   6.444   5.453   4.894 -0.5419  0.2486  2.2734
 7995TIP3   OH245399   2.754   2.126   1.668 -0.2676 -0.1965 -0.2960
 7995TIP3    H145400   2.731   2.085   1.752 -1.1363  1.4233  0.2845
 7995TIP3    H245401   2.695   2.084   1.604 -1.7035  0.6522  0.4281
 7996TIP3   OH245402   1.798   1.441   3.200 -0.6395 -0.1742 -0.6080
 7996TIP3    H145403   1.754   1.522   3.223  1.2914  1.0792 -1.2360
 7996TIP3    H245404   1.846   1.461   3.119 -1.1392 -2.2977 -1.4751
 7997TIP3   OH245405   1.318   5.260  14.135  0.1153  0.0300  0.0644
 7997TIP3    H145406   1.241   5.238  14.188  0.0919  2.6582  1.1630
 7997TIP3    H245407   1.285   5.321  14.069  0.7197 -1.0200 -1.2319
 7998TIP3   OH245408   0.859   3.918  10.539  0.4496  0.0104 -0.3076
 7998TIP3    H145409   0.818   3.832  10.548  1.9026 -0.5002  2.0657
 7998TIP3    H245410   0.786   3.979  10.534 -0.6275 -1.0616  1.7499
 7999TIP3   OH245411   1.100   3.128   5.618  0.1558  0.6383  0.0033
 7999TIP3    H145412   1.046   3.111   5.541 -0.9547 -0.4379  1.0047
 7999TIP3    H245413   1.182   3.083   5.601 -0.1549  0.2495 -0.4716
 8000TIP3   OH245414   0.788   4.410  13.755  0.8439 -0.2460  0.4387
 8000TIP3    H145415   0.702   4.432  13.793  0.2773 -2.2566  0.3531
 8000TIP3    H245416   0.787   4.452  13.669 -0.5568 -1.2931 -0.0684
 8001TIP3   OH245417   0.322   5.696   4.747  0.0327 -0.1148 -0.5498
 8001TIP3    H145418   0.280   5.701   4.661  1.0741 -1.5569 -1.1655
 8001TIP3    H245419   0.367   5.612   4.747  2.5630  1.1835  0.2482
 8002TIP3   OH245420   0.948   5.047   0.118 -0.5643 -0.2548  0.7517
 8002TIP3    H145421   1.033   5.025   0.156 -0.9065  1.2324  2.4684
 8002TIP3    H245422   0.951   5.012   0.029  1.8393 -0.2450  0.7983
 8003TIP3   OH245423   6.249   5.730   2.641 -1.0538  0.2008  0.1137
 8003TIP3    H145424   6.202   5.658   2.599 -1.0730 -0.1437  0.7240
 8003TIP3    H245425   6.303   5.768   2.572 -1.2918 -0.1908 -0.2847
 8004TIP3   OH245426   4.576   5.488   1.336  0.1211  0.5100  0.6661
 8004TIP3    H145427   4.583   5.574   1.294 -2.1259  0.9300  1.1027
 8004TIP3    H245428   4.656   5.442   1.310 -0.1273  1.5916 -2.1695
 8005TIP3   OH245429   6.152   5.962   0.865 -0.3936  0.0646  0.2292
 8005TIP3    H145430   6.078   5.955   0.926 -1.2906  0.7106 -0.7624
 8005TIP3    H245431   6.112   5.953   0.778  0.6196  1.0314 -0.3398
 8006TIP3   OH245432   1.826   1.373  12.641  0.3754 -0.4413  0.7062
 8006TIP3    H145433   1.832   1.288  12.599 -1.3044  0.0025 -0.4941
 8006TIP3    H245434   1.732   1.385  12.658  0.5675  1.2479  0.6762
 8007TIP3   OH245435   1.321   0.126  16.539  0.5065 -0.1679 -0.5554
 8007TIP3    H145436   1.314   0.208  16.491  1.2344  0.1711 -0.1078
 8007TIP3    H245437   1.356   0.152  16.625 -1.6314 -0.6369  0.5022
 8008TIP3   OH245438   3.062   0.500   4.776 -0.8867  0.4206  0.0096
 8008TIP3    H145439   2.983   0.538   4.814  0.2984  3.2303 -0.1836
 8008TIP3    H245440   3.132   0.523   4.838  0.2786  0.8179 -1.4129
 8009TIP3   OH245441   6.185   6.765  13.693 -0.8302 -0.1745  0.0250
 8009TIP3    H145442   6.245   6.711  13.641  0.7866  0.1653  1.5043
 8009TIP3    H245443   6.105   6.714  13.697  0.3468 -2.0434  0.5577
 8010TIP3   OH245444   5.074   5.315   5.891 -0.0152 -0.0625  0.3072
 8010TIP3    H145445   5.116   5.308   5.976 -0.1843 -0.3997  0.3612
 8010TIP3    H245446   5.012   5.387   5.901  0.3096  0.2144  0.3259
 8011TIP3   OH245447   1.801   5.256  13.331  0.2701  0.5755 -0.3325
 8011TIP3    H145448   1.751   5.294  13.404 -0.2800  0.9792 -0.9130
 8011TIP3    H245449   1.742   5.262  13.256  0.1983 -1.3605 -0.4625
 8012TIP3   OH245450   6.709   6.600   3.467 -0.3947  0.3349 -0.2371
 8012TIP3    H145451   6.698   6.660   3.541 -0.4361 -0.9203  0.8013
 8012TIP3    H245452   6.673   6.517   3.499  1.7274 -0.8414 -0.8578
 8013TIP3   OH245453   5.992   5.760   1.005 -0.4961 -0.1079  0.2588
 8013TIP3    H145454   5.905   5.729   0.981 -0.4058 -0.1558 -0.0053
 8013TIP3    H245455   6.050   5.686   0.990 -0.3115  0.1237 -0.1777
 8014TIP3   OH245456   4.587   4.437   3.332 -0.4798  0.2554 -0.1452
 8014TIP3    H145457   4.634   4.434   3.249 -1.8566  1.2244 -0.9809
 8014TIP3    H245458   4.499   4.467   3.309 -0.5770  1.5732  1.7864
 8015TIP3   OH245459   3.134   5.057  12.134 -0.4542 -0.0917 -0.2108
 8015TIP3    H145460   3.168   5.104  12.210 -1.1207  0.6417 -0.3541
 8015TIP3    H245461   3.151   4.965  12.153  0.0572  0.1393  0.4860
 8016TIP3   OH245462   1.251   6.510   1.942 -0.0884  0.0094 -0.0571
 8016TIP3    H145463   1.317   6.491   2.008 -1.0511  0.3991  1.0287
 8016TIP3    H245464   1.176   6.543   1.991 -0.8030  0.3519 -1.3431
 8017TIP3   OH245465   1.038   5.198  15.765 -0.1347  0.7576 -0.2112
 8017TIP3    H145466   1.113   5.139  15.751 -0.4557  0.4380 -0.6179
 8017TIP3    H245467   0.966   5.139  15.787 -0.3886  1.0260 -0.3295
 8018TIP3   OH245468   1.228   2.877  13.509 -0.2269 -0.2440 -0.5462
 8018TIP3    H145469   1.225   2.808  13.575  0.0136 -0.0018 -0.2769
 8018TIP3    H245470   1.157   2.856  13.448  0.4230 -1.2197 -0.9715
 8019TIP3   OH245471   2.898   4.063  16.478  0.6017  0.0654 -0.8065
 8019TIP3    H145472   2.986   4.044  16.511  0.5453 -1.7686 -1.6688
 8019TIP3    H245473   2.880   4.152  16.508  2.2093 -0.0397  0.5444
 8020TIP3   OH245474   2.741   3.633   3.176  0.6492  0.0116  0.2317
 8020TIP3    H145475   2.710   3.695   3.242  0.2450  0.7620 -0.6625
 8020TIP3    H245476   2.687   3.555   3.188  0.4522  0.2161  0.6610
 8021TIP3   OH245477   5.019   0.402  17.187  0.0052  0.2843 -0.1659
 8021TIP3    H145478   4.978   0.469  17.242  2.0089  1.7358 -0.4151
 8021TIP3    H245479   5.053   0.338  17.250  3.4068  2.5783  0.4202
 8022TIP3   OH245480   1.855   1.699  14.128  0.3743 -0.3237  0.0176
 8022TIP3    H145481   1.933   1.732  14.173  1.3617 -0.6128 -1.4362
 8022TIP3    H245482   1.786   1.761  14.151  1.1411  0.1904  0.9567
 8023TIP3   OH245483   4.199   5.505  11.319  0.4414  0.1257 -0.3095
 8023TIP3    H145484   4.257   5.462  11.382  1.5611  0.3659 -1.1515
 8023TIP3    H245485   4.258   5.540  11.252 -0.5344  2.1816 -0.1166
 8024TIP3   OH245486   0.593   2.026   2.153  0.0182  0.0485 -0.0329
 8024TIP3    H145487   0.549   1.942   2.143 -1.6828  1.0371 -1.1001
 8024TIP3    H245488   0.623   2.027   2.244  0.7379 -2.0157 -0.2170
 8025TIP3   OH245489   3.873   2.194   5.945 -0.2485  0.3436 -0.2325
 8025TIP3    H145490   3.854   2.100   5.939  0.9287  0.0602  0.1588
 8025TIP3    H245491   3.818   2.225   6.017 -1.9618  0.3292 -1.5054
 8026TIP3   OH245492   6.360   0.331   0.536 -0.1729 -0.0407 -0.1930
 8026TIP3    H145493   6.273   0.303   0.507 -0.0454  1.0232 -1.6442
 8026TIP3    H245494   6.343   0.401   0.599 -0.3673  0.9966 -1.3714
 8027TIP3   OH245495   6.686   4.676  10.473  0.3493  0.3901  0.2383
 8027TIP3    H145496   6.734   4.700  10.394  1.6075 -0.2400  0.7896
 8027TIP3    H245497   6.720   4.734  10.541 -0.9884  1.1818  0.2603
 8028TIP3   OH245498   2.590   1.862   5.076 -0.0501 -0.6909  0.2004
 8028TIP3    H145499   2.664   1.910   5.037  0.2209 -0.9078  0.4476
 8028TIP3    H245500   2.619   1.771   5.079  0.3415 -0.5192  1.8751
 8029TIP3   OH245501   5.946   5.786  15.350  0.2387 -0.7755 -0.2463
 8029TIP3    H145502   5.868   5.836  15.325  0.5422  1.2928  2.7047
 8029TIP3    H245503   6.011   5.808  15.283 -0.4062  0.9215 -0.3420
 8030TIP3   OH245504   5.369   3.176  16.989  0.3703  0.2639 -0.0287
 8030TIP3    H145505   5.380   3.256  16.938  0.8731  0.0327 -0.2754
 8030TIP3    H245506   5.316   3.119  16.934 -0.5492  0.6660  0.4148
 8031TIP3   OH245507   0.590   6.458  15.556 -0.2539  0.2358  0.1811
 8031TIP3    H145508   0.546   6.479  15.473 -1.5456 -0.6902  0.6101
 8031TIP3    H245509   0.628   6.371  15.542 -2.8370 -1.1592  1.4316
 8032TIP3   OH245510   5.750   4.861  10.288  0.1807 -0.4587 -0.6202
 8032TIP3    H145511   5.813   4.795  10.257  2.3817  1.3860 -0.2610
 8032TIP3    H245512   5.687   4.870  10.217  1.6164 -0.7428 -1.9701
 8033TIP3   OH245513   3.013   0.424  13.549  0.3169  0.0370  0.7743
 8033TIP3    H145514   2.989   0.516  13.556  1.6255  0.5269 -0.6907
 8033TIP3    H245515   3.030   0.411  13.455  3.0244 -0.9259  1.3556
 8034TIP3   OH245516   1.844   0.514   1.904 -0.0210 -0.3752  0.5448
 8034TIP3    H145517   1.898   0.436   1.909 -1.2235 -1.2109  0.8428
 8034TIP3    H245518   1.864   0.553   1.819  1.2674 -0.4869  0.7846
 8035TIP3   OH245519   5.760   6.426   1.370 -0.4273 -0.1195 -0.1444
 8035TIP3    H145520   5.788   6.449   1.459 -0.2111  0.9337 -0.4809
 8035TIP3    H245521   5.776   6.505   1.318  2.6618 -1.7525 -1.8571
 8036TIP3   OH245522   0.261   1.306   1.446 -0.6028 -0.1514 -0.1790
 8036TIP3    H145523   0.297   1.390   1.475 -1.3687  0.3915 -0.7456
 8036TIP3    H245524   0.322   1.276   1.378  0.3180 -0.6456  0.8459
 8037TIP3   OH245525   1.159   1.490  14.516  0.2439  0.0734  0.5244
 8037TIP3    H145526   1.145   1.581  14.491 -0.0744  0.1159  0.8519
 8037TIP3    H245527   1.089   1.471  14.579  0.4491 -0.3259  0.6363
 8038TIP3   OH245528   3.825   5.501  14.210  0.1024  0.1767  0.5294
 8038TIP3    H145529   3.891   5.478  14.145 -0.6294  0.2161 -0.2416
 8038TIP3    H245530   3.850   5.451  14.288  0.2275 -0.9235 -0.1937
 8039TIP3   OH245531   1.238   4.971  12.729  0.1880 -0.4645  0.1580
 8039TIP3    H145532   1.251   4.956  12.822 -0.2043 -0.1861  0.2571
 8039TIP3    H245533   1.323   5.000  12.697 -0.2761  1.8046  0.8936
 8040TIP3   OH245534   1.496   0.120   2.082 -0.5822 -0.4465 -0.1334
 8040TIP3    H145535   1.447   0.145   2.004 -0.3430 -1.3160 -0.5627
 8040TIP3    H245536   1.530   0.203   2.117 -0.5052 -0.0834 -1.0693
 8041TIP3   OH245537   4.057   1.944   3.129  0.2301 -0.3222  0.4406
 8041TIP3    H145538   3.985   1.891   3.094 -0.2726  0.0889  0.8399
 8041TIP3    H245539   4.102   1.978   3.052  0.2192 -0.8824  0.1851
 8042TIP3   OH245540   4.713   0.773  15.319  0.2132  0.1840 -0.0170
 8042TIP3    H145541   4.617   0.766  15.318  0.2465 -0.1811 -0.8610
 8042TIP3    H245542   4.744   0.688  15.290  0.8153  0.0707  0.9552
 8043TIP3   OH245543   3.979   2.479  10.699  0.3878  0.3061  0.2146
 8043TIP3    H145544   4.066   2.487  10.659 -0.0374  0.5485 -0.6666
 8043TIP3    H245545   3.924   2.541  10.651 -0.7966 -1.4283 -0.7390
 8044TIP3   OH245546   4.821   0.084   5.887  0.2773  0.0769  0.0121
 8044TIP3    H145547   4.832   0.143   5.962  1.6503  0.8685 -0.8099
 8044TIP3    H245548   4.766   0.133   5.826  1.0928  0.3602 -0.5010
 8045TIP3   OH245549   1.283   5.290  11.209 -0.1521  0.1116  0.0259
 8045TIP3    H145550   1.308   5.248  11.291 -1.3347  0.4710  0.5811
 8045TIP3    H245551   1.268   5.382  11.232 -1.6727 -0.0303 -0.3358
 8046TIP3   OH245552   4.957   0.838  13.310  0.1538  0.2005 -0.2662
 8046TIP3    H145553   4.933   0.930  13.306  0.6014  0.4308  2.0207
 8046TIP3    H245554   4.901   0.801  13.379  1.4093 -0.7901  0.2373
 8047TIP3   OH245555   5.978   0.645  11.887 -0.0838  0.0803 -0.1524
 8047TIP3    H145556   5.902   0.633  11.830 -0.2406  0.6935 -0.0729
 8047TIP3    H245557   5.942   0.653  11.975  0.0123  1.2105 -0.2164
 8048TIP3   OH245558   5.609   5.315   2.543  0.2188  0.6008 -0.0639
 8048TIP3    H145559   5.595   5.235   2.493 -0.6446  0.7718 -0.1027
 8048TIP3    H245560   5.521   5.349   2.559  0.5795  1.5077  0.0095
 8049TIP3   OH245561   4.339   2.505  17.175 -0.7958 -0.1257 -0.6175
 8049TIP3    H145562   4.361   2.415  17.152  0.5691  0.0024  0.1064
 8049TIP3    H245563   4.367   2.557  17.100  0.1064 -0.1143 -0.2769
 8050TIP3   OH245564   6.432   2.729  12.514  0.7844 -0.1636  0.0168
 8050TIP3    H145565   6.518   2.698  12.543  0.3829 -0.3563  1.0290
 8050TIP3    H245566   6.398   2.777  12.589 -0.0144 -0.1256 -0.3688
 8051TIP3   OH245567   1.464   0.789   2.876  0.2338  0.3691 -0.1848
 8051TIP3    H145568   1.469   0.710   2.822 -0.3485 -0.9067  1.5710
 8051TIP3    H245569   1.413   0.851   2.823 -2.6103 -1.7662 -0.0753
 8052TIP3   OH245570   5.963   4.455   3.339 -0.5397  0.0401  0.0707
 8052TIP3    H145571   6.028   4.399   3.380  0.5515  0.2202 -1.3891
 8052TIP3    H245572   5.976   4.541   3.380 -2.1754 -0.7034  2.2625
 8053TIP3   OH245573   2.195   4.272   4.300 -0.3128  0.1123  0.5859
 8053TIP3    H145574   2.145   4.215   4.359 -0.0624 -1.6786 -0.9152
 8053TIP3    H245575   2.287   4.251   4.318 -0.1389  1.5799  1.5263
 8054TIP3   OH245576   4.891   3.046  11.442 -0.0253  0.0250  0.0948
 8054TIP3    H145577   4.971   3.064  11.392 -0.7742  1.2902 -0.6783
 8054TIP3    H245578   4.865   2.958  11.415  1.1014 -0.3928  0.3550
 8055TIP3   OH245579   5.192   3.791  13.491  0.3978  0.3960  0.8357
 8055TIP3    H145580   5.197   3.697  13.508  1.1338  0.5329  1.4245
 8055TIP3    H245581   5.205   3.799  13.396 -0.0858 -0.1250  0.7239
 8056TIP3   OH245582   1.189   2.095   3.516  0.1225 -0.1878 -0.7891
 8056TIP3    H145583   1.138   2.015   3.531 -0.1774 -0.1137 -1.3819
 8056TIP3    H245584   1.266   2.065   3.467 -0.5095  0.0286 -1.9370
 8057TIP3   OH245585   5.184   1.455   1.557 -0.3786  0.6288  0.7143
 8057TIP3    H145586   5.277   1.436   1.543 -1.2978 -2.4873 -1.7831
 8057TIP3    H245587   5.159   1.507   1.480 -1.4269 -1.5394 -0.4790
 8058TIP3   OH245588   1.517   6.243  16.474  0.1381 -0.0777  0.2754
 8058TIP3    H145589   1.570   6.270  16.550 -0.6656  0.8299  0.5219
 8058TIP3    H245590   1.476   6.162  16.502 -0.3800  0.3978  0.9323
 8059TIP3   OH245591   3.021   0.606  15.696  0.4754 -0.0812  0.1781
 8059TIP3    H145592   3.107   0.562  15.695  0.7513  0.4581  0.0263
 8059TIP3    H245593   2.991   0.599  15.786 -0.4526 -2.4630 -0.2757
 8060TIP3   OH245594   1.355   2.501  13.793  0.0299 -0.1853  0.5184
 8060TIP3    H145595   1.355   2.495  13.888  0.4053 -0.2307  0.5180
 8060TIP3    H245596   1.433   2.552  13.772 -0.7616  0.9383  0.2933
 8061TIP3   OH245597   1.591   0.653   0.963 -0.0983  0.7756  0.4605
 8061TIP3    H145598   1.529   0.664   0.891  2.2357 -1.4470 -2.0527
 8061TIP3    H245599   1.651   0.727   0.954  0.8729 -0.1143 -0.6989
 8062TIP3   OH245600   4.881   6.012  14.517 -0.1630 -0.4103  0.4498
 8062TIP3    H145601   4.882   5.971  14.431 -2.8919  0.2584  0.0405
 8062TIP3    H245602   4.929   5.952  14.574  0.3284 -1.6117 -1.2215
 8063TIP3   OH245603   4.946   5.660   4.550 -0.1782 -0.3020 -0.3640
 8063TIP3    H145604   4.971   5.649   4.642 -0.4798 -0.8317 -0.3389
 8063TIP3    H245605   4.869   5.604   4.540  0.0693 -0.5311 -1.0294
 8064TIP3   OH245606   4.489   0.052   4.986  0.1527  0.3923  0.9553
 8064TIP3    H145607   4.544   0.008   4.921 -0.8572  0.4742  0.0187
 8064TIP3    H245608   4.545   0.120   5.023  0.9714 -0.1388  0.7113
 8065TIP3   OH245609   1.825   4.404  14.630  0.1187 -0.8076  0.2023
 8065TIP3    H145610   1.848   4.361  14.547  2.0073  0.9946 -0.2409
 8065TIP3    H245611   1.755   4.465  14.607 -2.2158 -3.2021  0.7400
 8066TIP3   OH245612   2.435   1.393   0.063  0.2321 -0.2838 -0.2153
 8066TIP3    H145613   2.382   1.316   0.042 -0.0098  0.3490 -2.0998
 8066TIP3    H245614   2.445   1.391   0.158 -3.9506  0.0716  0.3217
 8067TIP3   OH245615   5.626   3.612  17.021  0.1928 -0.2052 -0.3710
 8067TIP3    H145616   5.537   3.625  17.052  0.1748 -1.1657  0.0001
 8067TIP3    H245617   5.617   3.563  16.940  0.3190  0.8958 -1.0535
 8068TIP3   OH245618   5.793   2.649  12.199  0.2005  0.1576  0.2568
 8068TIP3    H145619   5.718   2.679  12.251 -0.2753  0.5308 -0.6275
 8068TIP3    H245620   5.775   2.681  12.111 -0.3203 -2.7274 -0.7431
 8069TIP3   OH245621   5.175   0.161   3.534  0.4676  0.4466 -0.4168
 8069TIP3    H145622   5.246   0.222   3.513 -0.6893  1.7216 -0.7432
 8069TIP3    H245623   5.219   0.079   3.554  2.2126  1.9471  2.1999
 8070TIP3   OH245624   1.876   3.991   1.907  0.4731  0.0106  0.3706
 8070TIP3    H145625   1.923   4.073   1.922 -0.9665  0.7114  1.1348
 8070TIP3    H245626   1.784   4.013   1.920 -0.0950 -1.3325 -1.1536
 8071TIP3   OH245627   4.686   2.981   1.098 -0.3744 -0.1544 -0.1198
 8071TIP3    H145628   4.745   2.973   1.173 -0.4504 -1.4669 -0.1874
 8071TIP3    H245629   4.599   2.966   1.134 -0.6734  1.7307 -0.0317
 8072TIP3   OH245630   3.193   3.910   0.523 -0.4316  0.1882  0.1214
 8072TIP3    H145631   3.260   3.857   0.481 -0.8739 -1.5817  1.6105
 8072TIP3    H245632   3.192   3.992   0.473  0.3518 -1.1358 -2.1074
 8073TIP3   OH245633   5.200   4.558   2.023 -0.5855 -0.2181  0.2820
 8073TIP3    H145634   5.129   4.616   1.996 -1.3522 -1.3330 -0.1244
 8073TIP3    H245635   5.180   4.474   1.981 -0.0504 -1.0750  1.6801
 8074TIP3   OH245636   6.483   0.081  16.235  0.0999  0.0561 -0.5474
 8074TIP3    H145637   6.493  -0.001  16.283 -2.2764 -0.1088 -0.2641
 8074TIP3    H245638   6.556   0.136  16.266  0.5744 -1.2461  0.7150
 8075TIP3   OH245639   6.298   4.921  15.865 -0.5220 -0.4886  0.0762
 8075TIP3    H145640   6.298   4.826  15.862 -3.7555 -0.5050 -2.4332
 8075TIP3    H245641   6.208   4.945  15.889  0.5773  1.9570  2.0882
 8076TIP3   OH245642   4.905   6.410   3.090 -0.5247 -0.3609  0.0753
 8076TIP3    H145643   4.880   6.320   3.069 -0.1247 -0.6049  0.6404
 8076TIP3    H245644   4.995   6.403   3.121 -0.6892  0.1580  0.6704
 8077TIP3   OH245645   1.053   3.225  12.729 -0.5251  0.2431 -0.3970
 8077TIP3    H145646   1.112   3.231  12.654 -0.7495 -0.8539 -0.6630
 8077TIP3    H245647   1.016   3.313  12.737  1.1777  0.9631 -0.1902
 8078TIP3   OH245648   6.050   2.993   0.325  0.0880 -0.1859  0.2006
 8078TIP3    H145649   6.132   3.026   0.289 -0.1925 -0.9444 -1.1595
 8078TIP3    H245650   6.032   2.914   0.274  0.1287 -1.7983  2.5583
 8079TIP3   OH245651   1.716   6.252   1.425  0.0328 -0.4811 -0.1317
 8079TIP3    H145652   1.709   6.250   1.330 -0.0829 -1.4706 -0.1051
 8079TIP3    H245653   1.629   6.276   1.455  0.0443 -0.2643 -0.2721
 8080TIP3   OH245654   4.725   0.475  12.706  0.1119  0.4109 -0.2736
 8080TIP3    H145655   4.652   0.498  12.764 -0.8918 -1.0463 -0.9230
 8080TIP3    H245656   4.698   0.393  12.665  2.2237 -0.2598 -0.3857
 8081TIP3   OH245657   0.688   4.876   2.495 -0.2349  0.6921 -0.3719
 8081TIP3    H145658   0.643   4.949   2.452  0.9612  1.6033 -0.1316
 8081TIP3    H245659   0.764   4.858   2.440 -0.5534 -0.4162 -0.4546
 8082TIP3   OH245660   3.700   1.568   0.230  0.7248  0.7080  0.1239
 8082TIP3    H145661   3.775   1.537   0.179  0.6270  0.7186 -0.0283
 8082TIP3    H245662   3.624   1.543   0.178  0.6443  1.1920  0.0025
 8083TIP3   OH245663   4.553   2.727  15.514 -0.4342  0.2881 -1.0670
 8083TIP3    H145664   4.641   2.737  15.550  0.4139  1.1040 -3.2550
 8083TIP3    H245665   4.494   2.735  15.589  1.2352  2.2381  0.0553
 8084TIP3   OH245666   4.220   2.650  13.248 -0.0498 -0.3879  0.0676
 8084TIP3    H145667   4.190   2.560  13.262 -1.9241  0.4446  1.6610
 8084TIP3    H245668   4.235   2.684  13.336  0.4784  0.9220 -0.5160
 8085TIP3   OH245669   4.756   6.368  16.720 -0.7561 -0.0589  0.0478
 8085TIP3    H145670   4.809   6.368  16.640 -1.2897 -0.0556 -0.3063
 8085TIP3    H245671   4.814   6.403  16.788 -0.0192 -0.8844 -0.1501
 8086TIP3   OH245672   0.437   4.888   0.652  0.0518  0.6066 -0.1997
 8086TIP3    H145673   0.345   4.873   0.672  0.3192  0.0597  0.6547
 8086TIP3    H245674   0.448   4.854   0.563 -0.2986 -0.4470  0.1505
 8087TIP3   OH245675   3.310   6.322  13.620  0.0909 -0.2174  0.1592
 8087TIP3    H145676   3.263   6.288  13.544  0.0197 -0.7178  0.4232
 8087TIP3    H245677   3.329   6.413  13.598 -0.8172 -0.0753 -0.0288
 8088TIP3   OH245678   4.081   1.971   6.708  0.0959 -0.4212 -0.4199
 8088TIP3    H145679   3.991   1.956   6.737 -0.3597  0.6120 -1.2351
 8088TIP3    H245680   4.126   2.006   6.785 -1.0680  2.1631 -0.8694
 8089TIP3   OH245681   3.848   1.190  13.329  0.3395 -0.7492  0.0695
 8089TIP3    H145682   3.770   1.209  13.380 -0.1643 -2.3075 -0.1203
 8089TIP3    H245683   3.830   1.107  13.286  2.5052 -1.6678  0.8481
 8090TIP3   OH245684   5.291   6.260   1.062  0.5827  0.0432  0.0476
 8090TIP3    H145685   5.234   6.188   1.034  0.8157 -1.2798  2.7782
 8090TIP3    H245686   5.291   6.321   0.988 -1.0697 -1.8929 -1.6194
 8091TIP3   OH245687   6.613   2.201  10.482  0.3403 -0.0560  0.2767
 8091TIP3    H145688   6.667   2.156  10.546  0.0625 -0.9113 -0.0868
 8091TIP3    H245689   6.535   2.147  10.473 -0.5007  1.0601  0.6475
 8092TIP3   OH245690   2.055   2.807  14.363 -0.2535 -0.4256 -0.1653
 8092TIP3    H145691   2.121   2.859  14.410 -0.5109  1.1918 -1.5576
 8092TIP3    H245692   2.105   2.739  14.319  0.3105 -0.2323  0.1745
 8093TIP3   OH245693   4.997   3.301   0.399 -0.1511 -0.2846  0.1268
 8093TIP3    H145694   4.956   3.341   0.322 -0.2670  2.1844  1.4082
 8093TIP3    H245695   5.090   3.318   0.388  0.1002 -2.0791 -0.6471
 8094TIP3   OH245696   2.192   5.072  11.870 -0.1591  0.0115  0.0781
 8094TIP3    H145697   2.177   4.992  11.820  1.1402  1.1642 -2.1987
 8094TIP3    H245698   2.134   5.137  11.831 -0.8500  0.3593  1.6102
 8095TIP3   OH245699   4.846   0.873  10.786  0.5295 -0.3103 -0.9529
 8095TIP3    H145700   4.799   0.819  10.849  1.9513 -0.6060 -0.1306
 8095TIP3    H245701   4.903   0.813  10.740  0.3173  0.0944 -1.7503
 8096TIP3   OH245702   0.112   4.296  16.924 -0.2552 -0.0080  0.1232
 8096TIP3    H145703   0.135   4.279  16.832 -0.7457  3.2105 -0.6563
 8096TIP3    H245704   0.019   4.276  16.929  0.1765 -1.9931  0.4012
 8097TIP3   OH245705   0.191   0.600  12.958 -0.7142  0.1213  0.1998
 8097TIP3    H145706   0.180   0.684  13.002  1.5203  0.4206  0.2769
 8097TIP3    H245707   0.154   0.536  13.019 -0.2364  0.8111  1.2366
 8098TIP3   OH245708   4.303   3.319   1.245  0.1264 -0.4777  0.0890
 8098TIP3    H145709   4.216   3.280   1.243 -0.0343 -0.0977 -0.3957
 8098TIP3    H245710   4.345   3.287   1.164  0.0243  0.2820 -0.2643
 8099TIP3   OH245711   2.699   1.752  12.381 -0.0606 -0.0860 -0.2377
 8099TIP3    H145712   2.720   1.761  12.474 -1.1712  4.1184 -0.3059
 8099TIP3    H245713   2.604   1.744  12.378 -0.1279  0.9046 -1.0527
 8100TIP3   OH245714   3.688   2.141  16.363 -0.4352  0.0366  0.0679
 8100TIP3    H145715   3.724   2.223  16.398 -1.5763  0.1898  0.9218
 8100TIP3    H245716   3.696   2.149  16.268 -1.0264  1.3690  0.1231
 8101TIP3   OH245717   6.025   3.390  14.119 -0.4044 -0.5060  0.4584
 8101TIP3    H145718   6.067   3.408  14.204 -1.8869  1.1188  0.8777
 8101TIP3    H245719   6.055   3.461  14.062  0.0250 -1.2058 -0.2008
 8102TIP3   OH245720   6.483   3.367   1.062  0.6546 -0.2129  0.0808
 8102TIP3    H145721   6.474   3.276   1.032 -2.6226 -0.6519  2.1568
 8102TIP3    H245722   6.491   3.360   1.157 -0.7958  1.7318  0.3666
 8103TIP3   OH245723   2.579   3.564   1.500 -0.2784 -0.2055 -0.0159
 8103TIP3    H145724   2.489   3.555   1.469 -0.5661 -1.1734  1.0692
 8103TIP3    H245725   2.593   3.658   1.506  0.0067  0.0533 -3.7021
 8104TIP3   OH245726   3.804   2.076  12.644  0.4306  0.3040  0.4667
 8104TIP3    H145727   3.783   1.987  12.614  0.3951  0.6691 -0.6331
 8104TIP3    H245728   3.726   2.106  12.690 -0.1124  0.3122 -0.4545
 8105TIP3   OH245729   0.627   1.981   5.475 -0.2549 -0.2937  0.0164
 8105TIP3    H145730   0.553   2.041   5.488  0.5007  0.1366  2.6240
 8105TIP3    H245731   0.699   2.038   5.445  0.1704 -0.0560  1.4816
 8106TIP3   OH245732   2.924   5.732  15.564 -0.1885  0.1070 -0.2477
 8106TIP3    H145733   2.940   5.638  15.551 -0.9587 -0.2163  1.0856
 8106TIP3    H245734   2.908   5.741  15.658  0.3666  1.6563 -0.2945
 8107TIP3   OH245735   3.028   3.660   4.720  0.4585  0.4583  0.0953
 8107TIP3    H145736   3.019   3.712   4.800  0.1601 -1.5955  1.4482
 8107TIP3    H245737   2.942   3.620   4.707  0.1398  1.7338 -1.9786
 8108TIP3   OH245738   1.093   3.254  16.023 -0.0688 -0.0788  0.3242
 8108TIP3    H145739   1.136   3.336  15.994  1.4376 -1.1501 -0.5933
 8108TIP3    H245740   1.027   3.238  15.956 -0.3376  0.3631  0.4786
 8109TIP3   OH245741   3.305   1.971  12.032 -0.1540  0.0101  0.5730
 8109TIP3    H145742   3.390   1.959  11.991  0.1095 -1.1906  1.4259
 8109TIP3    H245743   3.315   1.933  12.119 -1.3071  0.6473  0.9952
 8110TIP3   OH245744   5.831   2.709  14.347  0.0901  0.6685 -0.5127
 8110TIP3    H145745   5.925   2.698  14.332  0.1687  0.0368  0.4497
 8110TIP3    H245746   5.824   2.750  14.433 -0.5760 -0.8518  0.1720
 8111TIP3   OH245747   2.218   5.977  16.674  0.2278 -0.2017  0.6726
 8111TIP3    H145748   2.215   5.883  16.659 -0.0829 -0.3615  1.6914
 8111TIP3    H245749   2.126   6.003  16.685  0.3957 -0.0492  1.8955
 8112TIP3   OH245750   0.337   2.757  14.983  0.0300 -0.1425 -0.3990
 8112TIP3    H145751   0.405   2.727  14.923 -0.6062  0.0340 -1.2240
 8112TIP3    H245752   0.314   2.679  15.034  0.1934 -0.4353 -0.7654
 8113TIP3   OH245753   0.049   5.422  11.242  0.0521  0.5068  0.3092
 8113TIP3    H145754  -0.038   5.437  11.280 -1.1513 -2.0658 -1.2706
 8113TIP3    H245755   0.086   5.352  11.294 -0.0442 -0.4166 -0.8563
 8114TIP3   OH245756   1.149   6.339   3.851 -0.8363 -0.1502  0.3989
 8114TIP3    H145757   1.168   6.382   3.768 -2.8227 -1.2960 -0.6950
 8114TIP3    H245758   1.186   6.251   3.842  0.3771  0.2524  1.3714
 8115TIP3   OH245759   0.194   0.176   5.440  0.4062 -0.1750 -0.1012
 8115TIP3    H145760   0.202   0.242   5.509 -0.1046  0.0605 -0.2659
 8115TIP3    H245761   0.120   0.205   5.387  2.0607  0.7499 -1.9507
 8116TIP3   OH245762   4.806   0.847  16.363  0.0137  0.5498 -0.2752
 8116TIP3    H145763   4.717   0.814  16.351  0.4679 -0.8034 -0.0232
 8116TIP3    H245764   4.833   0.873  16.275 -0.8071  1.4593 -0.2730
 8117TIP3   OH245765   1.379   2.126  12.861  0.1643 -0.0058 -1.0369
 8117TIP3    H145766   1.356   2.219  12.856 -0.4826  0.2721  4.2479
 8117TIP3    H245767   1.471   2.122  12.836  0.2029  2.0257 -1.2702
 8118TIP3   OH245768   0.048   2.137   3.789  0.4463  0.3043  0.2344
 8118TIP3    H145769   0.124   2.115   3.843 -0.3411 -1.7774  0.5458
 8118TIP3    H245770  -0.025   2.092   3.831 -0.4196 -0.2432 -1.8117
 8119TIP3   OH245771   3.397   5.060  17.030  0.7056 -0.6348  0.3191
 8119TIP3    H145772   3.316   5.014  17.051  1.0480 -1.7170 -0.6493
 8119TIP3    H245773   3.401   5.132  17.092 -0.7271 -0.8991  0.7298
 8120TIP3   OH245774   1.870   3.447  16.614  0.3162  0.3905 -0.3178
 8120TIP3    H145775   1.874   3.353  16.598  0.1369  0.5120 -1.0819
 8120TIP3    H245776   1.833   3.455  16.702  0.3546 -0.2539 -0.2429
 8121TIP3   OH245777   2.601   0.541  11.538 -0.1751  0.2201  0.3172
 8121TIP3    H145778   2.546   0.492  11.478 -0.7087  0.4479  0.6233
 8121TIP3    H245779   2.666   0.583  11.482  0.3712 -0.9462  0.0729
 8122TIP3   OH245780   3.271   2.797   5.499 -0.2740 -0.3673 -1.1984
 8122TIP3    H145781   3.181   2.821   5.477 -0.8901 -1.8843 -0.3729
 8122TIP3    H245782   3.300   2.742   5.426 -0.7200 -1.5733 -0.4623
 8123TIP3   OH245783   4.049   1.101   3.452 -0.2808 -0.0904 -0.4396
 8123TIP3    H145784   4.005   1.129   3.371 -1.5372  0.0091  0.2687
 8123TIP3    H245785   4.063   1.183   3.500 -1.6209 -0.3850  0.4727
 8124TIP3   OH245786   6.282   3.614  15.913  0.2951  0.1769  0.1983
 8124TIP3    H145787   6.251   3.526  15.892  2.7254 -1.2094  2.1956
 8124TIP3    H245788   6.336   3.639  15.838 -0.9614  0.3075 -0.6940
 8125TIP3   OH245789   1.603   3.474   1.025  0.7988 -0.0736  0.5540
 8125TIP3    H145790   1.634   3.551   0.977  0.1430  0.6050  1.2022
 8125TIP3    H245791   1.518   3.454   0.985  0.4407  0.2452  1.1400
 8126TIP3   OH245792   0.726   6.339   3.648  0.0060 -0.2452 -0.5317
 8126TIP3    H145793   0.678   6.353   3.566  1.1454 -1.1926 -1.3704
 8126TIP3    H245794   0.725   6.244   3.661 -0.0305 -0.1196  0.4879
 8127TIP3   OH245795   5.673   5.061   4.616 -0.0402 -0.5864 -0.7498
 8127TIP3    H145796   5.609   5.049   4.686 -0.6202 -0.0669 -1.1769
 8127TIP3    H245797   5.727   4.982   4.618 -1.4447 -1.5671 -1.1479
 8128TIP3   OH245798   3.944   6.686   6.011 -0.3208  0.5997 -0.1341
 8128TIP3    H145799   4.012   6.629   6.048 -1.2231  0.2500  1.0272
 8128TIP3    H245800   3.863   6.634   6.018 -1.3038  2.3546  1.7628
 8129TIP3   OH245801   3.213   3.852   3.869 -0.3018  0.3214 -0.4815
 8129TIP3    H145802   3.271   3.927   3.856  0.6404 -0.4301 -0.6494
 8129TIP3    H245803   3.259   3.779   3.828 -2.2964  0.1113 -2.4067
 8130TIP3   OH245804   5.562   4.894   5.119  0.1734 -0.6063 -0.1454
 8130TIP3    H145805   5.558   4.799   5.126  1.4859 -0.7999 -1.7946
 8130TIP3    H245806   5.627   4.911   5.051  1.1900  1.5223  1.2921
 8131TIP3   OH245807   4.485   6.466  15.741  0.3739 -0.8202 -0.6393
 8131TIP3    H145808   4.442   6.551  15.734  0.3283 -1.0216 -3.1840
 8131TIP3    H245809   4.508   6.458  15.834 -2.5854  0.5111  0.2770
 8132TIP3   OH245810   3.184   1.599   0.910  0.6448  0.0002 -0.6364
 8132TIP3    H145811   3.219   1.657   0.978  0.1849  0.0212 -0.4208
 8132TIP3    H245812   3.135   1.533   0.958  0.3198  0.0147 -0.9510
 8133TIP3   OH245813   0.648   0.301  16.870  0.1299  0.2742 -0.1131
 8133TIP3    H145814   0.612   0.233  16.812 -1.2251  2.1519 -1.5137
 8133TIP3    H245815   0.576   0.362  16.883  0.2019 -0.4046  4.1267
 8134TIP3   OH245816   2.295   6.473  16.985 -0.6939  0.3412 -0.1862
 8134TIP3    H145817   2.277   6.382  17.006  0.5632  0.4517  1.4527
 8134TIP3    H245818   2.241   6.523  17.045 -2.2026  0.7037 -1.8075
 8135TIP3   OH245819   3.080   1.743  17.104 -0.0006  0.2937 -0.5745
 8135TIP3    H145820   3.131   1.691  17.042  1.6243  1.8430 -0.5884
 8135TIP3    H245821   3.066   1.686  17.179  2.1008 -0.0446 -0.4224
 8136TIP3   OH245822   3.527   3.575  15.551  0.2883 -0.2263 -0.0676
 8136TIP3    H145823   3.623   3.579  15.546  0.2834 -2.4201 -5.2088
 8136TIP3    H245824   3.497   3.627  15.477 -2.5053 -1.0749  0.4201
 8137TIP3   OH245825   4.096   4.383  14.557  0.0069 -0.2559  0.3971
 8137TIP3    H145826   4.143   4.373  14.474  0.6380  3.4972  0.1885
 8137TIP3    H245827   4.014   4.426  14.533 -0.6571 -0.8989  1.5049
 8138TIP3   OH245828   3.211   3.262  16.129 -0.4677  0.2213  0.3297
 8138TIP3    H145829   3.118   3.250  16.150 -0.5925  0.9483  0.1985
 8138TIP3    H245830   3.255   3.260  16.214 -0.5935 -0.1872  0.3861
 8139TIP3   OH245831   0.196   5.070  11.135 -0.3647  0.3079  0.1187
 8139TIP3    H145832   0.105   5.040  11.129 -0.2830 -0.2753  1.6295
 8139TIP3    H245833   0.230   5.063  11.046 -1.9393  0.9752 -0.5426
 8140TIP3   OH245834   4.197   3.276  15.375 -0.2739  0.1386  0.1085
 8140TIP3    H145835   4.290   3.259  15.390 -0.3012 -1.5994 -1.4901
 8140TIP3    H245836   4.165   3.197  15.332 -1.8823  1.7794 -1.8175
 8141TIP3   OH245837   0.724   5.704   0.633 -0.7483  0.2270  0.4362
 8141TIP3    H145838   0.692   5.615   0.618 -1.6175  0.7161 -0.6982
 8141TIP3    H245839   0.670   5.737   0.705 -1.6614  0.4595 -0.3460
 8142TIP3   OH245840   6.050   2.497   4.218  0.3762 -0.2469  0.1674
 8142TIP3    H145841   6.074   2.405   4.226  0.0838 -0.3014  0.4091
 8142TIP3    H245842   5.958   2.495   4.192 -0.0014 -0.0000  1.4657
 8143TIP3   OH245843   1.583   5.067  10.796  0.0094 -0.6591  0.2083
 8143TIP3    H145844   1.663   5.087  10.844 -1.1999  1.8638  1.2401
 8143TIP3    H245845   1.591   5.116  10.714 -0.7662  0.1784  0.6208
 8144TIP3   OH245846   3.058   4.946   6.553  0.4141  1.0875  0.8095
 8144TIP3    H145847   3.021   4.858   6.553  1.4382  0.6265 -1.5116
 8144TIP3    H245848   2.985   5.003   6.530  0.5862  0.4131 -1.5479
 8145TIP3   OH245849   3.619   2.175  12.826 -0.2627 -0.1912  0.3723
 8145TIP3    H145850   3.556   2.231  12.872  0.2789  0.7302  0.0124
 8145TIP3    H245851   3.571   2.094  12.810  0.0849 -1.2026  4.1076
 8146TIP3   OH245852   4.837   0.518   1.795  0.4297 -0.2440  0.1286
 8146TIP3    H145853   4.827   0.426   1.821 -0.2415 -0.3062 -0.3493
 8146TIP3    H245854   4.784   0.567   1.859 -0.4424 -0.3178 -0.5309
 8147TIP3   OH245855   0.750   6.197   3.083  0.1389 -0.1538  0.6179
 8147TIP3    H145856   0.751   6.245   3.000  2.1747 -0.2996  0.5530
 8147TIP3    H245857   0.769   6.264   3.149 -0.2864 -0.2686  0.8620
 8148TIP3   OH245858   6.534   5.582   2.545 -0.0477 -0.1503 -0.4791
 8148TIP3    H145859   6.621   5.589   2.583 -0.6397 -1.2089  1.1409
 8148TIP3    H245860   6.517   5.669   2.508  1.4192  0.2588 -0.2287
 8149TIP3   OH245861   1.949   6.625  11.305 -0.6759 -0.1764 -0.3884
 8149TIP3    H145862   1.969   6.718  11.295 -0.0832 -0.4037 -1.3593
 8149TIP3    H245863   1.967   6.587  11.219 -0.6957 -1.2293  0.0650
 8150TIP3   OH245864   0.841   0.218  11.558  0.5509 -0.5844  0.2983
 8150TIP3    H145865   0.799   0.284  11.614 -0.1723 -0.3397 -0.5304
 8150TIP3    H245866   0.805   0.134  11.588  0.0859 -0.4441  0.1353
 8151TIP3   OH245867   2.728   2.887  15.985 -0.8561  0.6228 -0.0167
 8151TIP3    H145868   2.813   2.848  16.003 -1.0641 -0.6931 -1.7944
 8151TIP3    H245869   2.699   2.921  16.070  1.6862  1.6272  0.4639
 8152TIP3   OH245870   4.801   2.653   0.570 -0.2353 -0.9185  0.6733
 8152TIP3    H145871   4.840   2.647   0.483 -0.7202  0.2018  0.3716
 8152TIP3    H245872   4.724   2.596   0.566  0.0890 -1.3428  0.5538
 8153TIP3   OH245873   1.035   1.733   0.005  0.4302  0.1851  0.1038
 8153TIP3    H145874   1.040   1.692  -0.081 -0.8032  1.8115 -0.7691
 8153TIP3    H245875   0.946   1.768   0.010  0.1743 -0.6952  2.4229
 8154TIP3   OH245876   5.594   1.845  14.503  0.0232 -0.7713  0.2502
 8154TIP3    H145877   5.550   1.902  14.566  0.3296 -0.9311  0.6123
 8154TIP3    H245878   5.535   1.843  14.428  0.8557  1.4807 -0.4945
 8155TIP3   OH245879   1.567   6.325   5.996 -0.0781  0.5066 -0.1228
 8155TIP3    H145880   1.545   6.276   6.075  0.1586  1.1383  0.3395
 8155TIP3    H245881   1.596   6.258   5.934 -1.0911 -0.0836  0.0287
 8156TIP3   OH245882   2.773   6.338   0.973  0.3036  0.2587 -0.5153
 8156TIP3    H145883   2.818   6.326   1.056 -1.1610 -0.1119  0.2508
 8156TIP3    H245884   2.684   6.306   0.989 -0.3262  1.2464 -1.8932
 8157TIP3   OH245885   5.151   1.744  16.146 -0.6151  0.0603  0.0621
 8157TIP3    H145886   5.189   1.760  16.232 -0.4319  1.1986 -0.2213
 8157TIP3    H245887   5.219   1.770  16.084 -0.6597 -0.9619 -0.4350
 8158TIP3   OH245888   3.198   4.980   2.946  0.4940  0.0041  0.2140
 8158TIP3    H145889   3.229   4.957   2.858 -0.2941  0.1484 -0.1086
 8158TIP3    H245890   3.238   5.065   2.964  1.6981 -0.6195  0.5322
 8159TIP3   OH245891   5.585   3.053  14.418  0.8355 -0.3442 -0.2590
 8159TIP3    H145892   5.608   2.979  14.362  0.7185 -0.4727 -0.1374
 8159TIP3    H245893   5.664   3.068  14.471  0.5705 -0.9264  0.3119
 8160TIP3   OH245894   5.558   6.706   1.534 -0.3587  0.3440 -0.2859
 8160TIP3    H145895   5.552   6.686   1.627  0.4490 -1.6024 -0.6137
 8160TIP3    H245896   5.650   6.730   1.520 -0.4718  0.6108 -0.5821
 8161TIP3   OH245897   1.486   2.143  11.346 -0.2246 -0.2063 -0.0312
 8161TIP3    H145898   1.506   2.235  11.362 -1.3602 -0.1800  1.2713
 8161TIP3    H245899   1.403   2.144  11.298  0.9457 -0.4666 -2.0936
 8162TIP3   OH245900   3.525   5.433  14.405 -0.1020  0.0192  0.2007
 8162TIP3    H145901   3.471   5.354  14.408  0.9295 -0.7219 -0.5119
 8162TIP3    H245902   3.463   5.504  14.390 -0.8921 -0.8171 -0.5558
 8163TIP3   OH245903   4.957   5.700   5.622  0.0228 -0.2645  0.0221
 8163TIP3    H145904   4.866   5.727   5.608 -0.2313  0.4313  2.8365
 8163TIP3    H245905   4.961   5.611   5.586 -1.8223 -0.3755  0.0526
 8164TIP3   OH245906   2.452   4.756  15.369 -0.0591 -0.3145  0.2465
 8164TIP3    H145907   2.402   4.796  15.440  0.2312 -1.2169  0.9677
 8164TIP3    H245908   2.428   4.664  15.372 -1.2574 -0.0883 -1.8489
 8165TIP3   OH245909   3.485   3.745  15.305  0.3555 -0.1838 -0.1016
 8165TIP3    H145910   3.524   3.680  15.247  0.1549 -2.3789  2.1180
 8165TIP3    H245911   3.554   3.810  15.319  0.7403 -0.1692 -1.9274
 8166TIP3   OH245912   1.404   4.489   0.855 -0.6741 -0.2317  0.1891
 8166TIP3    H145913   1.437   4.491   0.945 -1.5585 -0.3832  0.5252
 8166TIP3    H245914   1.361   4.574   0.843 -1.1674 -0.4832  0.1534
 8167TIP3   OH245915   3.338   3.554  12.045 -0.3176 -0.1539  0.2660
 8167TIP3    H145916   3.351   3.603  11.963  0.9605  0.0125  0.5626
 8167TIP3    H245917   3.425   3.548  12.084 -0.6939 -1.4544  0.9362
 8168TIP3   OH245918   4.358   3.602   6.376 -0.3815 -0.4674  0.1981
 8168TIP3    H145919   4.328   3.534   6.315 -2.6971  0.6161  0.0954
 8168TIP3    H245920   4.382   3.675   6.320  1.7947 -1.0219  0.3362
 8169TIP3   OH245921   2.218   1.613  15.407 -0.3153 -0.0727  0.4605
 8169TIP3    H145922   2.167   1.676  15.356 -0.8536  0.4887  1.6888
 8169TIP3    H245923   2.295   1.596  15.352 -0.4021  1.2690 -0.1118
 8170TIP3   OH245924   5.780   3.309  12.689 -0.2398 -0.2629  0.4395
 8170TIP3    H145925   5.849   3.262  12.737 -0.2668  0.2985  1.0345
 8170TIP3    H245926   5.714   3.242  12.671  0.2085 -0.6867  0.3453
 8171TIP3   OH245927   5.710   5.753   0.953  0.6411  0.2599 -0.0426
 8171TIP3    H145928   5.690   5.665   0.920  1.7948 -0.6832  1.6418
 8171TIP3    H245929   5.638   5.773   1.013  0.0192  0.7664 -0.9516
 8172TIP3   OH245930   5.635   1.044   0.482  0.1457  0.3781  0.1117
 8172TIP3    H145931   5.559   1.093   0.450 -0.7294 -0.1145  1.3871
 8172TIP3    H245932   5.639   0.967   0.425  0.9656  1.4351 -1.3040
 8173TIP3   OH245933   0.270   6.702   5.516 -0.0091 -0.4444 -0.2966
 8173TIP3    H145934   0.285   6.796   5.500 -0.3523 -0.2561  0.4828
 8173TIP3    H245935   0.355   6.670   5.546 -0.1614 -0.1634  0.4452
 8174TIP3   OH245936   6.059   5.045   3.996  0.5103 -0.4023  0.4266
 8174TIP3    H145937   6.058   5.050   4.092  0.2172  1.0167  0.3675
 8174TIP3    H245938   6.025   5.130   3.968  1.1545 -0.5905 -0.9490
 8175TIP3   OH245939   1.972   1.516   2.212 -0.3695  0.2804 -0.9992
 8175TIP3    H145940   2.003   1.431   2.180  2.0509  1.1869 -1.1674
 8175TIP3    H245941   1.935   1.559   2.135  0.2156  0.1785 -1.3381
 8176TIP3   OH245942   3.188   2.420   0.854 -0.2350 -0.6214  0.3830
 8176TIP3    H145943   3.150   2.443   0.769  0.6183 -0.5062  0.0322
 8176TIP3    H245944   3.191   2.324   0.853 -1.3797 -0.6662  0.7916
 8177TIP3   OH245945   3.695   5.356  17.108 -0.1587  0.1864 -0.2992
 8177TIP3    H145946   3.640   5.294  17.155  1.1305 -0.5003  0.3320
 8177TIP3    H245947   3.639   5.433  17.094 -1.1229 -0.3246  0.7098
 8178TIP3   OH245948   6.087   5.655   3.502  0.0669 -0.0685  0.4571
 8178TIP3    H145949   6.086   5.736   3.553 -0.0977  0.6361 -0.6570
 8178TIP3    H245950   6.047   5.590   3.559  1.0455  0.4104  1.7272
 8179TIP3   OH245951   4.755   3.465   2.997 -0.3138 -0.3959 -0.4047
 8179TIP3    H145952   4.761   3.379   3.040 -0.3609 -0.4609 -0.5266
 8179TIP3    H245953   4.661   3.478   2.984 -0.4330  0.5478  1.3554
 8180TIP3   OH245954   6.359   2.910   3.516  0.2958  0.1525  0.1320
 8180TIP3    H145955   6.284   2.907   3.575 -1.3162  0.9801 -1.7926
 8180TIP3    H245956   6.326   2.874   3.433  1.3419  2.6933 -1.4464
 8181TIP3   OH245957   0.900   2.945  15.058  0.0725 -0.0766  0.1090
 8181TIP3    H145958   0.846   3.010  15.102 -1.9436 -2.5018  1.3290
 8181TIP3    H245959   0.939   2.992  14.984 -2.6564  2.0633 -0.0293
 8182TIP3   OH245960   4.168   4.449  11.849 -0.0242 -0.2488  0.7928
 8182TIP3    H145961   4.208   4.524  11.807  2.6715 -0.3198  3.0558
 8182TIP3    H245962   4.104   4.487  11.910 -0.8659  0.0448 -0.2673
 8183TIP3   OH245963   2.905   0.801  15.033 -0.1390  0.2056 -0.0186
 8183TIP3    H145964   2.879   0.777  14.944  0.3191  1.2332 -0.4387
 8183TIP3    H245965   2.924   0.895  15.027 -1.3536  0.5648  1.4408
 8184TIP3   OH245966   1.887   5.699   5.911 -0.2638 -0.0315 -0.4891
 8184TIP3    H145967   1.961   5.753   5.937 -0.3702 -0.7415  1.3816
 8184TIP3    H245968   1.893   5.694   5.816  1.1508  1.2425 -0.4832
 8185TIP3   OH245969   3.870   4.758  14.178 -0.0861  0.5619 -0.1257
 8185TIP3    H145970   3.783   4.717  14.175  0.0978  0.1904 -0.5568
 8185TIP3    H245971   3.915   4.722  14.101  0.4593  0.7237  0.1196
 8186TIP3   OH245972   6.091   2.527  12.946  0.0026  0.3456 -0.1723
 8186TIP3    H145973   6.015   2.546  13.001  0.1612  1.8428 -0.4553
 8186TIP3    H245974   6.087   2.592  12.876  0.6179 -0.6241 -1.1233
 8187TIP3   OH245975   5.299   4.659   4.237  0.2018 -0.1981 -0.4360
 8187TIP3    H145976   5.320   4.668   4.330 -2.1295  0.7073  0.0501
 8187TIP3    H245977   5.211   4.623   4.236  0.1296 -0.0339 -2.2976
 8188TIP3   OH245978   1.512   5.822   3.848  0.2837  0.3305 -0.3767
 8188TIP3    H145979   1.435   5.873   3.872 -0.9745 -0.6051 -2.3077
 8188TIP3    H245980   1.585   5.884   3.854 -0.6346  1.2861  1.2097
 8189TIP3   OH245981   6.759   3.166  14.594  0.5896 -0.0143  0.2748
 8189TIP3    H145982   6.826   3.198  14.655 -0.1442  0.8116  0.6425
 8189TIP3    H245983   6.778   3.212  14.512  1.8459 -1.4465 -0.2691
 8190TIP3   OH245984   5.881   1.636   0.611 -0.4569 -0.5658  0.3152
 8190TIP3    H145985   5.809   1.617   0.672 -1.6484  1.2761 -0.4761
 8190TIP3    H245986   5.944   1.685   0.663 -0.0429 -1.6367  0.8450
 8191TIP3   OH245987   1.996   4.475  14.160  0.9465 -0.0543  0.1623
 8191TIP3    H145988   1.938   4.419  14.110  0.8313  0.8900 -0.7777
 8191TIP3    H245989   2.046   4.523  14.094 -0.5134  2.5802  0.8917
 8192TIP3   OH245990   5.935   2.415   0.358 -0.1340  0.0797  0.4016
 8192TIP3    H145991   5.906   2.368   0.280 -0.1792  0.2653  0.3074
 8192TIP3    H245992   5.999   2.478   0.326 -0.1090  0.1167  0.5233
 8193TIP3   OH245993   0.321   1.903  16.312 -0.0893  0.5864  0.0759
 8193TIP3    H145994   0.408   1.922  16.346 -0.7656 -0.6763  2.6884
 8193TIP3    H245995   0.334   1.834  16.247  1.0176  1.5274 -0.7209
 8194TIP3   OH245996   0.164   1.895  14.679  0.2333 -0.0695 -0.5610
 8194TIP3    H145997   0.201   1.811  14.705  1.5598  1.3375  2.3764
 8194TIP3    H245998   0.236   1.941  14.636 -0.2462 -0.1087 -1.4171
 8195TIP3   OH245999   0.432   3.596  11.072  0.2016 -0.4322 -0.3831
 8195TIP3    H146000   0.340   3.587  11.047  0.3241 -1.3521 -0.5218
 8195TIP3    H246001   0.430   3.625  11.163 -0.2423  2.0932 -1.1600
 8196TIP3   OH246002   1.518   1.429  12.744 -0.1396 -0.0588  0.3821
 8196TIP3    H146003   1.486   1.467  12.662  0.8468 -2.1520 -0.9862
 8196TIP3    H246004   1.571   1.499  12.783  0.6140  0.4422 -1.4785
 8197TIP3   OH246005   5.029   4.582  15.616  0.2387  0.7967  0.0399
 8197TIP3    H146006   5.079   4.608  15.539  1.3185 -1.0480  0.0812
 8197TIP3    H246007   4.974   4.510  15.586  2.5711 -1.7458  1.5031
 8198TIP3   OH246008   1.061   2.529   5.497 -0.3902  0.4655 -0.7560
 8198TIP3    H146009   1.076   2.588   5.571  0.3646 -0.8038  0.1125
 8198TIP3    H246010   1.025   2.586   5.429  2.3324  2.3585 -0.6888
 8199TIP3   OH246011   6.171   3.382   2.765 -0.9643 -0.3582 -0.2932
 8199TIP3    H146012   6.078   3.379   2.741 -0.6307  0.5861 -1.7507
 8199TIP3    H246013   6.197   3.473   2.752  0.2584 -0.6852 -0.2526
 8200TIP3   OH246014   0.627   1.703   5.520  0.2263  1.0184 -0.4444
 8200TIP3    H146015   0.643   1.797   5.524 -0.6358  1.1597 -0.2901
 8200TIP3    H246016   0.549   1.689   5.574 -0.1357  0.3295 -1.1306
 8201TIP3   OH246017   2.247   2.389  14.105  0.8010 -0.1319  0.1621
 8201TIP3    H146018   2.197   2.315  14.072  0.4669 -0.0501  0.4792
 8201TIP3    H246019   2.310   2.410  14.035  1.3773 -1.1640  0.3633
 8202TIP3   OH246020   2.192   5.728  13.272  0.2728 -0.3948 -0.2118
 8202TIP3    H146021   2.139   5.655  13.305 -0.7630  0.8205  0.8615
 8202TIP3    H246022   2.138   5.769  13.205  0.4818 -0.0522 -0.1718
 8203TIP3   OH246023   1.972   4.042   4.754 -0.4983 -0.4250 -0.1410
 8203TIP3    H146024   1.949   4.005   4.669 -0.6144 -0.0732 -0.2658
 8203TIP3    H246025   1.997   4.132   4.734 -0.9099 -0.2263  0.2487
 8204TIP3   OH246026   3.824   1.399  15.117 -0.5433  0.0658  0.1320
 8204TIP3    H146027   3.776   1.359  15.044  0.6067 -1.4238  0.1819
 8204TIP3    H246028   3.819   1.493  15.099 -2.1648 -0.1510 -0.6774
 8205TIP3   OH246029   3.446   1.435   0.870 -0.0671 -0.2406  0.7840
 8205TIP3    H146030   3.382   1.504   0.854 -1.5076 -1.6244  0.5302
 8205TIP3    H246031   3.482   1.414   0.784  0.9858  0.7397  0.9604
 8206TIP3   OH246032   0.219   3.422  11.406 -0.2645 -0.5406 -0.0096
 8206TIP3    H146033   0.153   3.486  11.379 -1.0534 -1.2173  0.2882
 8206TIP3    H246034   0.174   3.368  11.471  0.9039 -0.3755  0.9441
 8207TIP3   OH246035   1.265   1.047   1.589  0.3650 -0.1295  0.4488
 8207TIP3    H146036   1.311   1.069   1.508  0.4467 -1.1525  0.2143
 8207TIP3    H246037   1.263   0.951   1.590 -0.2195 -0.1084  1.3277
 8208TIP3   OH246038   1.871   1.771   1.413  0.1944  0.1404  0.3208
 8208TIP3    H146039   1.891   1.753   1.321  0.1146  0.0693  0.3176
 8208TIP3    H246040   1.956   1.794   1.452  0.1407  0.7149  0.1025
 8209TIP3   OH246041   4.960   5.300  15.566 -1.1895 -0.0507  0.4885
 8209TIP3    H146042   4.919   5.340  15.489  1.0755 -0.3223 -0.9043
 8209TIP3    H246043   4.944   5.207  15.557  1.1934 -0.3534 -1.0089
 8210TIP3   OH246044   1.447   2.481   2.420 -0.4122  0.1283  0.5512
 8210TIP3    H146045   1.509   2.510   2.487 -0.6186 -2.1959  1.7940
 8210TIP3    H246046   1.469   2.533   2.343  2.3076  0.1805  1.3240
 8211TIP3   OH246047   0.379   1.591   1.434  0.1208 -0.6758  0.1608
 8211TIP3    H146048   0.458   1.562   1.388 -0.2901 -1.2848 -0.1661
 8211TIP3    H246049   0.384   1.687   1.432 -1.4331 -0.5837 -3.9150
 8212TIP3   OH246050   3.074   2.741   6.248  0.3988  0.3866  0.6256
 8212TIP3    H146051   3.140   2.679   6.278  0.8020 -0.2324 -1.4815
 8212TIP3    H246052   2.990   2.697   6.267  0.6516 -0.1958  0.3996
 8213TIP3   OH246053   6.447   4.115  14.872  0.4567  0.9672 -0.2033
 8213TIP3    H146054   6.369   4.081  14.826 -0.4092  1.0927  1.1442
 8213TIP3    H246055   6.441   4.077  14.960  3.4515 -1.2801 -0.9152
 8214TIP3   OH246056   0.058   4.418   0.959 -0.3083 -0.4837 -0.7635
 8214TIP3    H146057   0.052   4.462   0.874 -1.3376 -0.9914 -0.9602
 8214TIP3    H246058   0.151   4.394   0.967  0.4437  2.4168 -0.2715
 8215TIP3   OH246059   0.116   4.755  15.374 -0.1503  0.1668  0.3046
 8215TIP3    H146060   0.028   4.729  15.346 -0.1170  1.8216 -1.4211
 8215TIP3    H246061   0.104   4.839  15.417  0.7455  1.0672 -1.1616
 8216TIP3   OH246062   4.613   1.271   3.012  0.5345 -0.6608 -0.6506
 8216TIP3    H146063   4.610   1.179   2.988  0.2107 -0.6768 -0.5476
 8216TIP3    H246064   4.624   1.317   2.929  0.6543 -0.7888 -0.7057
 8217TIP3   OH246065   5.918   1.060   2.121  0.3108 -0.0873 -0.3231
 8217TIP3    H146066   5.944   1.149   2.146 -0.5457 -0.2092  1.0280
 8217TIP3    H246067   6.001   1.016   2.103  0.8432  0.5469  0.4835
 8218TIP3   OH246068   3.062   0.721   0.187  0.2047 -0.1139 -0.2386
 8218TIP3    H146069   3.003   0.698   0.115 -0.4903 -0.4837  0.4459
 8218TIP3    H246070   3.067   0.642   0.241 -2.1983  1.2460  2.1241
 8219TIP3   OH246071   2.101   3.315  13.519  0.2493  0.1740 -0.3844
 8219TIP3    H146072   2.105   3.240  13.577  0.2861 -0.4868 -1.2298
 8219TIP3    H246073   2.192   3.328  13.490  0.4062  1.1510  0.5168
 8220TIP3   OH246074   5.497   3.376   6.254 -0.2143  0.3140 -0.3330
 8220TIP3    H146075   5.525   3.291   6.219 -1.5906  0.2904 -1.3984
 8220TIP3    H246076   5.453   3.354   6.336 -0.7709 -0.0349 -0.7184
 8221TIP3   OH246077   2.241   3.341  13.140 -0.0855  0.0876  0.1283
 8221TIP3    H146078   2.289   3.259  13.153  1.0758  0.5935 -0.9042
 8221TIP3    H246079   2.251   3.388  13.223 -2.9511 -1.8856  1.6948
 8222TIP3   OH246080   0.671   4.138  16.440 -0.3344 -0.0263 -0.3891
 8222TIP3    H146081   0.582   4.105  16.430 -0.4285  0.3905 -0.9681
 8222TIP3    H246082   0.714   4.116  16.357  0.2796 -0.7628  0.1235
 8223TIP3   OH246083   1.029   5.659  11.719  0.1295 -0.5836  0.2396
 8223TIP3    H146084   0.947   5.662  11.671 -1.4980 -1.5283  2.8491
 8223TIP3    H246085   1.083   5.596  11.671  0.5796  2.3143 -3.2761
 8224TIP3   OH246086   0.800   5.571   3.988  0.2311  0.8761  1.0281
 8224TIP3    H146087   0.866   5.517   3.945  1.0888  2.0785  0.8309
 8224TIP3    H246088   0.781   5.640   3.924 -0.4357  1.1448  1.5149
 8225TIP3   OH246089   4.462   1.175  15.244  0.7452  1.0601  1.1072
 8225TIP3    H146090   4.395   1.234  15.279 -0.7680 -1.3621  2.4826
 8225TIP3    H246091   4.418   1.125  15.176  1.3944  0.0484  1.4123
 8226TIP3   OH246092   4.459   2.102   3.040 -0.4026 -0.4212  0.4018
 8226TIP3    H146093   4.448   2.175   3.101 -2.2043  0.8693 -1.4197
 8226TIP3    H246094   4.451   2.024   3.096  1.6400  0.7191  2.3724
 8227TIP3   OH246095   1.061   1.595   3.904 -0.2493 -0.0305 -0.4504
 8227TIP3    H146096   1.137   1.541   3.923  0.1458  0.5335 -0.4130
 8227TIP3    H246097   1.049   1.649   3.982  0.4260  1.1667 -1.1468
 8228TIP3   OH246098   2.519   2.879   4.337  0.3960 -0.0570 -0.0233
 8228TIP3    H146099   2.487   2.854   4.424 -0.0002  1.7258  0.3647
 8228TIP3    H246100   2.598   2.827   4.324  1.1588  0.5927  1.9336
 8229TIP3   OH246101   5.761   2.313   4.742  0.2973  0.5173 -0.0976
 8229TIP3    H146102   5.763   2.228   4.785  0.3341  0.2885 -0.5448
 8229TIP3    H246103   5.841   2.315   4.690 -0.6132  0.0541 -1.5461
 8230TIP3   OH246104   3.304   1.591  15.592  0.5336  0.1244 -0.0932
 8230TIP3    H146105   3.242   1.519  15.596  1.6901 -1.0006 -1.9281
 8230TIP3    H246106   3.329   1.606  15.683 -1.0307 -0.6238  0.4714
 8231TIP3   OH246107   6.432   0.908  12.787  0.2581 -0.0506 -0.5160
 8231TIP3    H146108   6.494   0.887  12.717  0.1795  2.1221 -1.2648
 8231TIP3    H246109   6.353   0.937  12.742 -1.1816 -2.3800  0.4492
 8232TIP3   OH246110   3.655   1.262  11.561  0.0274  0.0210 -0.3227
 8232TIP3    H146111   3.694   1.283  11.646  1.1195 -0.7465 -0.6152
 8232TIP3    H246112   3.647   1.346  11.517  0.5639  0.2876  0.0827
 8233TIP3   OH246113   0.126   4.094  11.744  0.1362 -0.7669 -0.1743
 8233TIP3    H146114   0.131   4.003  11.713  0.8225 -0.3057 -1.4598
 8233TIP3    H246115   0.201   4.137  11.703  0.8453 -0.0321  1.8668
 8234TIP3   OH246116   0.293   6.754  13.427  0.8361  0.5596  0.2951
 8234TIP3    H146117   0.325   6.726  13.513  1.6571  1.8470  0.4349
 8234TIP3    H246118   0.210   6.708  13.416  1.3912 -0.7003  1.1633
 8235TIP3   OH246119   3.437   1.912   1.055 -0.1251  0.1473  0.5862
 8235TIP3    H146120   3.475   1.990   1.097 -0.8349  1.6349 -1.4478
 8235TIP3    H246121   3.489   1.901   0.975 -2.5600  0.9282 -1.1555
 8236TIP3   OH246122   0.639   4.808  15.978 -0.3475  0.0512  0.0828
 8236TIP3    H146123   0.704   4.853  15.924 -0.6209  0.4193  0.0618
 8236TIP3    H246124   0.691   4.761  16.043 -0.0046 -0.5182 -0.5906
 8237TIP3   OH246125   5.835   6.539   3.107  0.0270  0.3772  0.1429
 8237TIP3    H146126   5.917   6.554   3.153  0.3037  0.2520 -0.3063
 8237TIP3    H246127   5.841   6.592   3.028 -1.5112  2.6235  1.4528
 8238TIP3   OH246128   4.300   3.359  14.830  0.0895 -0.4835 -0.1991
 8238TIP3    H146129   4.254   3.327  14.908 -0.0592  0.9069  0.2921
 8238TIP3    H246130   4.385   3.387  14.862  0.4904 -1.0658 -0.7497
 8239TIP3   OH246131   4.612   4.901   3.931  0.1642 -0.3171 -0.5801
 8239TIP3    H146132   4.575   4.828   3.980  0.7407 -0.9887 -1.1408
 8239TIP3    H246133   4.611   4.872   3.840 -0.5537  0.7744 -0.9338
 8240TIP3   OH246134   3.430   2.932  15.574  0.8389  0.5758 -0.1167
 8240TIP3    H146135   3.443   2.901  15.663  1.2423 -0.0737 -0.3988
 8240TIP3    H246136   3.502   2.992  15.557 -0.6457  2.6921  0.8779
 8241TIP3   OH246137   5.677   6.006   5.423  0.5956 -0.4771  0.5869
 8241TIP3    H146138   5.607   6.008   5.358  1.2390 -2.9039 -0.2721
 8241TIP3    H246139   5.643   5.951   5.494  0.8089  0.1369  1.1672
 8242TIP3   OH246140   3.431   1.848   1.630 -0.0878  0.1544 -0.2227
 8242TIP3    H146141   3.460   1.799   1.552  1.0031 -1.3651  1.1170
 8242TIP3    H246142   3.350   1.890   1.602  1.0220  0.8053 -2.6392
 8243TIP3   OH246143   2.705   6.390  15.163 -0.1766  0.2284  0.0163
 8243TIP3    H146144   2.666   6.392  15.250 -1.1301  0.4128 -0.4128
 8243TIP3    H246145   2.698   6.480  15.131 -0.6571 -0.0369 -0.6221
 8244TIP3   OH246146   6.067   3.367  11.921  0.2545 -0.2203  0.4175
 8244TIP3    H146147   6.022   3.293  11.962 -1.9355  1.0604  0.4473
 8244TIP3    H246148   6.019   3.381  11.839  1.5734  0.2410 -0.2801
 8245TIP3   OH246149   4.822   4.388   4.976  0.3976  0.4077 -0.1457
 8245TIP3    H146150   4.758   4.323   5.004 -1.6064  1.4726 -2.1282
 8245TIP3    H246151   4.857   4.354   4.894 -1.2326  2.1222 -1.6090
 8246TIP3   OH246152   1.932   4.421   1.717 -0.7181 -0.4168 -0.2391
 8246TIP3    H146153   2.001   4.430   1.652  1.8456  0.7220  2.5359
 8246TIP3    H246154   1.911   4.511   1.743  0.0097 -0.9023  2.1954
 8247TIP3   OH246155   6.623   4.526   5.076 -0.0325  0.7691 -0.1091
 8247TIP3    H146156   6.666   4.581   5.010  0.9197  1.2205  0.8699
 8247TIP3    H246157   6.693   4.503   5.138 -0.6682 -0.5866  0.1357
 8248TIP3   OH246158   2.689   2.901   3.446  0.2427  0.1656  0.0700
 8248TIP3    H146159   2.654   2.990   3.436  1.8913  0.6751 -1.3810
 8248TIP3    H246160   2.652   2.870   3.529 -0.8599  1.9616  0.2812
 8249TIP3   OH246161   2.786   3.939  13.689  0.2760  0.1666 -0.0685
 8249TIP3    H146162   2.862   3.930  13.631 -1.2620 -1.1103 -1.9312
 8249TIP3    H246163   2.810   3.890  13.768  0.4805 -2.2860 -1.5949
 8250TIP3   OH246164   6.319   5.034   0.088  0.6655 -0.3170 -0.3478
 8250TIP3    H146165   6.281   5.101   0.031  0.3290  1.7401  2.1910
 8250TIP3    H246166   6.287   4.951   0.052  0.0666  0.9384 -2.8265
 8251TIP3   OH246167   3.753   5.492  12.284  0.1543  0.1990 -0.1641
 8251TIP3    H146168   3.746   5.497  12.189 -0.0225  2.3655 -0.0512
 8251TIP3    H246169   3.840   5.457  12.300  0.1441 -0.2735 -1.1122
 8252TIP3   OH246170   0.889   6.270   1.037  0.2656 -0.9311  0.3013
 8252TIP3    H146171   0.859   6.262   1.127 -1.1380 -2.3845 -0.2629
 8252TIP3    H246172   0.975   6.312   1.043 -0.4455  0.3048  2.1959
 8253TIP3   OH246173   6.085   0.284  15.959  0.2122 -0.0472 -0.0704
 8253TIP3    H146174   6.174   0.250  15.967  0.3452  0.2167 -0.4351
 8253TIP3    H246175   6.047   0.235  15.886  0.2790  0.3184 -0.3494
 8254TIP3   OH246176   6.092   1.710   2.094 -0.0155  0.0091 -0.1254
 8254TIP3    H146177   6.026   1.712   2.024  1.6294  0.7559 -1.6843
 8254TIP3    H246178   6.116   1.618   2.101 -0.7599 -0.1772 -0.0091
 8255TIP3   OH246179   0.125   2.092  14.942  0.2372 -0.5648  0.6378
 8255TIP3    H146180   0.214   2.061  14.960  1.2304  2.0003  0.3978
 8255TIP3    H246181   0.136   2.160  14.876 -2.0630 -1.0827 -0.3350
 8256TIP3   OH246182   0.589   4.563   0.419  0.4505 -0.1322 -0.4438
 8256TIP3    H146183   0.544   4.648   0.426  0.7935 -0.0795  1.2451
 8256TIP3    H246184   0.668   4.582   0.369  0.3557  0.4864 -0.3702
 8257TIP3   OH246185   4.384   1.354   3.833 -0.6668  0.0697 -0.0811
 8257TIP3    H146186   4.300   1.311   3.819  0.7471 -3.0707  0.6035
 8257TIP3    H246187   4.369   1.414   3.906 -1.9431 -1.6053  1.0502
 8258TIP3   OH246188   2.818   1.863  13.489  0.1929 -0.2240  0.5326
 8258TIP3    H146189   2.905   1.903  13.494 -0.7104  1.7472  0.6833
 8258TIP3    H246190   2.832   1.783  13.438  2.0133  0.2944  0.1784
 8259TIP3   OH246191   0.439   2.748   5.154 -0.0400  0.4254  0.1507
 8259TIP3    H146192   0.471   2.825   5.107  1.7148  0.3140  1.1070
 8259TIP3    H246193   0.374   2.783   5.215 -2.4132  0.5528 -2.3729
 8260TIP3   OH246194   1.615   6.073   1.001  0.0925 -0.6381  0.2410
 8260TIP3    H146195   1.576   6.155   0.970  1.0203  0.0345  0.8562
 8260TIP3    H246196   1.666   6.042   0.927 -0.1300 -0.5854  0.0628
 8261TIP3   OH246197   6.449   1.756  15.174 -0.2029  0.2572 -0.1679
 8261TIP3    H146198   6.465   1.810  15.096 -2.0014 -1.1789 -1.5654
 8261TIP3    H246199   6.480   1.669  15.150  0.7132  0.1478  1.3271
 8262TIP3   OH246200   1.362   1.565  15.426  0.1608  0.1410  0.6503
 8262TIP3    H146201   1.337   1.511  15.351 -1.6979 -0.6727  1.8368
 8262TIP3    H246202   1.350   1.655  15.395 -0.7317 -0.1848  0.0121
 8263TIP3   OH246203   4.358   0.410  12.169 -0.1454  0.3269 -0.2701
 8263TIP3    H146204   4.349   0.415  12.264 -1.0433  3.1631 -0.4284
 8263TIP3    H246205   4.271   0.382  12.138 -0.5055  1.4723 -0.3364
 8264TIP3   OH246206   1.395   3.802  12.721 -0.8593 -0.0215  0.5261
 8264TIP3    H146207   1.440   3.865  12.664 -0.3558 -1.1208 -0.3101
 8264TIP3    H246208   1.465   3.756  12.766 -1.2435  0.3760  1.5494
 8265TIP3   OH246209   5.880   3.587   3.884  0.1165  0.5859 -0.2750
 8265TIP3    H146210   5.812   3.522   3.866  1.0412 -0.0947 -1.3314
 8265TIP3    H246211   5.838   3.671   3.865 -0.6127  0.2115 -0.3604
 8266TIP3   OH246212   5.973   4.849  13.843 -0.2033  0.0103 -0.0095
 8266TIP3    H146213   6.047   4.788  13.853  0.3033  0.5356 -0.5225
 8266TIP3    H246214   5.912   4.803  13.785  0.3446  0.1333 -0.6938
 8267TIP3   OH246215   0.569   5.444   0.576  0.3470  0.0652 -0.3437
 8267TIP3    H146216   0.488   5.446   0.526  1.2673 -0.4596 -1.8922
 8267TIP3    H246217   0.588   5.351   0.588  0.0159  0.1915  1.1784
 8268TIP3   OH246218   5.344   2.180  16.347  0.2890  0.3885 -0.5151
 8268TIP3    H146219   5.308   2.172  16.259 -1.2038 -0.0799  0.1224
 8268TIP3    H246220   5.298   2.255  16.385  0.0028 -0.1881  0.2891
 8269TIP3   OH246221   0.183   1.429  13.877  0.6142 -0.1939 -0.4470
 8269TIP3    H146222   0.103   1.377  13.872  1.6786 -1.7348 -2.1747
 8269TIP3    H246223   0.253   1.365  13.886  1.8298  1.0183 -1.0774
 8270TIP3   OH246224   4.173   6.587  16.975 -0.2644 -0.4871  0.3168
 8270TIP3    H146225   4.174   6.491  16.966 -1.0345 -0.5511  0.8093
 8270TIP3    H246226   4.255   6.608  17.020 -0.0253 -0.9019  0.0801
 8271TIP3   OH246227   3.033   5.587   6.037  0.1031 -0.2317 -0.1008
 8271TIP3    H146228   2.997   5.638   6.110 -1.2167 -1.6006  0.2194
 8271TIP3    H246229   3.128   5.598   6.045 -0.1093  1.0608  0.7741
 8272TIP3   OH246230   6.282   2.165   0.385  0.3618  0.5685 -0.0880
 8272TIP3    H146231   6.325   2.179   0.301  0.4084  1.0671  0.0152
 8272TIP3    H246232   6.270   2.253   0.420  0.7543  0.3423  0.6283
 8273TIP3   OH246233   1.300   4.838   3.500  0.7184 -0.4528 -0.0275
 8273TIP3    H146234   1.389   4.855   3.471  0.7627 -0.9572 -0.1946
 8273TIP3    H246235   1.298   4.744   3.519  0.6411 -0.1508  1.4620
 8274TIP3   OH246236   2.100   1.157   4.098 -0.2232  0.6623 -0.0181
 8274TIP3    H146237   2.110   1.117   4.185  0.1806 -0.9750 -0.7963
 8274TIP3    H246238   2.008   1.180   4.093 -1.0729 -2.6084 -0.5406
 8275TIP3   OH246239   0.447   1.132   4.155  0.6768  0.2277 -0.0237
 8275TIP3    H146240   0.357   1.103   4.144  0.7125  0.2785 -0.4506
 8275TIP3    H246241   0.440   1.219   4.196  0.5001  0.7201 -1.0843
 8276TIP3   OH246242   4.788   2.525  13.040  0.3942 -1.0135  0.0490
 8276TIP3    H146243   4.720   2.547  13.104 -0.6813  0.0096 -1.3899
 8276TIP3    H246244   4.785   2.430  13.033 -1.6032 -0.9234 -0.7071
 8277TIP3   OH246245   1.169   1.109  14.679  0.1258  0.4549 -0.4515
 8277TIP3    H146246   1.197   1.020  14.660 -1.2795 -0.3531  1.1509
 8277TIP3    H246247   1.241   1.164  14.649  2.2310 -1.3745  1.1112
 8278TIP3   OH246248   4.006   0.031  13.690  0.0181  0.1354 -0.2727
 8278TIP3    H146249   3.940   0.068  13.631 -1.9002 -2.6881  0.0415
 8278TIP3    H246250   4.047  -0.039  13.639 -0.2379 -0.9731  1.0112
 8279TIP3   OH246251   4.391   4.260   0.359 -0.1460  0.6357 -0.5087
 8279TIP3    H146252   4.434   4.182   0.323  0.1731  0.0110  1.1712
 8279TIP3    H246253   4.300   4.251   0.332  0.1684  0.3910 -1.5006
 8280TIP3   OH246254   0.374   0.868   2.526  0.2749  0.9081 -0.0239
 8280TIP3    H146255   0.450   0.923   2.545  0.6243  0.2495  0.4856
 8280TIP3    H246256   0.361   0.816   2.605 -0.9044  1.2397  0.0158
 8281TIP3   OH246257   2.947   0.278  12.827 -0.4024 -0.0132 -0.1397
 8281TIP3    H146258   2.903   0.278  12.742  0.3411  1.6727 -0.5251
 8281TIP3    H246259   2.915   0.198  12.869 -0.2389 -1.2482 -2.2731
 8282TIP3   OH246260   5.258   5.139   4.841  0.5113 -0.1350 -0.1199
 8282TIP3    H146261   5.275   5.139   4.935 -2.1217 -1.6953  0.4062
 8282TIP3    H246262   5.259   5.231   4.816  1.2753  0.2907  1.4202
 8283TIP3   OH246263   0.742   3.338  15.165 -0.2646  0.1380  0.2993
 8283TIP3    H146264   0.703   3.251  15.153 -0.3581  0.1760  0.3345
 8283TIP3    H246265   0.834   3.325  15.141 -0.3287  0.0841  0.0759
 8284TIP3   OH246266   2.873   5.188  13.526 -0.0347  0.3443  0.1394
 8284TIP3    H146267   2.923   5.243  13.465  1.4643  1.1696  2.0399
 8284TIP3    H246268   2.858   5.106  13.479  0.3899  1.2527 -1.6105
 8285TIP3   OH246269   4.749   2.835  16.453  0.0748 -0.1960  0.0735
 8285TIP3    H146270   4.723   2.801  16.539  1.0884  0.2583  0.5638
 8285TIP3    H246271   4.694   2.787  16.391 -1.5845  0.3861  1.0503
 8286TIP3   OH246272   6.446   0.157  15.561 -0.1686 -0.5249 -0.3305
 8286TIP3    H146273   6.373   0.218  15.557  0.4612  0.2032 -0.8316
 8286TIP3    H246274   6.406   0.072  15.578 -0.9416  0.2656  1.9159
 8287TIP3   OH246275   5.340   3.306   3.752 -0.4826 -0.2976  0.6676
 8287TIP3    H146276   5.252   3.287   3.721 -0.1968  0.1317 -0.4253
 8287TIP3    H246277   5.327   3.355   3.834 -1.2744  0.6860 -0.0413
 8288TIP3   OH246278   6.107   6.572  16.937 -0.3610  0.1794 -0.6046
 8288TIP3    H146279   6.060   6.492  16.913 -0.3919  0.5616 -1.8146
 8288TIP3    H246280   6.108   6.625  16.858 -0.0954  1.2710  0.1141
 8289TIP3   OH246281   5.308   5.349  12.897 -0.1727  0.0266  0.1720
 8289TIP3    H146282   5.241   5.415  12.882 -0.7257 -0.8766 -1.5389
 8289TIP3    H246283   5.259   5.268  12.914  0.4628 -0.5658 -0.7529
 8290TIP3   OH246284   5.656   5.891  15.556  0.4888  0.3535 -0.3448
 8290TIP3    H146285   5.630   5.830  15.487  0.5138 -0.0173 -0.0279
 8290TIP3    H246286   5.577   5.943  15.573 -0.1075 -0.8836  0.7368
 8291TIP3   OH246287   0.012   6.295  13.401  0.1811 -0.1431 -0.1460
 8291TIP3    H146288   0.074   6.307  13.473  0.1061 -1.9768  0.2576
 8291TIP3    H246289   0.039   6.359  13.335  1.2753  0.4216  0.8274
 8292TIP3   OH246290   6.610   3.775  13.570  0.0118 -0.0509  0.7095
 8292TIP3    H146291   6.631   3.683  13.586  0.3355  0.0149  0.6597
 8292TIP3    H246292   6.662   3.800  13.494  0.0773  0.2282  0.8416
 8293TIP3   OH246293   3.175   2.468   4.943 -0.4277 -0.5765  0.6320
 8293TIP3    H146294   3.170   2.519   5.024  2.1259 -0.9745  1.0825
 8293TIP3    H246295   3.268   2.464   4.922 -0.8168 -2.6023 -0.9789
 8294TIP3   OH246296   2.560   4.494   6.187 -0.1061 -0.3660 -0.0168
 8294TIP3    H146297   2.634   4.509   6.245 -0.3291 -0.8166  0.3873
 8294TIP3    H246298   2.483   4.499   6.244 -0.2952 -1.3062 -0.1688
 8295TIP3   OH246299   3.375   2.138   3.958  0.4915  0.1316 -0.1962
 8295TIP3    H146300   3.465   2.151   3.987 -0.2100  1.1477  1.6143
 8295TIP3    H246301   3.363   2.200   3.886  0.4174  1.9861  1.3804
 8296TIP3   OH246302   2.358   6.381  13.774 -0.0780  0.1295 -0.0234
 8296TIP3    H146303   2.329   6.371  13.865 -2.5702  2.4736 -0.4851
 8296TIP3    H246304   2.452   6.362  13.777  0.3702  2.3199  3.4620
 8297TIP3   OH246305   2.782   0.868   5.097 -0.5562 -0.1337 -0.0025
 8297TIP3    H146306   2.851   0.911   5.046 -0.8464  1.2487  0.7333
 8297TIP3    H246307   2.707   0.927   5.089 -0.2953  0.6475  2.8262
 8298TIP3   OH246308   6.443   4.488  11.957  0.3109  0.0803  0.6519
 8298TIP3    H146309   6.415   4.409  12.004 -1.2195  0.4314  0.3438
 8298TIP3    H246310   6.432   4.559  12.020 -2.7195  0.7043 -0.4954
 8299TIP3   OH246311   6.663   2.036  13.776  0.0352 -0.3472 -0.4872
 8299TIP3    H146312   6.600   2.107  13.786  2.0060  1.1272  2.0873
 8299TIP3    H246313   6.611   1.956  13.775 -1.8502  0.8390  1.5957
 8300TIP3   OH246314   0.814   0.728   5.517 -0.5718 -0.7587 -0.1579
 8300TIP3    H146315   0.752   0.791   5.479 -2.0185 -1.8809  0.3364
 8300TIP3    H246316   0.766   0.646   5.522  0.1120 -1.0137  2.6889
 8301TIP3   OH246317   0.992   3.618   3.929 -0.2882  0.1210  0.3331
 8301TIP3    H146318   1.043   3.608   4.009 -0.6918  0.6010  0.6538
 8301TIP3    H246319   0.938   3.538   3.925  0.7233 -0.5360 -0.1805
 8302TIP3   OH246320   2.292   3.621   4.967  0.4321  0.4247 -0.9852
 8302TIP3    H146321   2.282   3.545   5.024 -1.0823  0.6741 -0.8747
 8302TIP3    H246322   2.328   3.587   4.886  0.6199 -0.2692 -0.6087
 8303TIP3   OH246323   3.983   2.874   2.296 -0.2100  0.2733 -0.3485
 8303TIP3    H146324   4.042   2.858   2.222  1.5741 -1.1687  1.3253
 8303TIP3    H246325   3.907   2.820   2.278  0.5313 -0.6457 -0.7689
 8304TIP3   OH246326   5.901   5.635  11.656  0.7917  0.3946  0.4009
 8304TIP3    H146327   5.916   5.541  11.641  0.1334  0.4520 -0.6452
 8304TIP3    H246328   5.867   5.668  11.573 -0.2431  1.2890  1.1643
 8305TIP3   OH246329   6.067   6.529   4.856 -0.3828 -0.6427  0.6653
 8305TIP3    H146330   6.082   6.462   4.923  0.0430  1.4540  2.7709
 8305TIP3    H246331   6.143   6.587   4.863 -1.2542  0.6516 -0.3423
 8306TIP3   OH246332   0.429   4.219   4.810  0.0191  0.6429  0.0827
 8306TIP3    H146333   0.410   4.295   4.755 -0.1338  1.0469  0.6858
 8306TIP3    H246334   0.524   4.219   4.819 -0.0270  1.2140  0.6963
 8307TIP3   OH246335   2.757   5.838   0.177  0.0597  0.1244 -0.2167
 8307TIP3    H146336   2.845   5.804   0.191  0.1836  0.1347 -0.9639
 8307TIP3    H246337   2.764   5.932   0.195  0.0999  0.0499  0.1550
 8308TIP3   OH246338   0.539   4.259  12.715  0.0979 -0.2950  0.3938
 8308TIP3    H146339   0.544   4.187  12.778 -1.7196 -0.1751  0.7170
 8308TIP3    H246340   0.448   4.290  12.722  0.6900  1.6323 -0.1697
 8309TIP3   OH246341   0.086   5.312  12.552 -0.1971  0.4064  0.4673
 8309TIP3    H146342   0.047   5.303  12.639  1.0600 -2.8108  0.7464
 8309TIP3    H246343   0.032   5.257  12.495  0.7431  0.1410 -0.1866
 8310TIP3   OH246344   3.924   3.181  13.579 -0.7616 -0.0762 -0.2276
 8310TIP3    H146345   3.973   3.192  13.661  0.8260  0.6445 -1.2444
 8310TIP3    H246346   3.834   3.200  13.602 -0.2842  0.4018  1.3039
 8311TIP3   OH246347   6.071   5.935   0.614  0.3130 -0.0315  0.1808
 8311TIP3    H146348   5.979   5.957   0.596  0.7810  2.8131  1.0698
 8311TIP3    H246349   6.090   5.864   0.552 -2.2463 -0.1367 -0.5711
 8312TIP3   OH246350   5.542   4.537   3.105 -0.0551 -0.3905  0.8797
 8312TIP3    H146351   5.588   4.463   3.065  0.4595 -0.2360  1.1766
 8312TIP3    H246352   5.451   4.508   3.112 -0.0403 -0.6334  0.1263
 8313TIP3   OH246353   3.061   5.862  11.978  1.2173  0.3080 -0.2444
 8313TIP3    H146354   3.056   5.872  12.073 -0.2763  1.7795 -0.4591
 8313TIP3    H246355   3.037   5.770  11.962 -1.2317  0.7738  0.6171
 8314TIP3   OH246356   6.052   6.204  13.404 -0.6852 -0.3620 -0.1554
 8314TIP3    H146357   6.022   6.176  13.318  0.5551 -1.9342 -0.0983
 8314TIP3    H246358   6.141   6.235  13.390 -0.4931 -0.5739  0.5507
 8315TIP3   OH246359   5.682   6.065  13.477  0.3426  0.1801  0.9367
 8315TIP3    H146360   5.674   6.001  13.406 -0.5417  1.3498 -0.0436
 8315TIP3    H246361   5.758   6.037  13.527 -0.7209 -2.3288  1.2259
 8316TIP3   OH246362   1.272   2.794   2.414 -0.4256 -0.5399  0.2226
 8316TIP3    H146363   1.320   2.718   2.381  2.4396  1.4003 -0.3207
 8316TIP3    H246364   1.260   2.850   2.337 -0.4318  0.5843  1.0241
 8317TIP3   OH246365   4.709   1.894   4.115  0.1468 -0.0386 -0.0921
 8317TIP3    H146366   4.734   1.821   4.060 -0.5218  0.8910 -1.6668
 8317TIP3    H246367   4.650   1.947   4.061 -1.6262  0.1920  1.9615
 8318TIP3   OH246368   6.104   5.915  14.745  0.2764 -0.1305 -0.2654
 8318TIP3    H146369   6.162   5.910  14.821 -1.5821  1.2214  1.2960
 8318TIP3    H246370   6.041   5.844  14.759 -1.2097  1.2864  0.5022
 8319TIP3   OH246371   6.523   0.028   3.058 -0.0786 -0.3994  0.1116
 8319TIP3    H146372   6.613   0.026   3.090  0.3358 -0.2206 -1.0065
 8319TIP3    H246373   6.482   0.100   3.106  1.0820  1.1580 -1.1587
 8320TIP3   OH246374   3.016   4.061   0.141 -0.1288 -0.3067 -0.2639
 8320TIP3    H146375   2.999   3.971   0.167 -0.6539 -1.0905 -3.1066
 8320TIP3    H246376   3.092   4.087   0.193 -0.3973 -2.1504  1.0983
 8321TIP3   OH246377   3.000   4.919   1.993 -0.9500 -0.0614  0.1740
 8321TIP3    H146378   3.044   4.893   1.912 -0.4426  0.7311  0.1946
 8321TIP3    H246379   2.985   4.836   2.039 -2.3527 -0.6458 -1.2795
 8322TIP3   OH246380   5.186   1.846   4.774  0.0705 -0.8060 -0.3801
 8322TIP3    H146381   5.171   1.912   4.841  0.0764 -1.0267 -0.1579
 8322TIP3    H246382   5.221   1.771   4.822  1.0328 -0.6123 -0.7658
 8323TIP3   OH246383   4.859   3.717  11.827 -0.0814 -0.7085  0.0955
 8323TIP3    H146384   4.825   3.646  11.773 -2.2076  1.0391 -0.9343
 8323TIP3    H246385   4.928   3.756  11.774 -1.1877  0.0880 -0.7943
 8324TIP3   OH246386   1.497   2.029  13.889  0.4146 -0.1994 -0.6141
 8324TIP3    H146387   1.437   2.098  13.858  0.2499 -0.1282 -0.1474
 8324TIP3    H246388   1.503   2.044  13.983  0.1603 -0.9971 -0.4703
 8325TIP3   OH246389   2.751   5.294   0.401 -0.7327 -0.0836  0.7923
 8325TIP3    H146390   2.812   5.357   0.439 -1.1244  0.3091  0.7770
 8325TIP3    H246391   2.680   5.348   0.365 -0.3775 -0.4408 -0.4799
 8326TIP3   OH246392   2.577   4.810  14.951 -0.0924  0.1514 -0.2585
 8326TIP3    H146393   2.527   4.892  14.946  0.9501  0.8292  0.1691
 8326TIP3    H246394   2.526   4.753  15.008 -2.2843 -0.5645 -2.8472
 8327TIP3   OH246395   1.673   2.519  12.245 -0.0714 -0.7582  0.4194
 8327TIP3    H146396   1.719   2.452  12.195  1.0795 -0.2606  0.8107
 8327TIP3    H246397   1.626   2.570  12.179 -1.1871 -2.1079  0.1406
 8328TIP3   OH246398   3.909   4.961  12.768 -0.0256  0.1558 -0.1736
 8328TIP3    H146399   3.949   5.022  12.830  1.6532 -0.8666 -0.2020
 8328TIP3    H246400   3.896   5.011  12.688  2.1878  0.2657 -0.4983
 8329TIP3   OH246401   2.398   2.438  15.048  0.4568  0.4721  0.0674
 8329TIP3    H146402   2.419   2.482  15.130 -0.4412 -1.5509  1.4169
 8329TIP3    H246403   2.324   2.381  15.069 -0.4685  0.6751 -2.3967
 8330TIP3   OH246404   5.673   0.349   3.733 -0.4413 -0.1585 -0.7247
 8330TIP3    H146405   5.753   0.387   3.698  0.6212 -2.0453 -0.4271
 8330TIP3    H246406   5.651   0.404   3.808  2.7404 -1.7565  1.5391
 8331TIP3   OH246407   5.678   2.658  16.415  0.8066  0.3959  0.5030
 8331TIP3    H146408   5.679   2.663  16.511  0.4310  0.9023  0.4870
 8331TIP3    H246409   5.686   2.565  16.396 -0.4688  0.1587  1.0603
 8332TIP3   OH246410   0.563   2.392  14.456  0.4231 -0.0204 -0.0673
 8332TIP3    H146411   0.522   2.369  14.539 -0.7535  0.2969 -0.5573
 8332TIP3    H246412   0.648   2.429  14.482 -0.2254  0.7410  1.0406
 8333TIP3   OH246413   3.428   4.537   2.199 -0.2233  1.0181  0.7338
 8333TIP3    H146414   3.371   4.613   2.199 -1.0670  0.3960 -0.2343
 8333TIP3    H246415   3.433   4.510   2.291 -2.8927  0.0451  0.6314
 8334TIP3   OH246416   1.748   6.296   3.102  0.3575  0.2693  0.1157
 8334TIP3    H146417   1.745   6.324   3.010 -0.7531  0.0356  0.0778
 8334TIP3    H246418   1.820   6.233   3.105 -0.2612 -0.5029 -0.8190
 8335TIP3   OH246419   1.924   6.031   4.029  0.2043 -0.1989 -0.2674
 8335TIP3    H146420   1.876   6.016   3.947 -0.5388  0.3388  0.0624
 8335TIP3    H246421   1.917   6.125   4.044  0.4548 -0.2735  0.3413
 8336TIP3   OH246422   4.272   5.460  16.216  0.3472  0.1197  0.5297
 8336TIP3    H146423   4.340   5.528  16.212  0.1682  0.4086  1.8398
 8336TIP3    H246424   4.195   5.501  16.177  0.1517  0.8097  1.5931
 8337TIP3   OH246425   4.256   6.147  12.334 -0.0585 -0.0229  0.1844
 8337TIP3    H146426   4.239   6.082  12.402 -0.2436  0.1067  0.2623
 8337TIP3    H246427   4.183   6.209  12.340  0.4500  0.5566  0.5435
 8338TIP3   OH246428   3.148   2.305  11.583 -0.2406  0.0874 -0.4921
 8338TIP3    H146429   3.071   2.301  11.639 -0.2117  0.1206 -0.4504
 8338TIP3    H246430   3.121   2.356  11.507  0.3904  2.0469  0.5570
 8339TIP3   OH246431   4.243   0.192   1.784  0.2258 -0.3745  0.2293
 8339TIP3    H146432   4.230   0.115   1.838  0.2836 -0.6012 -0.0796
 8339TIP3    H246433   4.235   0.160   1.694 -0.4539  0.1042  0.1134
 8340TIP3   OH246434   5.867   1.313   5.631  0.2275 -0.2405 -0.3145
 8340TIP3    H146435   5.953   1.273   5.648 -0.4219 -1.3665  0.3752
 8340TIP3    H246436   5.805   1.241   5.640 -1.0161  1.0206  1.4465
 8341TIP3   OH246437   1.501   1.379  16.503 -0.3731  0.0351 -0.6874
 8341TIP3    H146438   1.459   1.465  16.511 -1.8382 -0.3862 -3.1902
 8341TIP3    H246439   1.432   1.316  16.523  0.8608 -0.5743  1.7625
 8342TIP3   OH246440   4.817   3.140   6.527  0.3638  0.4438 -0.4070
 8342TIP3    H146441   4.881   3.187   6.580  1.1231 -1.7364  0.6602
 8342TIP3    H246442   4.733   3.161   6.567  0.7880  0.0784  0.6741
 8343TIP3   OH246443   1.249   0.692   2.138  0.5279  0.0797 -0.0630
 8343TIP3    H146444   1.284   0.725   2.055  2.1813 -0.2162  0.4821
 8343TIP3    H246445   1.214   0.770   2.181 -0.1368  0.2716 -0.9444
 8344TIP3   OH246446   3.482   6.758  13.756 -0.0029  0.1273  0.0118
 8344TIP3    H146447   3.516   6.693  13.817 -0.6740 -0.8215 -0.6119
 8344TIP3    H246448   3.474   6.838  13.808  3.6339  0.5400  0.0652
 8345TIP3   OH246449   0.985   1.598  12.007 -0.5341 -0.3071  0.5229
 8345TIP3    H146450   0.892   1.576  12.014 -0.5711 -0.0569  0.8395
 8345TIP3    H246451   0.991   1.650  11.928 -0.6945 -0.1678  0.6014
 8346TIP3   OH246452   2.795   3.479   2.604 -0.2997 -0.4174 -0.5144
 8346TIP3    H146453   2.785   3.556   2.660  2.1952 -0.9920  0.8022
 8346TIP3    H246454   2.770   3.509   2.517 -0.3933  1.5724  0.1806
 8347TIP3   OH246455   1.305   0.334   0.573 -0.1706 -0.5511 -0.0170
 8347TIP3    H146456   1.222   0.360   0.533 -0.7560 -0.1455  1.4265
 8347TIP3    H246457   1.353   0.289   0.504 -1.6697 -0.9280 -0.8089
 8348TIP3   OH246458   6.148   4.526  16.337 -0.0659  0.0539 -0.2661
 8348TIP3    H146459   6.213   4.573  16.388 -1.4367 -0.0640  1.6668
 8348TIP3    H246460   6.164   4.434  16.356  1.5045 -0.2386 -2.6902
 8349TIP3   OH246461   2.828   3.649   3.749 -0.5726  0.5032  0.0344
 8349TIP3    H146462   2.782   3.611   3.674  0.2539  2.1210 -1.3072
 8349TIP3    H246463   2.908   3.597   3.756 -1.2989 -0.5554  0.6915
 8350TIP3   OH246464   6.615   1.074  13.753  0.1593 -0.3078 -0.2799
 8350TIP3    H146465   6.594   1.105  13.665  1.4816  0.7622 -0.2297
 8350TIP3    H246466   6.647   0.984  13.740 -1.3291 -0.7903 -0.6882
 8351TIP3   OH246467   1.075   1.955   1.138  0.0273  0.3364 -0.1331
 8351TIP3    H146468   1.086   2.049   1.155 -0.7612  0.9029 -2.4679
 8351TIP3    H246469   1.157   1.929   1.097 -0.2532  0.3248 -0.6941
 8352TIP3   OH246470   5.887   2.821   0.153 -0.0891 -0.4642  0.1379
 8352TIP3    H146471   5.844   2.771   0.084  1.2296 -0.6250 -0.5975
 8352TIP3    H246472   5.862   2.912   0.136  0.1869 -0.5086 -0.5377
 8353TIP3   OH246473   5.199   4.390   6.495 -0.5259 -0.4290  0.2651
 8353TIP3    H146474   5.189   4.463   6.434 -0.8314 -0.5705  0.1458
 8353TIP3    H246475   5.203   4.312   6.439 -1.4534 -0.6187  0.4570
 8354TIP3   OH246476   6.554   2.305   3.990 -0.3612 -0.1211  0.6851
 8354TIP3    H146477   6.624   2.367   4.013  0.2046 -0.0110 -1.2416
 8354TIP3    H246478   6.601   2.224   3.968 -0.8996 -0.2879  0.1590
 8355TIP3   OH246479   5.920   4.798   4.011  0.4319 -0.0055 -0.0264
 8355TIP3    H146480   5.918   4.722   4.068 -0.9474  0.4133  0.4964
 8355TIP3    H246481   5.989   4.854   4.047  2.5200 -1.6656 -1.3132
 8356TIP3   OH246482   5.193   5.330  15.836  0.3508 -0.6317  0.5985
 8356TIP3    H146483   5.221   5.313  15.746  1.5557 -1.7813  1.1740
 8356TIP3    H246484   5.143   5.251  15.860  1.0563 -0.8543  1.3362
 8357TIP3   OH246485   1.704   3.120   0.433 -0.2160  0.1433  0.3152
 8357TIP3    H146486   1.614   3.146   0.413  0.1882  1.6485  0.4171
 8357TIP3    H246487   1.727   3.171   0.511  0.0311 -1.7660  1.5255
 8358TIP3   OH246488   3.210   5.397   3.169  0.0472  0.1722 -0.4319
 8358TIP3    H146489   3.173   5.325   3.221 -0.3851  0.8021  0.1480
 8358TIP3    H246490   3.245   5.354   3.091 -0.3101 -0.6573 -0.1511
 8359TIP3   OH246491   0.760   5.758   5.628  0.2446  0.0508  0.0909
 8359TIP3    H146492   0.786   5.817   5.558 -0.0641  0.0223 -0.0520
 8359TIP3    H246493   0.664   5.756   5.622  0.3056 -1.2421 -0.5299
 8360TIP3   OH246494   2.503   5.328  12.518 -0.5076 -0.3042 -0.2528
 8360TIP3    H146495   2.499   5.306  12.611  0.2045 -1.6133 -0.5069
 8360TIP3    H246496   2.566   5.400  12.513  0.3479 -1.0139  0.1544
 8361TIP3   OH246497   0.182   3.198   3.183 -0.0966  0.6051 -0.3196
 8361TIP3    H146498   0.095   3.202   3.144 -0.0948  2.8011 -0.1793
 8361TIP3    H246499   0.239   3.238   3.118  0.6943 -0.2247 -0.1336
 8362TIP3   OH246500   2.082   1.757   1.785  0.1251  0.9000 -0.1071
 8362TIP3    H146501   2.090   1.789   1.695  1.6965  0.3954 -0.1620
 8362TIP3    H246502   2.035   1.674   1.776  0.9940  0.4471 -0.5600
 8363TIP3   OH246503   0.751   1.069   5.398  0.0978 -0.1047 -0.6047
 8363TIP3    H146504   0.673   1.073   5.343 -0.9011 -0.4433  0.7516
 8363TIP3    H246505   0.817   1.118   5.350 -1.3178  1.2807 -1.1889
 8364TIP3   OH246506   2.124   5.904  12.301 -0.8383 -0.3515 -0.0611
 8364TIP3    H146507   2.053   5.859  12.348 -1.3049 -0.2759 -0.6920
 8364TIP3    H246508   2.170   5.834  12.256  1.8779 -0.9302  3.4067
 8365TIP3   OH246509   1.300   6.714   1.067 -0.6165 -0.4259 -1.0667
 8365TIP3    H146510   1.388   6.705   1.104 -0.9550  2.9112  0.7361
 8365TIP3    H246511   1.315   6.724   0.973  0.9392  0.2299 -0.7708
 8366TIP3   OH246512   6.603   4.570   4.763 -0.2060  0.3878  0.2970
 8366TIP3    H146513   6.564   4.648   4.802 -0.0195  0.1590  0.9480
 8366TIP3    H246514   6.685   4.600   4.724  0.5532  0.2463  1.7836
 8367TIP3   OH246515   3.236   6.581  11.413 -0.3353  0.4348 -0.3460
 8367TIP3    H146516   3.241   6.604  11.506  0.0228  0.6516 -0.4182
 8367TIP3    H246517   3.230   6.486  11.412  0.1312  0.4010 -0.1154
 8368TIP3   OH246518   3.981   3.703  16.428  0.4290 -0.2635  0.2635
 8368TIP3    H146519   4.059   3.651  16.410  0.9361  0.8157 -0.7098
 8368TIP3    H246520   3.960   3.684  16.520  3.1106  1.1020  1.2061
 8369TIP3   OH246521   4.579   5.308   1.571 -0.1688 -0.1505 -0.4312
 8369TIP3    H146522   4.672   5.306   1.596 -0.7991  2.0115  2.2276
 8369TIP3    H246523   4.570   5.389   1.522 -1.3072  1.3140  2.1368
 8370TIP3   OH246524   5.230   5.476  13.900 -0.3459  0.6596  0.4947
 8370TIP3    H146525   5.259   5.472  13.991  1.4179  0.6583 -0.0465
 8370TIP3    H246526   5.229   5.569  13.879 -1.2369  0.6927  0.6468
 8371TIP3   OH246527   2.790   3.364  14.280 -0.3561 -0.3926  0.3804
 8371TIP3    H146528   2.805   3.421  14.205 -1.6327  1.3442  1.4187
 8371TIP3    H246529   2.861   3.384  14.340 -0.7648  0.0626  0.7141
 8372TIP3   OH246530   1.330   1.497   3.986  0.3455  0.1009 -0.2238
 8372TIP3    H146531   1.375   1.554   4.049 -0.2133 -1.1070  1.2911
 8372TIP3    H246532   1.391   1.490   3.912  2.4396 -1.0946  1.5725
 8373TIP3   OH246533   0.466   1.254   1.281  0.2628  0.0092 -0.0823
 8373TIP3    H146534   0.499   1.216   1.199  1.4410  0.0188  0.3877
 8373TIP3    H246535   0.524   1.328   1.299 -1.0354  1.0529 -0.1254
 8374TIP3   OH246536   4.501   5.582  13.157  0.0723  0.1250 -0.1908
 8374TIP3    H146537   4.540   5.541  13.234 -0.6272 -0.9513 -0.4124
 8374TIP3    H246538   4.411   5.600  13.182  0.0743  0.5397 -0.4759
 8375TIP3   OH246539   1.333   3.608   3.920  0.6467 -0.0880  0.4540
 8375TIP3    H146540   1.287   3.533   3.884 -0.6061  0.6624  0.4593
 8375TIP3    H246541   1.424   3.578   3.931  0.7537 -0.7744 -2.0033
 8376TIP3   OH246542   0.294   0.512   3.831 -0.0728 -0.6820  0.1928
 8376TIP3    H146543   0.307   0.605   3.815  2.0724 -0.9498  0.2079
 8376TIP3    H246544   0.206   0.494   3.797  0.0343  1.0495 -1.0968
 8377TIP3   OH246545   6.490   3.201   1.579 -0.6242 -0.1911  0.0302
 8377TIP3    H146546   6.394   3.211   1.578 -0.7080 -0.9664 -0.7062
 8377TIP3    H246547   6.508   3.151   1.658 -0.7665  0.5055  0.5088
 8378TIP3   OH246548   4.706   5.972  15.603  0.7744  0.1133 -0.5393
 8378TIP3    H146549   4.690   6.043  15.665  2.5998  0.1314 -0.0766
 8378TIP3    H246550   4.793   5.939  15.625 -0.0019 -2.2279 -0.8072
 8379TIP3   OH246551   6.271   0.748   2.773 -0.2183  0.1986 -0.0817
 8379TIP3    H146552   6.298   0.686   2.706 -0.9335  0.5797 -0.7246
 8379TIP3    H246553   6.270   0.696   2.854 -1.6528 -0.8442 -0.7512
 8380TIP3   OH246554   0.560   5.011  14.223  0.9020  0.2989  0.1475
 8380TIP3    H146555   0.608   5.089  14.195  2.5616 -1.3589 -1.8106
 8380TIP3    H246556   0.577   4.946  14.155 -2.8058 -0.9057  0.2410
 8381TIP3   OH246557   0.249   6.079  13.539 -0.1120  0.3133 -0.6370
 8381TIP3    H146558   0.174   6.119  13.495 -1.3051  1.9424  2.6846
 8381TIP3    H246559   0.318   6.145  13.534 -0.1317  0.3520 -0.4205
 8382TIP3   OH246560   0.517   3.577   0.710 -0.4736 -0.4327 -0.2014
 8382TIP3    H146561   0.448   3.551   0.771  0.7650 -0.6218  1.1570
 8382TIP3    H246562   0.566   3.497   0.694  1.1380  0.2631  1.0965
 8383TIP3   OH246563   2.903   5.446   4.707  0.1884  0.7484  0.5515
 8383TIP3    H146564   2.839   5.442   4.635  0.4022  2.3568  0.2476
 8383TIP3    H246565   2.853   5.480   4.781  0.3002  0.4394  0.7675
 8384TIP3   OH246566   5.300   4.223  14.849 -0.0590 -0.4047 -0.7996
 8384TIP3    H146567   5.296   4.145  14.904  0.6236 -0.7347 -1.2121
 8384TIP3    H246568   5.394   4.240  14.839 -0.1907 -0.0397 -1.4194
 8385TIP3   OH246569   2.777   2.947   5.445 -0.0211  0.1158  0.0346
 8385TIP3    H146570   2.688   2.921   5.472  0.1968 -1.1197 -0.3991
 8385TIP3    H246571   2.767   2.975   5.354 -0.2783  1.7183  0.5427
 8386TIP3   OH246572   5.128   1.887  15.281  0.1348  0.2756  0.4508
 8386TIP3    H146573   5.150   1.861  15.192  0.7874  2.4317 -0.0335
 8386TIP3    H246574   5.212   1.904  15.323 -0.1988 -0.1154  1.2765
 8387TIP3   OH246575   4.720   0.659  14.774 -0.1727  0.4762  0.5140
 8387TIP3    H146576   4.760   0.573  14.783  0.5472  0.8114  0.4886
 8387TIP3    H246577   4.768   0.715  14.835 -1.1744  0.6755  1.1454
 8388TIP3   OH246578   5.851   4.394   1.916 -0.5541 -0.6212  0.9309
 8388TIP3    H146579   5.831   4.473   1.867 -1.3199 -0.0999  2.0664
 8388TIP3    H246580   5.813   4.323   1.864  1.0547 -0.3600 -0.6201
 8389TIP3   OH246581   6.285   5.352   1.249 -0.8148  0.5612 -0.3418
 8389TIP3    H146582   6.267   5.284   1.184 -0.7020 -0.6248  0.8487
 8389TIP3    H246583   6.358   5.318   1.300 -0.0836  2.0394 -0.3650
 8390TIP3   OH246584   6.767   4.289   3.748 -0.0128  0.1200 -0.0193
 8390TIP3    H146585   6.741   4.263   3.836 -2.0827  0.5589 -0.4731
 8390TIP3    H246586   6.749   4.213   3.693 -0.9279  0.6313 -0.4412
 8391TIP3   OH246587   2.235   1.220   6.295 -0.5111  0.4131 -0.0008
 8391TIP3    H146588   2.250   1.129   6.323  0.9062  1.0052  1.2272
 8391TIP3    H246589   2.178   1.256   6.363  0.6479  1.0406  0.6516
 8392TIP3   OH246590   4.668   1.663   3.603 -0.3691 -0.1890  0.3555
 8392TIP3    H146591   4.632   1.720   3.672  1.8341  2.6022 -0.6761
 8392TIP3    H246592   4.619   1.688   3.524  1.4631  1.2810 -0.3653
 8393TIP3   OH246593   5.237   0.569  14.247 -0.0136  0.1855  0.3429
 8393TIP3    H146594   5.224   0.643  14.307  2.5424  1.4647 -0.5655
 8393TIP3    H246595   5.226   0.491  14.302  0.0180  1.2865  1.9657
 8394TIP3   OH246596   3.103   3.778   5.250  0.0916 -1.0112 -0.2152
 8394TIP3    H146597   3.027   3.836   5.242  0.1153 -1.2168 -2.1762
 8394TIP3    H246598   3.083   3.705   5.193  0.6518 -2.3321  1.2420
 8395TIP3   OH246599   0.864   1.337  12.468 -0.7101 -0.1504  0.4103
 8395TIP3    H146600   0.776   1.300  12.454 -1.3640  1.0962  1.1732
 8395TIP3    H246601   0.865   1.362  12.560  0.1964  0.5069  0.2285
 8396TIP3   OH246602   2.828   5.793   5.069 -0.0525  0.4154 -0.2697
 8396TIP3    H146603   2.795   5.714   5.025 -1.1912 -0.1327  1.5224
 8396TIP3    H246604   2.905   5.763   5.117  0.7452  0.8526 -1.2659
 8397TIP3   OH246605   4.946   0.301  15.310 -0.0231 -0.2630 -0.3156
 8397TIP3    H146606   5.019   0.304  15.249 -0.2421  1.3338 -0.5238
 8397TIP3    H246607   4.902   0.218  15.292  0.9353 -0.5913 -1.1313
 8398TIP3   OH246608   5.810   4.625  10.979 -0.1224 -0.2191 -0.6924
 8398TIP3    H146609   5.833   4.559  11.044 -0.4374 -0.1868 -0.5456
 8398TIP3    H246610   5.769   4.695  11.030 -1.3950 -0.6800 -1.0614
 8399TIP3   OH246611   1.323   4.816  16.709 -0.5985 -0.0564  0.0511
 8399TIP3    H146612   1.267   4.815  16.787 -0.2659 -2.3645  0.2928
 8399TIP3    H246613   1.393   4.754  16.728  2.4901  3.2809  0.0058
 8400TIP3   OH246614   3.530   0.336  12.367  0.6346 -0.1736 -0.3947
 8400TIP3    H146615   3.503   0.384  12.445 -0.4911  1.5560 -1.8201
 8400TIP3    H246616   3.605   0.385  12.333  0.6291 -0.4666 -0.8354
 8401TIP3   OH246617   5.833   5.527  16.817  0.1180  0.6296  0.2388
 8401TIP3    H146618   5.759   5.507  16.875 -0.0876 -1.0990 -0.6063
 8401TIP3    H246619   5.810   5.610  16.776 -2.4114 -0.9628 -1.6801
 8402TIP3   OH246620   4.231   2.251  10.746  0.3368  0.3128 -0.1003
 8402TIP3    H146621   4.289   2.304  10.801 -0.0404  0.3421  0.2701
 8402TIP3    H246622   4.285   2.228  10.670  0.4206  1.4748 -0.4106
 8403TIP3   OH246623   5.173   3.463  12.079 -0.1947 -0.4114  0.4184
 8403TIP3    H146624   5.109   3.454  12.009 -0.9799 -1.7857  1.2916
 8403TIP3    H246625   5.216   3.377  12.084  2.3711  0.7406 -0.7558
 8404TIP3   OH246626   4.318   5.266  14.444 -0.3260  0.6604  0.2495
 8404TIP3    H146627   4.271   5.340  14.483 -0.1577  0.6103  0.5441
 8404TIP3    H246628   4.410   5.290  14.449 -0.2572  0.3440  0.5243
 8405TIP3   OH246629   4.158   3.716   5.470 -0.3627 -0.4945  0.2961
 8405TIP3    H146630   4.202   3.774   5.533  0.0220 -1.0546  0.5454
 8405TIP3    H246631   4.074   3.695   5.510 -0.8762  0.5789 -0.1804
 8406TIP3   OH246632   2.142   1.194  13.640  0.5439 -0.0507  0.2972
 8406TIP3    H146633   2.099   1.114  13.669  1.1075  0.9141  4.1150
 8406TIP3    H246634   2.087   1.265  13.673  1.2060  1.1639 -1.1125
 8407TIP3   OH246635   6.338   6.428   2.123  0.3355  0.2684 -0.5589
 8407TIP3    H146636   6.389   6.481   2.183  0.5437 -0.3122 -0.2157
 8407TIP3    H246637   6.359   6.463   2.036  1.6357 -0.2200 -0.4495
 8408TIP3   OH246638   5.572   4.857  14.021 -0.1542 -0.4178  0.3434
 8408TIP3    H146639   5.576   4.927  13.955  0.1087 -0.9852 -0.2505
 8408TIP3    H246640   5.558   4.777  13.970  1.0308 -0.9886  0.9024
 8409TIP3   OH246641   6.756   2.864  16.845 -0.5709 -0.1018  0.3913
 8409TIP3    H146642   6.699   2.908  16.909 -1.8675 -1.2980  0.0566
 8409TIP3    H246643   6.767   2.776  16.879 -0.5640 -0.4881 -0.6087
 8410TIP3   OH246644   0.062   4.455  14.380 -0.2251 -0.0967  0.5924
 8410TIP3    H146645   0.095   4.377  14.335 -0.4665 -0.3534  0.8602
 8410TIP3    H246646   0.057   4.429  14.472  0.2520  0.4176  0.7752
 8411TIP3   OH246647   6.231   5.064   5.767 -0.1095 -0.6203  0.0711
 8411TIP3    H146648   6.268   5.023   5.845 -1.5368 -0.5980  0.7838
 8411TIP3    H246649   6.157   5.009   5.744 -0.5020  0.1253 -0.4782
 8412TIP3   OH246650   6.157   1.017  16.422 -0.4223 -0.0262 -0.2637
 8412TIP3    H146651   6.232   0.998  16.479 -0.4118 -0.0220 -0.2769
 8412TIP3    H246652   6.155   1.113  16.417 -0.8425 -0.0082  0.2873
 8413TIP3   OH246653   5.886   2.999   3.494  0.3802 -0.5497 -0.8755
 8413TIP3    H146654   5.860   3.079   3.449  0.7887  1.0777  1.6571
 8413TIP3    H246655   5.967   3.022   3.539  0.2284 -2.2213  0.3124
 8414TIP3   OH246656   4.983   0.258   2.379  0.2646 -0.1318 -0.0984
 8414TIP3    H146657   4.933   0.325   2.333  1.3244 -0.3056 -1.5374
 8414TIP3    H246658   4.946   0.257   2.467 -1.1119  0.9272 -0.6396
 8415TIP3   OH246659   3.599   3.379  13.225 -0.3777 -0.1891  0.2761
 8415TIP3    H146660   3.632   3.401  13.312  0.2597  0.1583 -0.0460
 8415TIP3    H246661   3.505   3.390  13.231 -0.2099  1.1624  0.5452
 8416TIP3   OH246662   2.096   0.773   5.362  0.3766  0.3114 -0.2941
 8416TIP3    H146663   2.178   0.819   5.345  1.8589 -2.3217 -0.5674
 8416TIP3    H246664   2.036   0.841   5.392  2.6149  2.3139 -0.1881
 8417TIP3   OH246665   2.966   5.040   3.077  0.5216 -0.0147 -0.4980
 8417TIP3    H146666   2.935   5.125   3.045  0.0199 -0.7903 -2.1580
 8417TIP3    H246667   3.041   5.020   3.021 -0.1126 -1.2052 -0.9488
 8418TIP3   OH246668   6.582   5.971  11.560  0.5418 -0.1309  0.4299
 8418TIP3    H146669   6.563   5.885  11.599 -0.1283 -0.1714  0.0302
 8418TIP3    H246670   6.503   5.992  11.510 -0.7152  2.2043  3.1716
 8419TIP3   OH246671   1.093   2.986   5.095 -0.1692 -0.5006  0.4040
 8419TIP3    H146672   1.099   2.893   5.073  0.2244 -0.3630 -0.0995
 8419TIP3    H246673   1.099   3.031   5.010  0.4439  0.0096  0.7081
 8420TIP3   OH246674   2.395   1.531   6.531  0.4530 -0.4935 -0.1396
 8420TIP3    H146675   2.490   1.530   6.516  0.1638  0.7154 -2.1404
 8420TIP3    H246676   2.380   1.612   6.579  0.2896 -0.1144 -0.8287
 8421TIP3   OH246677   5.806   6.245  17.094 -0.1229  0.0928 -0.1634
 8421TIP3    H146678   5.750   6.318  17.121  1.6608  2.0787 -1.6823
 8421TIP3    H246679   5.828   6.200  17.176 -3.0426 -0.1073  0.5520
 8422TIP3   OH246680   0.919   2.197  15.616  0.1352  0.2541  0.4712
 8422TIP3    H146681   0.877   2.140  15.680 -0.0984  1.6666  1.5914
 8422TIP3    H246682   0.876   2.282  15.627  1.8182  1.1683  0.1705
 8423TIP3   OH246683   0.671   2.575  11.329 -0.2509  0.1138 -0.7575
 8423TIP3    H146684   0.712   2.555  11.413 -2.5994  1.3474  0.7381
 8423TIP3    H246685   0.726   2.643  11.290 -0.1102  0.7627  0.5707
 8424TIP3   OH246686   0.889   3.325   5.491  0.2841  0.4234  0.1671
 8424TIP3    H146687   0.932   3.242   5.471 -1.3033 -0.4389  0.2004
 8424TIP3    H246688   0.887   3.328   5.586 -0.5443  0.0043  0.1707
 8425TIP3   OH246689   1.011   6.372  15.981  0.2271  0.4561 -0.1097
 8425TIP3    H146690   0.922   6.337  15.974  0.7087 -0.9138  0.3258
 8425TIP3    H246691   1.001   6.459  16.019 -0.9525  0.4596 -0.4196
 8426TIP3   OH246692   1.308   0.206   1.900 -0.0769  0.4374 -0.1210
 8426TIP3    H146693   1.273   0.281   1.950  0.9343 -0.2376  1.6432
 8426TIP3    H246694   1.236   0.180   1.843 -0.6872  2.3160 -0.2459
 8427TIP3   OH246695   4.928   1.639  12.072  0.2134 -0.2162 -0.0671
 8427TIP3    H146696   4.894   1.661  12.159  1.7466 -0.9491  0.7181
 8427TIP3    H246697   5.016   1.605  12.087  1.3269  1.6043 -2.0829
 8428TIP3   OH246698   6.013   4.690   3.456 -0.0963  0.2160  0.3579
 8428TIP3    H146699   5.963   4.758   3.413  1.4236  1.6513  0.7811
 8428TIP3    H246700   6.102   4.725   3.462  1.0600 -2.3583 -0.6472
 8429TIP3   OH246701   4.732   0.354   4.805 -0.0182  0.0060 -0.3231
 8429TIP3    H146702   4.683   0.336   4.725  1.0948  0.7012 -1.1828
 8429TIP3    H246703   4.779   0.272   4.823 -1.0530 -0.4787  0.1933
 8430TIP3   OH246704   1.204   2.966   3.998 -0.2583 -0.2293 -0.0771
 8430TIP3    H146705   1.189   2.938   4.089  1.2013 -0.5469  0.0689
 8430TIP3    H246706   1.193   2.887   3.946  0.7180 -0.4257  0.0122
 8431TIP3   OH246707   6.320   6.695   5.570 -0.4926 -0.1105 -0.5183
 8431TIP3    H146708   6.324   6.781   5.612 -0.8822  0.0997 -0.9089
 8431TIP3    H246709   6.410   6.676   5.544 -0.1243 -0.5418  1.0106
 8432TIP3   OH246710   3.146   5.258  15.843 -0.3075  0.0311  0.3751
 8432TIP3    H146711   3.195   5.191  15.795  0.2104  0.2179  0.6424
 8432TIP3    H246712   3.185   5.341  15.816 -0.3416  0.1686  0.7438
 8433TIP3   OH246713   6.504   3.648   2.865  0.2672  0.8104 -0.0344
 8433TIP3    H146714   6.585   3.699   2.870  0.4621  0.4687  0.3388
 8433TIP3    H246715   6.491   3.614   2.953  0.2348  0.0702 -0.3166
 8434TIP3   OH246716   0.026   4.996  14.895  0.4843 -0.6170 -0.2384
 8434TIP3    H146717   0.082   5.058  14.847  1.2667 -0.3784  0.9770
 8434TIP3    H246718   0.075   4.974  14.973 -2.4802  2.1719  2.5552
 8435TIP3   OH246719   1.660   6.748  10.763  0.1657  0.5241  0.0406
 8435TIP3    H146720   1.664   6.660  10.799  1.4658  0.6971  0.3391
 8435TIP3    H246721   1.585   6.746  10.703 -0.6657 -0.3752  1.0886
 8436TIP3   OH246722   1.733   2.072  11.426 -0.6322  0.3949  0.0720
 8436TIP3    H146723   1.645   2.092  11.396 -1.2508 -1.9341  0.2352
 8436TIP3    H246724   1.790   2.100  11.354 -1.8286 -1.8591 -1.8238
 8437TIP3   OH246725   4.620   6.666   6.229 -0.8283  0.1147  0.7892
 8437TIP3    H146726   4.525   6.676   6.219 -0.9086 -0.5468  0.8573
 8437TIP3    H246727   4.631   6.640   6.320 -0.8044 -2.3147  0.1510
 8438TIP3   OH246728   4.317   1.534  13.237  0.0301 -0.0508 -0.2556
 8438TIP3    H146729   4.234   1.496  13.206 -0.1428  0.1571 -0.0487
 8438TIP3    H246730   4.291   1.616  13.279  0.3532  0.0578 -0.2710
 8439TIP3   OH246731   5.545   1.023   1.366 -0.0400  0.1177 -0.1406
 8439TIP3    H146732   5.479   0.970   1.412 -2.5599  2.8225 -0.4798
 8439TIP3    H246733   5.574   1.087   1.431 -0.7924  1.5188 -1.1535
 8440TIP3   OH246734   1.916   3.287  14.537 -0.2234  0.4046  0.0997
 8440TIP3    H146735   1.953   3.283  14.625 -0.9862  0.4486  0.4334
 8440TIP3    H246736   1.958   3.216  14.490 -0.4885 -0.2006  0.7682
 8441TIP3   OH246737   3.299   5.756   3.990  0.1236  0.3528  0.2275
 8441TIP3    H146738   3.385   5.745   4.031  0.3142 -1.1835 -0.5741
 8441TIP3    H246739   3.246   5.683   4.024  0.1219 -0.6232 -1.8072
 8442TIP3   OH246740   1.542   6.176   5.630 -0.6627 -0.1307  0.1330
 8442TIP3    H146741   1.497   6.254   5.596  0.7400  0.4444 -0.4500
 8442TIP3    H246742   1.509   6.165   5.719  0.5816  2.3074  0.9271
 8443TIP3   OH246743   6.787   5.157  15.617  1.0626  0.0917 -0.1473
 8443TIP3    H146744   6.878   5.179  15.598  1.3871  0.6018  1.9319
 8443TIP3    H246745   6.736   5.224  15.572  1.8230  1.2978  0.7587
 8444TIP3   OH246746   6.033   6.683  15.348  0.9015  0.0724  0.0104
 8444TIP3    H146747   6.002   6.722  15.267  2.0341 -1.3377 -1.1224
 8444TIP3    H246748   6.004   6.592  15.344 -1.1451  0.5598  2.3171
 8445TIP3   OH246749   4.866   4.643   0.259  0.2721  0.1700 -0.0233
 8445TIP3    H146750   4.922   4.718   0.240 -0.1528  0.5111  0.0628
 8445TIP3    H246751   4.871   4.589   0.180  0.1693  0.5444 -0.2899
 8446TIP3   OH246752   2.335   0.298   2.654  0.2346 -0.1449 -0.0755
 8446TIP3    H146753   2.312   0.328   2.566  2.6131 -0.3663 -0.8252
 8446TIP3    H246754   2.379   0.373   2.694 -0.8364 -0.0486  0.9277
 8447TIP3   OH246755   4.313   0.739   1.603  0.2602 -0.2607 -0.0319
 8447TIP3    H146756   4.275   0.652   1.594  0.6885 -0.5692  1.0301
 8447TIP3    H246757   4.406   0.727   1.586  0.5001 -0.2196  1.1660
 8448TIP3   OH246758   5.619   3.659   2.353  0.1017 -0.6349 -0.2761
 8448TIP3    H146759   5.561   3.583   2.362 -1.3518  0.6205  1.5527
 8448TIP3    H246760   5.596   3.696   2.267  0.2104 -1.7550 -0.8000
 8449TIP3   OH246761   4.323   3.189   3.006  0.1125  0.0064 -0.3521
 8449TIP3    H146762   4.391   3.229   3.060 -0.1149  0.8401 -0.6716
 8449TIP3    H246763   4.300   3.108   3.052  1.6532 -0.5347 -0.4954
 8450TIP3   OH246764   5.188   4.161  16.753 -0.3772 -0.2046  0.2843
 8450TIP3    H146765   5.097   4.169  16.783 -0.4285  1.0374 -0.1605
 8450TIP3    H246766   5.216   4.252  16.739  1.0279 -0.5750  0.7023
 8451TIP3   OH246767   2.402   1.830   4.682  0.4005 -0.4682  0.3762
 8451TIP3    H146768   2.497   1.837   4.673  0.4747 -2.2478 -0.4686
 8451TIP3    H246769   2.372   1.802   4.596 -0.8256 -0.5325  0.8160
 8452TIP3   OH246770   4.155   4.818   4.404  0.0731 -0.1762  0.1837
 8452TIP3    H146771   4.114   4.744   4.449  0.9624 -0.9914 -0.3379
 8452TIP3    H246772   4.133   4.805   4.312 -0.7166  0.8361  0.2149
 8453TIP3   OH246773   4.227   4.881  15.539  0.7903 -0.4740  0.3532
 8453TIP3    H146774   4.288   4.807  15.541  0.9856 -0.3335 -0.2875
 8453TIP3    H246775   4.191   4.880  15.451  0.0417 -0.4044  0.6559
 8454TIP3   OH246776   4.678   3.911   3.337 -0.4552 -0.1655  0.1193
 8454TIP3    H146777   4.688   3.912   3.242  0.7083 -2.3438  0.2015
 8454TIP3    H246778   4.740   3.977   3.369 -0.4022  0.1217 -0.5860
 8455TIP3   OH246779   2.378   1.064  13.603 -0.3522  0.5974  0.1780
 8455TIP3    H146780   2.346   0.979  13.570 -0.5574 -0.0314  1.9552
 8455TIP3    H246781   2.308   1.095  13.661  0.9036  0.6605  1.6923
 8456TIP3   OH246782   3.145   6.575  13.416 -0.8574 -0.5108 -0.5243
 8456TIP3    H146783   3.131   6.594  13.509 -0.3955  1.0519 -0.7632
 8456TIP3    H246784   3.240   6.577  13.405 -0.9806  2.0478 -1.5580
 8457TIP3   OH246785   4.646   4.167   3.737  0.4121 -1.2216  0.2497
 8457TIP3    H146786   4.599   4.206   3.664  0.4850 -0.9214  0.3648
 8457TIP3    H246787   4.630   4.073   3.728 -1.7591 -0.9927  1.3548
 8458TIP3   OH246788   1.968   1.757   6.248  0.0061 -0.3172 -0.0268
 8458TIP3    H146789   2.010   1.790   6.328  1.5842 -0.2224 -0.8678
 8458TIP3    H246790   1.884   1.722   6.277  0.8667 -0.9312  1.7891
 8459TIP3   OH246791   0.751   3.537   4.653  0.0519 -0.5658 -0.0542
 8459TIP3    H146792   0.776   3.499   4.737 -0.0359 -0.4316  0.0317
 8459TIP3    H246793   0.792   3.480   4.588 -0.4965 -1.1019  0.0681
 8460TIP3   OH246794   6.570   4.052  16.186  0.5827 -1.1776 -0.6806
 8460TIP3    H146795   6.497   4.067  16.125 -0.3455 -1.3162  0.3801
 8460TIP3    H246796   6.626   4.129  16.174 -1.3510  0.5086  0.7530
 8461TIP3   OH246797   5.844   4.427  13.547 -0.2241 -0.9655 -0.1843
 8461TIP3    H146798   5.824   4.398  13.458 -2.7115 -0.3465  0.1398
 8461TIP3    H246799   5.881   4.350  13.590 -0.3897 -1.6915 -1.3286
 8462TIP3   OH246800   3.640   2.487  13.131  0.0925  0.6214 -0.2020
 8462TIP3    H146801   3.563   2.442  13.095 -0.5777  2.0345 -0.5800
 8462TIP3    H246802   3.617   2.505  13.222  0.7065 -0.5588  0.1912
 8463TIP3   OH246803   2.675   6.145  16.901  0.5000  0.0132  0.4291
 8463TIP3    H146804   2.585   6.113  16.906  0.3892  0.5291  1.7479
 8463TIP3    H246805   2.669   6.239  16.918  1.1475  0.2875 -0.7477
 8464TIP3   OH246806   1.087   4.857  14.918 -0.3941  0.1564  0.0812
 8464TIP3    H146807   1.076   4.869  14.823 -0.4292  1.0608  0.1958
 8464TIP3    H246808   1.020   4.912  14.957  0.3914  0.7117  0.6546
 8465TIP3   OH246809   4.963   0.726  16.012 -0.3742 -0.3031 -0.2613
 8465TIP3    H146810   5.015   0.669  15.955  1.0259  0.5913  0.1002
 8465TIP3    H246811   4.964   0.682  16.097  0.7780  0.3017  0.0383
 8466TIP3   OH246812   1.965   5.395  15.977 -0.7048 -0.1510 -0.2027
 8466TIP3    H146813   2.049   5.441  15.969 -0.9078  0.4212  0.8525
 8466TIP3    H246814   1.936   5.415  16.066  0.1774 -3.9498  1.0281
 8467TIP3   OH246815   4.797   1.148  10.881  0.0306  0.4573 -0.0871
 8467TIP3    H146816   4.819   1.087  10.810 -0.4648  0.5819 -0.3437
 8467TIP3    H246817   4.746   1.217  10.839 -1.6662 -0.3092  0.6763
 8468TIP3   OH246818   2.076   4.519   3.067 -0.3422 -0.1346 -0.0023
 8468TIP3    H146819   2.002   4.579   3.078  1.1505  1.3972  1.8947
 8468TIP3    H246820   2.150   4.575   3.046  0.1154 -1.7570 -2.9615
 8469TIP3   OH246821   2.117   4.513  11.934 -0.8150 -0.4601  0.2848
 8469TIP3    H146822   2.155   4.505  11.846  0.9448  0.0881  0.9764
 8469TIP3    H246823   2.085   4.425  11.954  2.5731 -1.6789  0.7498
 8470TIP3   OH246824   5.496   5.839   3.053 -0.1131 -1.3075  0.6853
 8470TIP3    H146825   5.582   5.835   3.012  0.2293  1.6500  1.0299
 8470TIP3    H246826   5.512   5.814   3.144  0.2199 -1.6355  0.5402
 8471TIP3   OH246827   2.240   5.104  14.178 -0.7157 -0.1229  0.1814
 8471TIP3    H146828   2.145   5.095  14.166 -0.7020 -0.2242  0.1436
 8471TIP3    H246829   2.250   5.136  14.268 -0.8038  0.3174  0.0330
 8472TIP3   OH246830   5.192   1.220  15.999  0.0869 -0.0898  0.5050
 8472TIP3    H146831   5.174   1.134  15.961  0.3641 -0.0045  0.1750
 8472TIP3    H246832   5.183   1.207  16.094  2.1257 -0.9805  0.6031
 8473TIP3   OH246833   1.282   6.544  12.159  0.1498 -0.7478 -0.1873
 8473TIP3    H146834   1.374   6.570  12.165  0.2228 -0.1421 -3.2431
 8473TIP3    H246835   1.262   6.505  12.245  2.6743  0.8887  1.1912
 8474TIP3   OH246836   4.945   3.468   5.941  0.3077 -0.1799 -0.0722
 8474TIP3    H146837   5.035   3.500   5.934 -0.1679  1.2110  0.0013
 8474TIP3    H246838   4.896   3.519   5.877 -0.8680  0.7394  1.5151
 8475TIP3   OH246839   4.681   3.753   5.302  0.0606  0.0664  0.1122
 8475TIP3    H146840   4.730   3.801   5.235  0.4242  1.7316  1.5471
 8475TIP3    H246841   4.737   3.755   5.379 -1.4978  0.4945  1.2676
 8476TIP3   OH246842   5.366   2.244   3.180  0.7335 -0.5850  0.0051
 8476TIP3    H146843   5.392   2.236   3.272  1.0905  1.2463  0.0743
 8476TIP3    H246844   5.448   2.238   3.131  0.6931 -0.2276 -0.1089
 8477TIP3   OH246845   1.827   0.040   4.677  0.1123 -0.8478  0.5559
 8477TIP3    H146846   1.751   0.086   4.712 -1.2534 -2.5675 -0.0963
 8477TIP3    H246847   1.806   0.023   4.586  1.8092 -0.2718  0.0402
 8478TIP3   OH246848   6.689   1.979  12.138  0.2493 -0.3758 -0.0886
 8478TIP3    H146849   6.748   1.956  12.210  0.1412  0.2656  0.2070
 8478TIP3    H246850   6.729   1.939  12.061 -0.1691 -1.9148  0.4788
 8479TIP3   OH246851   1.317   2.041  10.375  0.2553  0.0001  0.3045
 8479TIP3    H146852   1.361   2.102  10.315 -2.4794 -0.4321 -2.2454
 8479TIP3    H246853   1.255   2.096  10.424  0.7699 -0.0593  1.0372
 8480TIP3   OH246854   3.344   4.748   3.802 -0.2257  0.7650  0.5334
 8480TIP3    H146855   3.276   4.813   3.787 -1.0783 -0.2964 -0.2367
 8480TIP3    H246856   3.426   4.799   3.800 -0.7328  1.5741 -1.8999
 8481TIP3   OH246857   5.124   3.976  10.428 -0.4120  0.0343  0.4864
 8481TIP3    H146858   5.197   3.945  10.376 -1.2453 -2.0612  0.5011
 8481TIP3    H246859   5.139   4.070  10.438  3.3539 -0.6513  2.2236
 8482TIP3   OH246860   1.885   6.142  14.068 -0.2380 -0.2408 -0.2754
 8482TIP3    H146861   1.918   6.110  14.152 -0.3020  2.2932  0.7328
 8482TIP3    H246862   1.944   6.103  14.003  0.4383 -1.3890  1.0021
 8483TIP3   OH246863   0.690   4.527   0.000 -0.0025  0.2861  0.4578
 8483TIP3    H146864   0.740   4.598   0.041 -0.2600  0.5539  0.3118
 8483TIP3    H246865   0.705   4.537  -0.094 -1.2563  1.0793  0.3300
 8484TIP3   OH246866   5.995   0.980  12.000 -0.5133  0.2890 -0.0921
 8484TIP3    H146867   5.980   1.017  12.087 -1.6082  1.6817 -0.8542
 8484TIP3    H246868   5.927   0.913  11.990  1.3949 -1.9345  1.2383
 8485TIP3   OH246869   6.422   4.783   1.673 -0.0288 -0.4650  0.0782
 8485TIP3    H146870   6.402   4.784   1.767  0.8904 -0.6324  0.2735
 8485TIP3    H246871   6.374   4.707   1.640  0.2233 -0.8259  0.5350
 8486TIP3   OH246872   3.702   2.124  16.065  0.2890 -0.1059  0.9069
 8486TIP3    H146873   3.707   2.075  15.983  1.8285  2.3414 -0.5604
 8486TIP3    H246874   3.608   2.140  16.078  0.0977  0.8242 -1.2770
 8487TIP3   OH246875   1.543   1.578  14.714  0.0067 -0.6490 -0.3590
 8487TIP3    H146876   1.578   1.518  14.780  0.0139 -1.1679 -0.8299
 8487TIP3    H246877   1.586   1.661  14.732 -1.3901 -0.2951  1.4810
 8488TIP3   OH246878   1.877   6.279   2.593 -0.2893 -0.2130 -0.4326
 8488TIP3    H146879   1.956   6.293   2.542 -0.3407 -0.8370 -0.6955
 8488TIP3    H246880   1.896   6.203   2.648 -0.7375 -0.4315 -0.5737
 8489TIP3   OH246881   6.783   3.933  16.642  0.0125  0.1893 -0.3093
 8489TIP3    H146882   6.863   3.889  16.617  0.3946 -1.5144  3.5663
 8489TIP3    H246883   6.809   4.024  16.658  1.1148 -0.2982  0.6724
 8490TIP3   OH246884   4.873   4.265  17.031  0.2057 -0.0123 -0.3662
 8490TIP3    H146885   4.942   4.331  17.031  1.8920 -1.6208  3.0131
 8490TIP3    H246886   4.876   4.228  16.942  0.3467  3.2132 -1.7846
 8491TIP3   OH246887   2.495   6.368  13.110 -0.1968  0.2322 -0.4063
 8491TIP3    H146888   2.400   6.372  13.123 -0.1383 -1.1202  0.4536
 8491TIP3    H246889   2.506   6.376  13.015 -1.0149  2.8462 -0.3262
 8492TIP3   OH246890   6.467   0.607  14.681 -0.1675 -0.4065 -0.0210
 8492TIP3    H146891   6.414   0.546  14.732 -2.1099  1.0899 -0.2066
 8492TIP3    H246892   6.547   0.618  14.732 -1.0632 -0.8065  1.5007
 8493TIP3   OH246893   1.485   5.630  16.125 -0.3075  0.0181  0.3198
 8493TIP3    H146894   1.424   5.688  16.081  0.3069  0.4613  0.0441
 8493TIP3    H246895   1.487   5.662  16.216  0.7090  1.0126 -0.0346
 8494TIP3   OH246896   6.489   0.865   3.351 -0.0314 -0.0623  0.6866
 8494TIP3    H146897   6.499   0.838   3.259  0.5801  0.4166  0.6100
 8494TIP3    H246898   6.524   0.792   3.401  1.0115  0.2984  0.4969
 8495TIP3   OH246899   1.998   0.658   0.990 -0.5965  0.1561  0.3242
 8495TIP3    H146900   2.093   0.651   0.994 -0.4574  2.0998  0.9460
 8495TIP3    H246901   1.981   0.752   0.978 -2.4255 -0.1516  0.3496
 8496TIP3   OH246902   2.362   4.782   4.700  0.1981  0.1973 -0.0782
 8496TIP3    H146903   2.419   4.707   4.716 -0.3194  0.3076  2.5918
 8496TIP3    H246904   2.421   4.851   4.669  1.2558 -0.2266  0.9471
 8497TIP3   OH246905   3.745   3.929  16.887  0.5221 -0.7073 -0.0476
 8497TIP3    H146906   3.759   4.001  16.949  2.2644 -1.0520  0.0095
 8497TIP3    H246907   3.660   3.946  16.848  0.7517  1.1844  0.2337
 8498TIP3   OH246908   3.467   6.587  15.456  0.0547  0.3093  0.6055
 8498TIP3    H146909   3.494   6.644  15.384  2.0445 -1.4830 -0.1135
 8498TIP3    H246910   3.408   6.523  15.414  0.5494 -0.2295  0.7385
 8499TIP3   OH246911   1.612   6.388  16.684 -0.1475  0.1185 -0.3288
 8499TIP3    H146912   1.533   6.429  16.648  0.2220 -0.0635 -1.3419
 8499TIP3    H246913   1.595   6.384  16.779 -0.0403  2.9362 -0.1503
 8500TIP3   OH246914   2.004   1.822   0.619 -0.1805 -0.1151 -0.0571
 8500TIP3    H146915   1.960   1.858   0.542 -1.0955  0.0313  0.5228
 8500TIP3    H246916   1.932   1.794   0.676  0.4812  0.7268  1.1965
 8501TIP3   OH246917   3.999   3.393  12.659 -0.2583 -0.0312  0.0228
 8501TIP3    H146918   4.038   3.404  12.745 -1.2906 -0.0263  0.5023
 8501TIP3    H246919   3.940   3.318  12.669  0.5724 -0.8503 -1.0266
 8502TIP3   OH246920   2.952   2.945   2.377  0.1279 -0.2919  0.4370
 8502TIP3    H146921   2.874   2.898   2.407 -1.2690 -0.4425 -3.1151
 8502TIP3    H246922   2.943   3.032   2.415 -2.7411  0.2265 -1.2139
 8503TIP3   OH246923   5.635   4.669  15.671  0.2743 -0.1440 -0.1221
 8503TIP3    H146924   5.611   4.576  15.667  1.0909 -0.3337 -0.8985
 8503TIP3    H246925   5.718   4.670  15.717  0.6146  0.1274 -0.7328
 8504TIP3   OH246926   4.315   4.777  17.081 -0.2639  0.3389  0.0578
 8504TIP3    H146927   4.341   4.692  17.045 -1.2275  1.2572 -2.9528
 8504TIP3    H246928   4.232   4.797  17.038 -0.1624  2.7073  0.8799
 8505TIP3   OH246929   3.789   0.254   3.631  0.0709  0.4002  0.5228
 8505TIP3    H146930   3.701   0.273   3.597  0.1817  2.1175  1.1496
 8505TIP3    H246931   3.843   0.246   3.553 -1.2976 -4.6260 -0.1322
 8506TIP3   OH246932   2.293   3.985   4.174  0.9459  0.3158 -0.6036
 8506TIP3    H146933   2.339   4.044   4.234  0.9631 -1.0831  0.8239
 8506TIP3    H246934   2.277   4.037   4.096  2.9193  1.5442 -0.2418
 8507TIP3   OH246935   2.473   0.321  12.873 -0.0956 -0.1314  0.7831
 8507TIP3    H146936   2.555   0.295  12.915  0.0558  2.0837  1.9078
 8507TIP3    H246937   2.485   0.412  12.848 -1.5291 -0.3388 -0.8270
 8508TIP3   OH246938   5.235   1.056   2.537  0.3297  0.2573 -0.2789
 8508TIP3    H146939   5.267   0.983   2.484  0.8940 -0.0689  0.5012
 8508TIP3    H246940   5.314   1.107   2.558 -0.0750  1.1644 -0.9236
 8509TIP3   OH246941   4.325   2.123  16.398  0.2266  0.0679  0.0450
 8509TIP3    H146942   4.393   2.066  16.362  0.0477  0.8319 -1.5068
 8509TIP3    H246943   4.336   2.115  16.493  1.3204 -1.2070 -0.1696
 8510TIP3   OH246944   6.174   5.551  16.538 -0.4301 -0.4077  0.1299
 8510TIP3    H146945   6.202   5.461  16.555  1.5200  0.1698  0.0391
 8510TIP3    H246946   6.193   5.598  16.619 -1.9532 -0.1798  0.3666
 8511TIP3   OH246947   6.099   1.151   5.708 -0.0638  0.1723  0.1791
 8511TIP3    H146948   6.115   1.065   5.668 -0.3051 -0.2726  1.0205
 8511TIP3    H246949   6.170   1.207   5.675  0.7948 -0.6695  0.5918
 8512TIP3   OH246950   1.564   6.137  13.476 -0.4262  0.1146 -0.0644
 8512TIP3    H146951   1.601   6.094  13.399  0.2274  0.5002  0.0291
 8512TIP3    H246952   1.605   6.094  13.550 -2.1498 -1.2584  0.1354
 8513TIP3   OH246953   2.046   6.095   1.679 -0.4131 -0.4073 -0.2113
 8513TIP3    H146954   1.989   6.163   1.714  0.0395  0.1612 -0.5736
 8513TIP3    H246955   2.084   6.054   1.757  0.6029  0.8628 -0.0229
 8514TIP3   OH246956   6.655   0.797   4.640  0.0533  0.8136  0.1803
 8514TIP3    H146957   6.595   0.783   4.567  1.0500 -0.6771 -0.3788
 8514TIP3    H246958   6.729   0.844   4.602  1.0555 -0.8924 -0.0299
 8515TIP3   OH246959   4.485   1.652   4.803  0.0808 -0.1735 -0.3342
 8515TIP3    H146960   4.479   1.745   4.827  0.1282 -0.5179  1.0612
 8515TIP3    H246961   4.503   1.653   4.709  2.2774  1.2951  0.0534
 8516TIP3   OH246962   2.133   5.912  15.954  0.1638  0.0433  0.3127
 8516TIP3    H146963   2.163   5.988  15.903 -0.3020 -0.9213 -1.4554
 8516TIP3    H246964   2.039   5.928  15.967 -0.2018 -0.7795 -1.1281
 8517TIP3   OH246965   1.654   3.949  12.923  0.1546 -0.5155  0.8762
 8517TIP3    H146966   1.724   3.992  12.972 -2.3951  2.5629  2.0063
 8517TIP3    H246967   1.686   3.947  12.832  2.2786 -0.4640  1.6053
 8518TIP3   OH246968   3.382   5.666   0.439 -0.7167 -0.3415 -0.0938
 8518TIP3    H146969   3.386   5.579   0.401 -1.0518 -1.4021  2.1907
 8518TIP3    H246970   3.290   5.678   0.462 -0.0713 -1.0221  3.1407
 8519TIP3   OH246971   2.550   3.269  12.703  0.7350  0.3691 -0.3180
 8519TIP3    H146972   2.502   3.299  12.625  1.0571  1.4753 -0.1004
 8519TIP3    H246973   2.541   3.341  12.765 -0.7384 -1.1102  1.2169
 8520TIP3   OH246974   3.130   4.440   4.193 -0.8630 -0.0226 -0.6377
 8520TIP3    H146975   3.046   4.429   4.147 -0.7124 -1.1180 -0.6640
 8520TIP3    H246976   3.178   4.503   4.139 -1.7718  0.8234 -0.4740
 8521TIP3   OH246977   3.665   4.935   0.109  0.0093  0.1508  0.3503
 8521TIP3    H146978   3.735   4.983   0.154 -0.6855  2.4944 -0.9913
 8521TIP3    H246979   3.621   4.886   0.179  3.4411 -2.0072  1.1046
 8522TIP3   OH246980   6.159   2.799   1.509  0.0677 -0.0242  0.1523
 8522TIP3    H146981   6.192   2.801   1.599 -1.9281 -0.4610  0.9071
 8522TIP3    H246982   6.124   2.887   1.495  2.0608  0.6279 -0.8586
 8523TIP3   OH246983   4.405   4.419  16.578 -0.1020  0.0448 -0.8319
 8523TIP3    H146984   4.399   4.454  16.667  2.6175 -0.9045 -0.2293
 8523TIP3    H246985   4.332   4.357  16.572 -1.1179  1.1008  0.2407
 8524TIP3   OH246986   5.807   1.748  11.023  0.0239 -0.4824  0.9079
 8524TIP3    H146987   5.787   1.841  11.019  0.7844 -0.3320  0.5038
 8524TIP3    H246988   5.724   1.706  11.047 -0.4320  0.2490  0.6109
 8525TIP3   OH246989   0.502   2.693   3.404 -0.5854  0.3820 -0.2582
 8525TIP3    H146990   0.474   2.615   3.454 -2.4654 -0.5717 -2.6763
 8525TIP3    H246991   0.597   2.685   3.399 -0.5521 -0.6025  1.3718
 8526TIP3   OH246992   0.768   0.775  15.775 -0.0491 -0.3399  0.0030
 8526TIP3    H146993   0.682   0.792  15.813 -0.4926 -1.3660 -0.5273
 8526TIP3    H246994   0.830   0.808  15.840 -0.8390  0.6558  0.2653
 8527TIP3   OH246995   3.467   4.142   5.392 -0.8433 -0.2009  0.6283
 8527TIP3    H146996   3.398   4.204   5.368 -1.5667 -1.9111 -1.9970
 8527TIP3    H246997   3.517   4.130   5.311 -0.5819 -2.8128  1.1240
 8528TIP3   OH246998   1.344   2.694   6.243  0.5068  0.3310 -0.1936
 8528TIP3    H146999   1.286   2.721   6.171 -1.7313 -0.4204  1.2844
 8528TIP3    H247000   1.349   2.771   6.300 -0.1975 -0.0788  0.4192
 8529TIP3   OH247001   1.538   1.836  12.633 -0.2084 -0.1639 -0.4434
 8529TIP3    H147002   1.574   1.754  12.599  1.1979  0.0290  0.5539
 8529TIP3    H247003   1.488   1.872  12.559 -0.1511 -1.4973 -1.1533
 8530TIP3   OH247004   5.200   2.667   6.534 -0.1257  0.1088 -0.1448
 8530TIP3    H147005   5.122   2.614   6.549  0.6030 -0.4863  1.5726
 8530TIP3    H247006   5.241   2.628   6.457 -0.3555 -0.9298  0.2566
 8531TIP3   OH247007   2.651   2.788  12.443 -0.0491 -0.4068  0.7741
 8531TIP3    H147008   2.665   2.700  12.407 -1.0938  0.7420 -2.5518
 8531TIP3    H247009   2.628   2.772  12.535  2.4162 -3.4397  0.9582
 8532TIP3   OH247010   6.055   2.762  12.861  0.5984 -0.3540 -0.0217
 8532TIP3    H147011   5.983   2.738  12.919 -1.8688  1.8446 -2.0920
 8532TIP3    H247012   6.093   2.841  12.901  1.0422 -0.7440  0.3447
 8533TIP3   OH247013   1.975   1.790   3.097 -0.0490  0.3855  0.1439
 8533TIP3    H147014   2.044   1.856   3.094 -0.4569  0.7313 -2.9986
 8533TIP3    H247015   2.018   1.710   3.126  1.5472  0.7364 -1.2353
 8534TIP3   OH247016   1.943   4.234   0.642 -0.4493 -0.3736 -0.4005
 8534TIP3    H147017   1.897   4.196   0.568 -1.3593  2.1272 -1.1798
 8534TIP3    H247018   1.877   4.242   0.710 -0.2992 -0.0737 -0.2880
 8535TIP3   OH247019   3.718   1.307  16.684  0.5984  0.1419 -0.0784
 8535TIP3    H147020   3.674   1.362  16.619 -0.0117  0.4372  0.5784
 8535TIP3    H247021   3.720   1.220  16.644 -1.9073 -0.2037  0.4903
 8536TIP3   OH247022   5.479   5.840  12.655  0.2313  0.8392 -0.2890
 8536TIP3    H147023   5.528   5.808  12.580  0.5104  2.2591 -0.7212
 8536TIP3    H247024   5.541   5.893  12.705 -0.0580  0.2421  0.7389
 8537TIP3   OH247025   1.527   1.479  13.681 -0.7243  0.1536  0.5391
 8537TIP3    H147026   1.578   1.399  13.698 -0.8297 -0.2944 -1.2072
 8537TIP3    H247027   1.438   1.457  13.707 -0.6443 -0.1112  0.5888
 8538TIP3   OH247028   5.469   4.817   3.131 -0.4357  0.2736  0.2755
 8538TIP3    H147029   5.509   4.844   3.213 -2.0294 -0.9691  1.4811
 8538TIP3    H247030   5.495   4.726   3.120 -0.4579  0.3544 -0.4694
 8539TIP3   OH247031   3.907   2.340  12.227  0.0974 -0.3046  0.1104
 8539TIP3    H147032   3.920   2.424  12.183  1.1779  0.8263  2.5433
 8539TIP3    H247033   3.815   2.340  12.253 -0.5764 -1.0175 -2.1300
 8540TIP3   OH247034   0.212   0.164  16.820  0.0907 -0.0732 -0.4568
 8540TIP3    H147035   0.237   0.202  16.736  0.9529  0.1373 -0.1140
 8540TIP3    H247036   0.154   0.229  16.860 -1.8610 -1.0130 -1.6979
 8541TIP3   OH247037   1.366   4.364  16.034  0.3104 -0.0215 -0.8835
 8541TIP3    H147038   1.325   4.415  16.104  0.5952  1.0618 -1.4990
 8541TIP3    H247039   1.308   4.289  16.021  1.0343 -1.0593  1.5589
 8542TIP3   OH247040   3.207   5.002  16.365  0.3895 -0.1681  0.1264
 8542TIP3    H147041   3.294   5.016  16.328  0.3137 -0.8273 -0.3105
 8542TIP3    H247042   3.156   4.966  16.292 -0.2724  0.2931  0.3574
 8543TIP3   OH247043   4.609   6.335   4.724  0.2462  0.2318 -0.1358
 8543TIP3    H147044   4.681   6.382   4.682  0.8605  0.0735  0.7220
 8543TIP3    H247045   4.537   6.398   4.727 -0.6231 -0.4954 -3.5847
 8544TIP3   OH247046   6.378   1.134   1.539  0.6222 -0.0746 -0.3157
 8544TIP3    H147047   6.454   1.083   1.567  0.9370  0.7422  0.3406
 8544TIP3    H247048   6.394   1.152   1.446  2.0743  1.5364  0.2249
 8545TIP3   OH247049   6.094   2.916   4.952  0.0015 -0.0339  0.3585
 8545TIP3    H147050   6.021   2.978   4.953  0.5301  0.5834  2.2560
 8545TIP3    H247051   6.157   2.952   5.014  2.5853  0.2044 -2.2576
 8546TIP3   OH247052   5.754   1.254  13.113  0.2788  0.5591  0.2908
 8546TIP3    H147053   5.765   1.317  13.042 -1.1606  0.9343  0.3746
 8546TIP3    H247054   5.837   1.208  13.117  0.8606  1.4783 -0.7221
 8547TIP3   OH247055   1.802   5.480  13.126 -0.7649 -0.0974 -0.3858
 8547TIP3    H147056   1.879   5.497  13.181 -0.5485 -1.4344 -0.2701
 8547TIP3    H247057   1.809   5.388  13.102 -1.5321  0.1608 -1.6295
 8548TIP3   OH247058   5.122   1.583  12.342  0.1960  0.0034  0.3882
 8548TIP3    H147059   5.151   1.544  12.425  0.9840  0.4553  0.3278
 8548TIP3    H247060   5.201   1.621  12.305 -0.1481 -0.2364 -0.6001
 8549TIP3   OH247061   0.066   6.256   0.790 -0.0035  0.3391  0.3913
 8549TIP3    H147062   0.118   6.179   0.765 -2.6625 -0.9414 -1.3431
 8549TIP3    H247063   0.021   6.229   0.870 -1.8126 -0.3311 -0.8412
 8550TIP3   OH247064   0.006   1.697  16.027 -0.4408  0.2225  0.3361
 8550TIP3    H147065   0.047   1.756  16.090 -0.8137 -1.2448  2.0003
 8550TIP3    H247066  -0.082   1.732  16.015 -0.9703 -0.4767  2.0177
 8551TIP3   OH247067   4.226   1.390  17.075 -0.3936  0.1079 -0.2934
 8551TIP3    H147068   4.183   1.305  17.066 -0.8863  0.3493 -0.2119
 8551TIP3    H247069   4.307   1.371  17.123 -0.5134 -0.3119 -0.2553
 8552TIP3   OH247070   6.053   6.542   4.274 -0.0164 -0.2428 -0.1669
 8552TIP3    H147071   6.012   6.605   4.334 -0.7402 -0.9940  0.1385
 8552TIP3    H247072   6.125   6.504   4.325 -0.5225 -0.7524  0.1876
 8553TIP3   OH247073   5.188   2.899  15.120 -0.2335 -0.5524  0.6491
 8553TIP3    H147074   5.266   2.871  15.169 -0.3028 -2.9666 -0.5221
 8553TIP3    H247075   5.133   2.942  15.186 -0.0191 -3.1346  2.6350
 8554TIP3   OH247076   3.312   5.514  13.901 -0.5899 -0.3875 -0.5298
 8554TIP3    H147077   3.406   5.495  13.901 -0.5790 -0.3734 -1.8386
 8554TIP3    H247078   3.279   5.471  13.822 -1.5487  0.2460 -0.4808
 8555TIP3   OH247079   0.952   1.829   5.711 -0.3240  0.1903 -0.1421
 8555TIP3    H147080   1.045   1.848   5.699 -0.4625  1.4902  0.8485
 8555TIP3    H247081   0.930   1.772   5.637  1.0937  0.4270 -0.7563
 8556TIP3   OH247082   1.613   3.071  12.734 -0.0221 -0.9654 -0.2952
 8556TIP3    H147083   1.572   3.139  12.787 -2.5598 -0.1678 -3.1601
 8556TIP3    H247084   1.551   2.998  12.736 -1.1726 -0.1538 -3.7884
 8557TIP3   OH247085   0.573   3.276  12.927 -0.0920 -0.5827 -0.0459
 8557TIP3    H147086   0.651   3.310  12.970 -1.1879 -1.1607  2.4956
 8557TIP3    H247087   0.569   3.183  12.953 -2.0443 -0.3614  0.5555
 8558TIP3   OH247088   5.725   1.514  14.559  0.0068  0.2592  0.2041
 8558TIP3    H147089   5.671   1.508  14.638  0.3602  1.3918  0.5432
 8558TIP3    H247090   5.679   1.578  14.504  0.2162  0.1048 -0.1482
 8559TIP3   OH247091   0.790   2.475  14.539 -0.1780  0.3144  0.3519
 8559TIP3    H147092   0.846   2.541  14.497  0.2242 -0.6239 -0.6223
 8559TIP3    H247093   0.852   2.408  14.570 -0.6074  0.2396  1.0653
 8560TIP3   OH247094   4.943   0.893   0.075 -0.0440  0.7023 -0.7618
 8560TIP3    H147095   4.948   0.946  -0.004 -0.7812  2.0241  0.0488
 8560TIP3    H247096   5.009   0.930   0.134  0.4362 -0.2094 -0.7162
 8561TIP3   OH247097   1.197   6.770  13.278  0.0670  0.4304 -0.3321
 8561TIP3    H147098   1.207   6.698  13.339  0.0902 -0.5516 -1.4686
 8561TIP3    H247099   1.113   6.811  13.302  0.1896  0.1916  0.4852
 8562TIP3   OH247100   1.835   0.703  13.686 -0.5171 -0.0899  0.0414
 8562TIP3    H147101   1.849   0.623  13.636 -1.8020  0.1912 -0.8046
 8562TIP3    H247102   1.746   0.694  13.721  0.0577  0.0978  1.5729
 8563TIP3   OH247103   1.287   5.887   4.531 -0.1774  0.2138  0.6426
 8563TIP3    H147104   1.249   5.897   4.619 -1.5034  0.5013  0.0426
 8563TIP3    H247105   1.364   5.832   4.545 -0.2077  0.4993  2.0367
 8564TIP3   OH247106   6.000   5.898   1.755  0.2476  0.7387 -0.2879
 8564TIP3    H147107   6.078   5.918   1.705  0.0378 -1.4623 -1.5385
 8564TIP3    H247108   6.032   5.849   1.831  0.2459  1.3905  0.1409
 8565TIP3   OH247109   2.760   4.316  16.251  0.1506 -0.3182 -0.0347
 8565TIP3    H147110   2.732   4.292  16.339  1.7018 -0.6846  0.3560
 8565TIP3    H247111   2.805   4.239  16.217  0.7784  0.3045 -0.6303
 8566TIP3   OH247112   3.175   1.660   5.663 -0.7674  0.0961 -0.3102
 8566TIP3    H147113   3.225   1.735   5.695 -1.1807  0.1360  0.2412
 8566TIP3    H247114   3.086   1.693   5.650 -1.3634 -0.7114  1.5662
 8567TIP3   OH247115   4.358   1.106  17.058 -0.4754 -0.0418 -0.1386
 8567TIP3    H147116   4.266   1.098  17.034  0.3862 -0.4957 -3.4268
 8567TIP3    H247117   4.385   1.016  17.078 -0.6033  0.0266  0.3576
 8568TIP3   OH247118   5.102   4.049  15.960  0.0283  0.0441 -0.5199
 8568TIP3    H147119   5.102   4.087  16.048  2.4339 -2.0465  0.4220
 8568TIP3    H247120   5.079   4.123  15.903  0.1977  1.8553  1.6726
 8569TIP3   OH247121   4.194   2.833  16.142 -0.1220 -0.2293  0.4793
 8569TIP3    H147122   4.189   2.743  16.174 -0.1522 -1.4390 -2.6936
 8569TIP3    H247123   4.288   2.849  16.128 -0.3512 -1.2207 -2.6193
 8570TIP3   OH247124   2.167   5.162  15.802  0.0006 -0.0354 -0.4559
 8570TIP3    H147125   2.165   5.079  15.851 -1.1520 -0.6670 -1.5248
 8570TIP3    H247126   2.179   5.229  15.868 -2.3862 -0.8037  0.8252
 8571TIP3   OH247127   4.988   4.009   6.147 -0.4079 -0.0067 -0.1629
 8571TIP3    H147128   4.950   3.968   6.225 -2.6790 -0.3616 -1.4003
 8571TIP3    H247129   5.009   4.098   6.175 -0.6913 -0.2885  0.9965
 8572TIP3   OH247130   4.413   5.397  14.845  0.2197  0.2265  0.3315
 8572TIP3    H147131   4.504   5.403  14.817  0.2922 -0.8242  0.2910
 8572TIP3    H247132   4.364   5.378  14.765 -0.0092  0.6205  0.3801
 8573TIP3   OH247133   3.996   0.786  10.442  0.6684  0.2064  0.2341
 8573TIP3    H147134   3.990   0.862  10.501  0.8699  1.0615 -0.8238
 8573TIP3    H247135   4.021   0.714  10.499 -1.8649  0.3977  1.6788
 8574TIP3   OH247136   0.944   3.402   3.104  0.0766 -0.0188  0.3543
 8574TIP3    H147137   1.019   3.461   3.093  1.0857 -1.4356 -0.4568
 8574TIP3    H247138   0.873   3.460   3.134  1.8487  1.1268  2.5906
 8575TIP3   OH247139   6.261   3.878   5.840 -0.8428  0.1526  0.2752
 8575TIP3    H147140   6.169   3.862   5.856 -0.6677 -0.1605  0.9586
 8575TIP3    H247141   6.263   3.922   5.755 -1.6392  0.4526  0.4117
 8576TIP3   OH247142   1.363   3.074   3.801  0.5099 -1.0882 -0.8342
 8576TIP3    H147143   1.302   3.028   3.858  0.8306 -2.1767 -1.3448
 8576TIP3    H247144   1.312   3.092   3.722 -0.4523  1.9571  0.4197
 8577TIP3   OH247145   6.522   2.038   3.459 -0.6821  0.2109 -0.0593
 8577TIP3    H147146   6.497   2.092   3.534 -1.3704  0.3087 -0.3574
 8577TIP3    H247147   6.610   2.068   3.437  0.5324 -1.4988  2.2340
 8578TIP3   OH247148   2.114   0.645   2.729  0.4203 -0.1099 -0.2690
 8578TIP3    H147149   2.168   0.723   2.743  0.3339 -0.2730  1.1213
 8578TIP3    H247150   2.117   0.629   2.635 -1.1189  2.6903 -0.8585
 8579TIP3   OH247151   5.234   5.719   3.015  0.3680 -0.2921  0.3507
 8579TIP3    H147152   5.329   5.708   3.012  0.6170  1.6738  0.8348
 8579TIP3    H247153   5.211   5.754   2.929  0.2552  0.5554  0.7243
 8580TIP3   OH247154   3.123   1.281   4.713  0.1853 -0.3736 -0.1055
 8580TIP3    H147155   3.097   1.196   4.677  1.7075 -0.5689 -0.7862
 8580TIP3    H247156   3.062   1.343   4.673  0.2477 -0.9115 -1.0742
 8581TIP3   OH247157   3.365   4.637   5.209  0.6337  0.0148 -0.0044
 8581TIP3    H147158   3.447   4.635   5.160  0.9059 -0.3418  0.4722
 8581TIP3    H247159   3.346   4.731   5.219 -0.0041  0.1018 -1.7522
 8582TIP3   OH247160   5.505   1.954  12.606  0.0313  0.0190 -0.1391
 8582TIP3    H147161   5.415   1.961  12.638 -0.7972 -2.7617 -1.6992
 8582TIP3    H247162   5.514   2.027  12.546 -1.2786  0.1610 -0.1941
 8583TIP3   OH247163   1.875   1.239  13.162 -0.1242 -0.2893  0.5407
 8583TIP3    H147164   1.809   1.190  13.112 -1.5220  0.7874  1.3051
 8583TIP3    H247165   1.875   1.326  13.122 -1.3745  0.6363  2.4814
 8584TIP3   OH247166   4.098   6.502   3.937  0.1705  0.2779 -0.3293
 8584TIP3    H147167   4.126   6.486   4.028 -0.6422 -0.3230 -0.1723
 8584TIP3    H247168   4.003   6.510   3.943  0.0540 -0.3653 -1.2050
 8585TIP3   OH247169   4.885   3.613   1.861 -0.1799 -0.2786  0.0981
 8585TIP3    H147170   4.791   3.595   1.859 -0.6480  2.0399 -1.0614
 8585TIP3    H247171   4.906   3.634   1.770  1.6002 -1.3967  0.2382
 8586TIP3   OH247172   6.312   3.331  12.906  0.5567 -0.1763 -1.0476
 8586TIP3    H147173   6.231   3.322  12.956  0.4394 -1.0933 -1.3889
 8586TIP3    H247174   6.368   3.385  12.961  1.2012 -2.8756  1.0767
 8587TIP3   OH247175   6.148   3.011   6.174  0.1709 -0.0924 -0.2866
 8587TIP3    H147176   6.156   2.983   6.083  2.3467 -4.3316  1.0954
 8587TIP3    H247177   6.232   3.055   6.192  0.7292 -1.4159  0.3564
 8588TIP3   OH247178   6.105   3.665   4.658 -0.9977 -0.9485 -0.0681
 8588TIP3    H147179   6.140   3.672   4.569 -1.2681  0.2338 -0.0955
 8588TIP3    H247180   6.166   3.608   4.704  0.6218  0.6078 -0.2689
 8589TIP3   OH247181   6.634   5.549   5.935  0.3396  0.1194 -0.6357
 8589TIP3    H147182   6.631   5.521   6.026 -0.3008  0.9243 -0.4079
 8589TIP3    H247183   6.602   5.639   5.936  2.8642  1.0902 -1.2702
 8590TIP3   OH247184   6.294   6.736   1.447  0.0062  0.1047  0.9746
 8590TIP3    H147185   6.282   6.831   1.449  1.4115  0.3120  0.2405
 8590TIP3    H247186   6.388   6.724   1.438 -0.3482 -1.3407 -1.0886
 8591TIP3   OH247187   0.056   3.563   0.582  0.1698  0.0027 -0.7706
 8591TIP3    H147188   0.095   3.563   0.669 -0.6963  0.6008 -0.3834
 8591TIP3    H247189   0.064   3.473   0.552  0.1630 -0.2763  0.0664
 8592TIP3   OH247190   4.937   2.656   6.403 -0.3026 -0.2364  0.3629
 8592TIP3    H147191   4.898   2.734   6.442  1.4728  0.9501 -0.1401
 8592TIP3    H247192   4.883   2.584   6.433 -0.6614  0.9533  2.6708
 8593TIP3   OH247193   3.380   4.072   3.866 -0.1616  0.8009 -0.3413
 8593TIP3    H147194   3.425   4.140   3.917  1.8714 -1.0027  0.3518
 8593TIP3    H247195   3.435   4.060   3.788 -1.4503  1.1752 -1.3179
 8594TIP3   OH247196   0.405   4.302   1.210  0.1915  0.6427  0.3045
 8594TIP3    H147197   0.371   4.357   1.280 -0.1143 -0.6480  1.1942
 8594TIP3    H247198   0.500   4.317   1.211  0.0220  1.7249  0.0360
 8595TIP3   OH247199   5.182   6.255  14.473 -0.0089  0.0767  0.1445
 8595TIP3    H147200   5.263   6.268  14.522 -0.7418 -1.7884  1.9088
 8595TIP3    H247201   5.132   6.335  14.487 -0.3085 -0.5079  2.7081
 8596TIP3   OH247202   2.717   4.898  13.624 -0.1570  1.2884  0.0191
 8596TIP3    H147203   2.803   4.902  13.666 -0.1023 -0.2250  0.1017
 8596TIP3    H247204   2.732   4.934  13.536  0.7757  0.2339 -0.2770
 8597TIP3   OH247205   2.969   5.184  16.448 -0.5304  0.4852  0.1586
 8597TIP3    H147206   2.935   5.119  16.387  1.3466 -0.6036  0.2195
 8597TIP3    H247207   3.064   5.170  16.448 -0.0309  3.5040 -0.1139
 8598TIP3   OH247208   1.701   3.908  14.722 -0.3273 -0.7936 -0.7722
 8598TIP3    H147209   1.628   3.948  14.674  0.2724  1.2468 -0.0704
 8598TIP3    H247210   1.681   3.925  14.814  0.4705 -1.2113 -0.5119
 8599TIP3   OH247211   4.447   6.368  14.290 -0.2775  0.0077  0.5587
 8599TIP3    H147212   4.402   6.417  14.358 -0.9615 -0.8318  0.7174
 8599TIP3    H247213   4.390   6.294  14.272  0.1553 -0.0681 -0.5517
 8600TIP3   OH247214   5.055   5.569   4.814 -0.3992 -0.2722  0.1351
 8600TIP3    H147215   5.009   5.487   4.829  0.6338 -0.7079  0.9397
 8600TIP3    H247216   5.054   5.613   4.899 -0.3719  0.2528 -0.1316
 8601TIP3   OH247217   4.319   1.586   1.137 -0.2161  0.8916 -0.4458
 8601TIP3    H147218   4.395   1.590   1.196  0.3231 -0.7299 -0.9983
 8601TIP3    H247219   4.243   1.591   1.196  0.3168 -0.5187  0.3912
 8602TIP3   OH247220   5.803   4.937  11.443 -0.0629 -0.5273  0.4862
 8602TIP3    H147221   5.897   4.921  11.431 -0.0449  0.8923 -1.3642
 8602TIP3    H247222   5.762   4.851  11.430  0.8296 -0.8310 -0.3277
 8603TIP3   OH247223   5.269   2.861  12.718 -0.1956  0.4175  0.1954
 8603TIP3    H147224   5.255   2.936  12.775 -1.3984 -0.2040  0.7382
 8603TIP3    H247225   5.322   2.800  12.770  1.8329  1.3789 -0.6824
 8604TIP3   OH247226   4.139   4.564   3.132 -0.1429  0.3534 -0.0525
 8604TIP3    H147227   4.107   4.513   3.057 -0.3028 -0.5546  0.6173
 8604TIP3    H247228   4.063   4.615   3.161 -0.5545 -0.5730  0.5295
 8605TIP3   OH247229   2.625   0.806  15.121 -0.0171  0.2050 -0.0231
 8605TIP3    H147230   2.648   0.713  15.122 -1.8118 -0.2507  0.9113
 8605TIP3    H247231   2.670   0.843  15.197  0.6190  0.0914 -0.3422
 8606TIP3   OH247232   5.308   5.002  15.884 -0.0960 -0.8314  0.6436
 8606TIP3    H147233   5.383   4.967  15.837 -0.4820  0.4607 -1.0086
 8606TIP3    H247234   5.233   4.980  15.829 -0.4965  1.1825  0.3357
 8607TIP3   OH247235   5.895   4.499  11.725 -0.2340 -0.2728 -0.6892
 8607TIP3    H147236   5.957   4.551  11.673  0.2355  0.3105  0.4424
 8607TIP3    H247237   5.809   4.531  11.697  0.0405  0.7887 -0.3633
 8608TIP3   OH247238   0.525   2.218   0.410 -0.0827  0.1304  0.0837
 8608TIP3    H147239   0.544   2.311   0.401 -1.2223  0.3984  0.3650
 8608TIP3    H247240   0.610   2.178   0.430  0.1323  1.3251  1.6473
 8609TIP3   OH247241   2.802   5.220   0.694  0.2736 -0.1554 -0.0244
 8609TIP3    H147242   2.820   5.224   0.788  0.3302 -1.1118  0.0145
 8609TIP3    H247243   2.709   5.241   0.686  0.6075  1.3809  0.1030
 8610TIP3   OH247244   0.144   1.953  14.392  0.6679 -0.7146 -0.1012
 8610TIP3    H147245   0.057   1.979  14.360  0.9234  1.3480  0.7744
 8610TIP3    H247246   0.131   1.865  14.428 -1.2678 -0.0978  0.8064
 8611TIP3   OH247247   6.092   3.892   2.160  0.6864  0.0380  0.2460
 8611TIP3    H147248   6.015   3.859   2.113  0.4103 -0.1386  0.8165
 8611TIP3    H247249   6.107   3.979   2.123 -1.3857  1.1724  1.9364
 8612TIP3   OH247250   2.182   4.813   4.909  0.4939 -0.1841  0.3258
 8612TIP3    H147251   2.175   4.718   4.916  0.8210 -0.2976 -0.8122
 8612TIP3    H247252   2.266   4.827   4.864 -0.7599  0.5555 -1.8431
 8613TIP3   OH247253   5.991   0.619   0.218  0.1521  0.4542  0.0907
 8613TIP3    H147254   5.988   0.568   0.137  0.2133  1.8157 -0.7732
 8613TIP3    H247255   6.078   0.601   0.255  0.3359  0.2855 -0.4265
 8614TIP3   OH247256   5.608   2.255   4.094  0.2485 -0.2643 -0.2343
 8614TIP3    H147257   5.555   2.322   4.137  1.9277  0.2786  0.9954
 8614TIP3    H247258   5.605   2.180   4.154 -1.8168 -1.4419 -1.7052
 8615TIP3   OH247259   2.232   4.203  12.332  0.2576  0.5317  0.2830
 8615TIP3    H147260   2.223   4.121  12.381  0.9386  0.1730 -0.1732
 8615TIP3    H247261   2.191   4.185  12.248 -1.7339  1.4437  1.0187
 8616TIP3   OH247262   3.924   0.726   0.439  0.0179  0.1654 -0.0942
 8616TIP3    H147263   3.924   0.822   0.442 -0.4553  0.1621  0.0980
 8616TIP3    H247264   3.878   0.704   0.359  1.3024  0.1071 -0.8295
 8617TIP3   OH247265   1.103   3.009   3.165 -0.6669  0.3684 -0.6759
 8617TIP3    H147266   1.054   3.082   3.203 -1.2835  0.1006 -0.9495
 8617TIP3    H247267   1.194   3.029   3.184 -0.9579  0.2686  0.9363
 8618TIP3   OH247268   0.001   4.420  14.645  0.5291 -0.3317 -0.2119
 8618TIP3    H147269   0.066   4.481  14.678  0.4731 -0.8758  0.9305
 8618TIP3    H247270  -0.048   4.392  14.723 -0.4016 -0.7082 -0.9132
 8619TIP3   OH247271   2.518   2.385  16.176 -0.0620 -0.5040 -0.8012
 8619TIP3    H147272   2.590   2.343  16.130 -0.3628 -0.1845 -1.5633
 8619TIP3    H247273   2.508   2.470  16.134  1.2478  0.8084  1.4377
 8620TIP3   OH247274   3.817   4.766   3.834 -0.2792 -0.3137 -0.7792
 8620TIP3    H147275   3.825   4.859   3.813 -2.6318  0.3963  1.1592
 8620TIP3    H247276   3.848   4.759   3.924 -2.3550 -0.9441 -0.0907
 8621TIP3   OH247277   1.104   6.607  16.755 -0.3638 -0.4928 -0.2183
 8621TIP3    H147278   1.103   6.569  16.843 -0.4493  1.3112  0.5928
 8621TIP3    H247279   1.127   6.699  16.769  0.5809 -0.4056 -2.1859
 8622TIP3   OH247280   1.261   2.765   3.720 -0.1526 -0.1449  0.5052
 8622TIP3    H147281   1.331   2.758   3.784  0.1108 -2.7847 -0.0170
 8622TIP3    H247282   1.305   2.790   3.639  0.1735 -1.4418  0.2656
 8623TIP3   OH247283   1.598   4.951  15.381 -0.2570  0.0226 -0.2224
 8623TIP3    H147284   1.562   4.866  15.355 -2.4643  0.2637  1.8585
 8623TIP3    H247285   1.550   5.015  15.329 -1.2526  0.1976  0.8833
 8624TIP3   OH247286   4.731   6.779  12.149  0.4724 -0.0255  0.3847
 8624TIP3    H147287   4.658   6.756  12.092  0.8500 -0.2422 -0.0156
 8624TIP3    H247288   4.747   6.872  12.132  0.7240 -0.1404 -0.0303
 8625TIP3   OH247289   3.887   3.245   4.797  0.5668 -0.1019 -0.7472
 8625TIP3    H147290   3.857   3.189   4.725  2.6347  0.3060 -1.9785
 8625TIP3    H247291   3.939   3.312   4.754  0.6129  1.0134  1.0193
 8626TIP3   OH247292   4.118   6.021   6.601  0.1707 -0.0703  0.7252
 8626TIP3    H147293   4.122   5.977   6.686  0.0808  0.6254  1.1025
 8626TIP3    H247294   4.028   6.054   6.595  0.1357 -0.2417  0.2945
 8627TIP3   OH247295   2.556   4.278   2.905  0.0091 -0.5135  0.9171
 8627TIP3    H147296   2.508   4.361   2.913  1.5461  0.5179 -0.3977
 8627TIP3    H247297   2.487   4.211   2.902 -1.2595  0.7319  1.7027
 8628TIP3   OH247298   3.541   1.426   5.271  0.3482 -0.3212  0.0549
 8628TIP3    H147299   3.515   1.500   5.215  1.3463 -0.4425 -0.5927
 8628TIP3    H247300   3.628   1.450   5.303  0.6820 -1.2236 -0.1733
 8629TIP3   OH247301   0.826   0.063  12.404  0.0977  0.3106 -0.0250
 8629TIP3    H147302   0.788   0.144  12.437 -1.9140 -0.8689  0.6336
 8629TIP3    H247303   0.790  -0.006  12.461  1.0000 -1.1428 -1.1635
 8630TIP3   OH247304   4.132   2.293   2.315 -0.2094 -0.8131  0.2349
 8630TIP3    H147305   4.082   2.310   2.235  0.0932  0.7720  0.3675
 8630TIP3    H247306   4.129   2.375   2.363 -2.2460 -2.3660  2.9186
 8631TIP3   OH247307   1.936   4.287   1.283 -0.6047  0.3239  0.0924
 8631TIP3    H147308   1.961   4.210   1.334  0.2269  0.3971 -0.1993
 8631TIP3    H247309   1.851   4.313   1.319  0.1328  0.5810  1.6568
 8632TIP3   OH247310   0.343   4.706  13.533  0.7513  0.4371 -0.3766
 8632TIP3    H147311   0.262   4.658  13.519  0.8759 -0.1911  1.0102
 8632TIP3    H247312   0.331   4.788  13.484 -1.0531  0.7262  0.5021
 8633TIP3   OH247313   5.219   0.397   2.318 -0.2813 -0.0383  0.3205
 8633TIP3    H147314   5.172   0.470   2.356 -3.6255 -1.6114 -0.5878
 8633TIP3    H247315   5.173   0.319   2.350  2.2020 -1.6890  0.0195
 8634TIP3   OH247316   5.227   2.848  17.073  0.2582  0.6590  0.0217
 8634TIP3    H147317   5.173   2.870  16.997  1.0758  2.9246  0.0384
 8634TIP3    H247318   5.279   2.772  17.046  1.2655  2.0407 -2.0605
 8635TIP3   OH247319   6.325   0.179  12.849  0.1421  0.2034  0.0616
 8635TIP3    H147320   6.302   0.154  12.759  0.7417  0.2605 -0.1120
 8635TIP3    H247321   6.412   0.218  12.841  1.1126 -1.7268  0.9596
 8636TIP3   OH247322   0.567   4.783   1.018 -0.5986  0.0208 -0.0191
 8636TIP3    H147323   0.588   4.695   1.048  0.1323 -0.3256 -1.4951
 8636TIP3    H247324   0.551   4.833   1.098 -0.1873 -1.2446  0.8589
 8637TIP3   OH247325   5.387   3.095  11.688  0.3297  0.1329  0.8397
 8637TIP3    H147326   5.306   3.112  11.639  0.9138 -1.5022 -0.7515
 8637TIP3    H247327   5.451   3.154  11.648  0.0139  1.1915  1.8792
 8638TIP3   OH247328   4.364   3.257   0.287 -0.3581 -0.2620  0.4571
 8638TIP3    H147329   4.353   3.286   0.378 -1.6680 -0.9638  0.5406
 8638TIP3    H247330   4.277   3.268   0.249  0.6097  1.8473 -1.2742
 8639TIP3   OH247331   0.076   4.195  16.668  0.5842 -0.5580 -0.1631
 8639TIP3    H147332   0.016   4.232  16.604 -1.4158 -2.3750  0.6178
 8639TIP3    H247333   0.163   4.224  16.639 -0.5693  1.3529 -1.8075
 8640TIP3   OH247334   1.098   2.229  16.904  0.2797  0.0844 -0.1129
 8640TIP3    H147335   1.049   2.307  16.880  0.5045  0.0725 -0.6235
 8640TIP3    H247336   1.163   2.260  16.967  0.3417  0.3075 -0.2831
 8641TIP3   OH247337   5.057   2.095  11.457 -0.1350 -0.1239  0.4383
 8641TIP3    H147338   4.978   2.050  11.486 -0.0457 -0.6005 -0.0599
 8641TIP3    H247339   5.057   2.177  11.507 -0.1118 -0.8292  1.6320
 8642TIP3   OH247340   4.096   5.077  16.511 -0.0903 -0.0536 -0.7254
 8642TIP3    H147341   4.072   5.020  16.439 -0.6562  2.0249 -2.2164
 8642TIP3    H247342   4.032   5.148  16.510 -1.1376 -0.8290  2.8847
 8643TIP3   OH247343   0.904   4.353  16.748  0.2196  0.1924 -0.5438
 8643TIP3    H147344   0.871   4.442  16.739  2.4521  0.9451 -1.7859
 8643TIP3    H247345   0.896   4.334  16.842 -0.1293  1.7561 -0.2485
 8644TIP3   OH247346   4.691   1.764   0.930  0.1157 -0.0313  0.1365
 8644TIP3    H147347   4.684   1.701   1.001  1.0452  0.9876  1.1394
 8644TIP3    H247348   4.758   1.826   0.958  1.1245 -0.0943 -1.9855
 8645TIP3   OH247349   4.757   5.643  16.769 -0.1599  0.3104 -0.2696
 8645TIP3    H147350   4.834   5.698  16.771 -0.2337  0.4350  3.7658
 8645TIP3    H247351   4.690   5.693  16.817 -0.9759 -2.1626  1.2739
 8646TIP3   OH247352   2.098   1.323   6.061 -0.3834 -0.4768 -0.3028
 8646TIP3    H147353   2.039   1.398   6.065  0.7475  0.4578 -0.7736
 8646TIP3    H247354   2.142   1.322   6.146 -0.8288 -0.9703 -0.0754
 8647TIP3   OH247355   4.475   6.747   5.551  0.1053  0.1180 -0.0736
 8647TIP3    H147356   4.565   6.731   5.524  0.0166  0.7633 -0.7695
 8647TIP3    H247357   4.443   6.813   5.490 -0.7112  0.1908  0.4237
 8648TIP3   OH247358   1.708   4.920   5.678  0.6956  0.1014  0.4075
 8648TIP3    H147359   1.778   4.957   5.625  0.2037  0.2319 -0.1595
 8648TIP3    H247360   1.669   4.851   5.623  0.6326 -0.2358  0.8664
 8649TIP3   OH247361   5.760   6.692   1.805 -0.3594  1.0958  0.3319
 8649TIP3    H147362   5.854   6.702   1.822 -0.7151 -0.2837  3.4243
 8649TIP3    H247363   5.742   6.600   1.824 -2.4455  1.4789  0.3163
 8650TIP3   OH247364   4.768   0.816  11.350 -0.4838  0.3282  0.0860
 8650TIP3    H147365   4.843   0.874  11.356 -0.2143 -0.0638  0.5901
 8650TIP3    H247366   4.799   0.733  11.388 -0.5154 -0.4836 -1.5663
 8651TIP3   OH247367   2.015   4.233  11.340 -0.4966  0.3872  0.4755
 8651TIP3    H147368   2.029   4.139  11.331  0.8304  0.4697  1.4654
 8651TIP3    H247369   2.089   4.273  11.293 -1.3132  0.9400 -0.3542
 8652TIP3   OH247370   5.524   6.634   5.647  0.4103  0.2842 -0.0162
 8652TIP3    H147371   5.588   6.690   5.692 -0.8802  2.0092 -0.2981
 8652TIP3    H247372   5.539   6.547   5.684  3.5790  0.4497 -0.7577
 8653TIP3   OH247373   6.610   0.504   4.256  0.2511  0.0164  0.0416
 8653TIP3    H147374   6.647   0.459   4.180 -0.6475 -0.4897 -0.1056
 8653TIP3    H247375   6.523   0.465   4.267  0.7494 -0.6408  1.9547
 8654TIP3   OH247376   5.474   5.886  16.339 -0.8672 -0.6669 -0.2273
 8654TIP3    H147377   5.490   5.978  16.319 -1.7304 -0.2766  0.8002
 8654TIP3    H247378   5.416   5.855  16.269  0.6642 -0.8577 -1.4316
 8655TIP3   OH247379   1.757   0.917   3.158 -0.0455 -0.7362  0.1758
 8655TIP3    H147380   1.827   0.933   3.222 -0.7619  1.0269  0.5586
 8655TIP3    H247381   1.731   1.005   3.129 -0.4571 -1.4631 -1.7587
 8656TIP3   OH247382   1.461   4.749   6.521 -0.3308 -0.6160  0.0772
 8656TIP3    H147383   1.532   4.689   6.496 -0.0538 -1.8618  3.6206
 8656TIP3    H247384   1.398   4.693   6.567 -1.7842  1.2130  0.3553
 8657TIP3   OH247385   5.128   2.195  16.160 -0.2204  0.6623 -0.1580
 8657TIP3    H147386   5.040   2.210  16.194 -0.9177  0.8237 -2.0053
 8657TIP3    H247387   5.118   2.197  16.065  1.9731  1.7806 -0.3827
 8658TIP3   OH247388   4.376   0.753  15.346 -0.6194 -0.0497 -0.5981
 8658TIP3    H147389   4.348   0.709  15.427  0.1914 -1.0912 -0.8756
 8658TIP3    H247390   4.326   0.835  15.345 -1.8502 -0.7692  0.1333
 8659TIP3   OH247391   2.782   4.889  15.754  0.3020 -0.0964  0.2665
 8659TIP3    H147392   2.770   4.894  15.659 -0.5160 -1.7326  0.2773
 8659TIP3    H247393   2.873   4.861  15.765  0.0800 -0.9357 -0.0481
 8660TIP3   OH247394   3.178   1.806   2.831 -0.8205 -0.3271 -0.5503
 8660TIP3    H147395   3.166   1.894   2.866 -0.9031 -0.2990 -0.6456
 8660TIP3    H247396   3.271   1.788   2.840 -0.8345 -0.3038 -0.3582
 8661TIP3   OH247397   1.140   2.072   0.115  0.3234 -0.8840 -0.1833
 8661TIP3    H147398   1.093   2.104   0.038  0.5393 -1.8340 -0.7166
 8661TIP3    H247399   1.118   2.135   0.185  1.7753  1.1692 -1.5194
 8662TIP3   OH247400   0.111   2.790  16.605 -0.7626  0.1679 -0.3024
 8662TIP3    H147401   0.064   2.708  16.589 -1.9196  0.6320  0.5582
 8662TIP3    H247402   0.108   2.801  16.700  0.9447  0.3197 -0.2538
 8663TIP3   OH247403   1.172   6.480  16.317 -0.0595  0.1449  0.1592
 8663TIP3    H147404   1.177   6.393  16.357  0.9490 -0.1728 -0.6130
 8663TIP3    H247405   1.214   6.538  16.380  2.5372 -0.5315 -0.8702
 8664TIP3   OH247406   0.989   0.415  12.824 -0.2264 -0.4984  0.0634
 8664TIP3    H147407   0.926   0.403  12.752  0.3534 -0.0362 -0.5231
 8664TIP3    H247408   0.982   0.507  12.847  1.6954  0.0372 -1.3760
 8665TIP3   OH247409   0.981   5.914  13.957 -0.0633 -0.5678 -0.4663
 8665TIP3    H147410   0.977   5.936  13.864 -0.5159  1.3815 -0.0076
 8665TIP3    H247411   1.001   5.997  14.000 -1.1619 -1.1909  1.2827
 8666TIP3   OH247412   0.941   2.817   0.230 -0.1034 -0.2037  0.0199
 8666TIP3    H147413   0.976   2.879   0.294 -2.5335 -0.0442  1.2678
 8666TIP3    H247414   0.876   2.867   0.181 -0.0282 -0.9907 -0.8941
 8667TIP3   OH247415   1.429   4.916   6.312 -0.3698  0.7263 -0.3022
 8667TIP3    H147416   1.449   4.864   6.390 -1.8381 -1.3504 -1.2485
 8667TIP3    H247417   1.337   4.939   6.321  0.0352  2.4240 -0.3442
 8668TIP3   OH247418   6.004   1.104   1.015 -0.2705  0.0107  0.6181
 8668TIP3    H147419   6.031   1.144   0.932 -0.9593 -0.9915 -0.1023
 8668TIP3    H247420   5.922   1.061   0.995  1.0807 -2.8616  1.0520
 8669TIP3   OH247421   3.459   2.543  13.639  0.2864  0.2649  0.1966
 8669TIP3    H147422   3.492   2.468  13.688  0.0826 -0.2958 -0.5103
 8669TIP3    H247423   3.439   2.609  13.705  1.3789  0.0489  0.7396
 8670TIP3   OH247424   5.707   3.124  14.794 -0.0348  0.5619 -0.1797
 8670TIP3    H147425   5.781   3.110  14.853 -1.0310 -0.6998  0.7881
 8670TIP3    H247426   5.733   3.084  14.712  1.5336  2.6951 -0.7607
 8671TIP3   OH247427   0.134   5.093   2.653  0.1553  0.5648 -0.6031
 8671TIP3    H147428   0.065   5.145   2.693 -0.1178  2.6164 -3.5969
 8671TIP3    H247429   0.215   5.134   2.683 -0.0183  0.9881 -0.7024
 8672TIP3   OH247430   5.120   0.105  13.605  0.1658  0.7428 -0.0790
 8672TIP3    H147431   5.076   0.052  13.671 -0.3498  1.5995  0.2733
 8672TIP3    H247432   5.086   0.073  13.521 -1.1346  1.3992  0.1903
 8673TIP3   OH247433   1.845   0.799  14.527  0.0942 -0.1479  0.4041
 8673TIP3    H147434   1.758   0.768  14.499 -0.6963  0.2304  2.3788
 8673TIP3    H247435   1.902   0.779  14.453 -1.9182  0.7127 -1.4398
 8674TIP3   OH247436   1.509   0.902  11.873  0.3113  0.5023  0.2054
 8674TIP3    H147437   1.525   0.979  11.928 -1.4558  1.0178  0.0258
 8674TIP3    H247438   1.526   0.828  11.930  3.3180  0.9967  0.0084
 8675TIP3   OH247439   3.163   0.961   1.701  0.0074 -0.2220 -0.1537
 8675TIP3    H147440   3.205   0.883   1.738 -0.5911 -0.9651 -1.0384
 8675TIP3    H247441   3.091   0.927   1.649 -0.5287  0.9584 -0.1877
 8676TIP3   OH247442   4.777   3.000  15.137 -0.1268 -0.2976 -0.1877
 8676TIP3    H147443   4.868   3.003  15.166 -0.4631 -0.0367  0.8434
 8676TIP3    H247444   4.766   2.913  15.100  0.3301 -0.6005  0.3885
 8677TIP3   OH247445   0.075   3.892   4.201 -0.3864 -0.2116  0.3106
 8677TIP3    H147446   0.120   3.808   4.200 -2.5572 -1.4226  0.4119
 8677TIP3    H247447   0.018   3.888   4.278 -1.2856  0.9104 -0.2819
 8678TIP3   OH247448   1.452   4.414  12.329 -0.2512  0.7987 -0.3018
 8678TIP3    H147449   1.446   4.506  12.352  3.6303  0.9208  0.5305
 8678TIP3    H247450   1.456   4.413  12.234 -1.6211  1.3773 -0.3716
 8679TIP3   OH247451   5.295   4.532  11.392 -0.2616 -0.1678 -0.3716
 8679TIP3    H147452   5.278   4.610  11.444  0.0275 -0.8143  0.7131
 8679TIP3    H247453   5.367   4.488  11.437 -0.8879 -1.4160 -0.5614
 8680TIP3   OH247454   6.171   1.919  12.324  0.0602 -0.1001  0.5264
 8680TIP3    H147455   6.092   1.866  12.322  0.5277 -0.7617 -0.8311
 8680TIP3    H247456   6.154   1.991  12.264  0.1722  0.2333  0.8854
 8681TIP3   OH247457   3.511   5.323   5.026 -0.5205 -0.4751  0.0619
 8681TIP3    H147458   3.554   5.386   4.968  1.2845 -1.9544 -0.2586
 8681TIP3    H247459   3.557   5.332   5.110 -0.0556 -1.5377 -0.0643
 8682TIP3   OH247460   4.590   2.540   4.262  0.2340  0.2526  0.4167
 8682TIP3    H147461   4.502   2.542   4.225 -0.2861 -1.3751  1.5054
 8682TIP3    H247462   4.576   2.546   4.356  1.3840  1.4918  0.5204
 8683TIP3   OH247463   0.500   3.355  12.072 -0.4108  0.0689  0.6578
 8683TIP3    H147464   0.595   3.353  12.065 -0.4196  1.6002  0.0300
 8683TIP3    H247465   0.478   3.276  12.121  1.2565  0.2700  1.7548
 8684TIP3   OH247466   5.205   6.599  11.970  0.7817  0.3293 -0.0615
 8684TIP3    H147467   5.114   6.574  11.985  1.0303 -0.2653  0.4324
 8684TIP3    H247468   5.256   6.522  11.993  1.4324  0.7469 -0.0881
 8685TIP3   OH247469   2.704   3.371  16.804  0.1566 -0.8383 -0.1965
 8685TIP3    H147470   2.688   3.412  16.889  0.0689 -0.3236 -0.4599
 8685TIP3    H247471   2.791   3.333  16.813 -0.3181 -1.7935  0.5138
 8686TIP3   OH247472   4.799   1.637   2.591 -0.1377  0.6337 -0.0689
 8686TIP3    H147473   4.832   1.689   2.517  2.0410 -0.2254  0.2580
 8686TIP3    H247474   4.771   1.555   2.552 -1.1562  1.0600 -0.2412
 8687TIP3   OH247475   3.331   1.862  16.056 -0.0721  0.6283  0.5607
 8687TIP3    H147476   3.279   1.821  16.125  0.4252 -1.7208 -0.3980
 8687TIP3    H247477   3.267   1.893  15.993 -0.4239 -0.1623  0.5168
 8688TIP3   OH247478   6.492   4.436  10.872  0.0234 -0.4638  0.5069
 8688TIP3    H147479   6.537   4.480  10.944 -0.2927  0.6740  0.0320
 8688TIP3    H247480   6.430   4.502  10.839 -0.2986 -1.1951 -0.3707
 8689TIP3   OH247481   6.533   3.047  14.430 -0.4173  0.4409 -0.2552
 8689TIP3    H147482   6.566   3.134  14.405 -0.2459  0.7497  0.9658
 8689TIP3    H247483   6.572   3.032  14.516 -0.7893 -0.6707 -0.2789
 8690TIP3   OH247484   5.178   4.902  16.995  0.4063  0.4793 -0.2313
 8690TIP3    H147485   5.197   4.960  17.070  1.3073 -0.6763  0.4573
 8690TIP3    H247486   5.099   4.855  17.021  0.3233  0.5838 -0.2966
 8691TIP3   OH247487   0.642   5.579   4.884 -0.1370  0.2233 -0.6757
 8691TIP3    H147488   0.582   5.643   4.924  1.7637  4.1316 -3.7114
 8691TIP3    H247489   0.586   5.529   4.824 -1.2621  0.5755  0.0567
 8692TIP3   OH247490   2.694   3.084  11.890 -0.2026 -0.8195 -0.1915
 8692TIP3    H147491   2.767   3.084  11.829  0.4768 -2.0206  0.5836
 8692TIP3    H247492   2.733   3.059  11.974 -1.6881 -2.6637 -0.0065
 8693TIP3   OH247493   2.526   5.765  16.674  0.0180  0.6020 -0.4732
 8693TIP3    H147494   2.591   5.728  16.614 -0.1131 -0.7710  0.2114
 8693TIP3    H247495   2.539   5.717  16.756 -0.3374  1.9050  0.3611
 8694TIP3   OH247496   2.269   6.085  11.632  0.4448 -0.5638 -0.4756
 8694TIP3    H147497   2.193   6.118  11.681  1.4447  0.2062  0.5695
 8694TIP3    H247498   2.284   6.150  11.564 -1.0552 -1.7207 -1.9553
 8695TIP3   OH247499   0.668   3.498  10.681 -0.1204 -0.2500 -0.0394
 8695TIP3    H147500   0.677   3.453  10.765 -2.1218  0.2584  0.4702
 8695TIP3    H247501   0.575   3.516  10.673  0.1837  0.6479 -1.8970
 8696TIP3   OH247502   6.710   1.376   2.183  0.5923  0.2192 -0.4775
 8696TIP3    H147503   6.711   1.284   2.211 -1.7656 -0.2026 -1.6771
 8696TIP3    H247504   6.802   1.398   2.171  1.1102 -2.5817 -2.0765
 8697TIP3   OH247505   1.333   4.820  12.935  0.2039 -0.4372  0.3057
 8697TIP3    H147506   1.390   4.853  13.004 -1.6785  0.8120  1.3181
 8697TIP3    H247507   1.327   4.726  12.951  0.8295 -0.3547  1.0538
 8698TIP3   OH247508   3.918   5.366  14.427  0.4277  0.3410  0.4188
 8698TIP3    H147509   4.008   5.397  14.439  0.3390 -0.0684  2.2288
 8698TIP3    H247510   3.915   5.282  14.472 -0.6975  0.0470 -0.1777
 8699TIP3   OH247511   2.910   5.045   1.036  0.8860  0.4129 -0.4652
 8699TIP3    H147512   2.932   5.018   1.125  1.5361  2.0776 -0.1114
 8699TIP3    H247513   2.815   5.057   1.036  0.8217 -0.1136 -0.1449
 8700TIP3   OH247514   5.375   3.297  12.150  0.5419 -0.0694  0.0643
 8700TIP3    H147515   5.468   3.318  12.163  0.0956  1.2218  1.2438
 8700TIP3    H247516   5.376   3.204  12.125  2.2394  0.2846 -1.3002
 8701TIP3   OH247517   3.921   4.730   3.207 -0.2242  0.3456 -0.1372
 8701TIP3    H147518   3.876   4.656   3.248 -1.6623  1.4682  0.3734
 8701TIP3    H247519   3.850   4.787   3.177  0.8101  0.0944 -3.2314
 8702TIP3   OH247520   4.120   6.030  13.233  0.3111 -0.1827  0.3131
 8702TIP3    H147521   4.042   6.028  13.178 -0.4654 -0.2771  1.4075
 8702TIP3    H247522   4.087   6.048  13.321  1.2856 -2.8236  1.2470
 8703TIP3   OH247523   2.386   2.574   4.234 -0.0226  0.0969 -0.2134
 8703TIP3    H147524   2.431   2.493   4.258 -2.7899 -0.8837  1.9052
 8703TIP3    H247525   2.304   2.545   4.193 -0.7269  1.8313 -0.0745
 8704TIP3   OH247526   3.910   1.240   3.890  0.6824  1.0691  0.5631
 8704TIP3    H147527   3.832   1.219   3.839  1.8974  1.6944 -1.6220
 8704TIP3    H247528   3.899   1.192   3.973  1.0668 -4.2139 -2.2498
 8705TIP3   OH247529   2.865   0.710  16.230 -0.0113 -0.4247 -0.5855
 8705TIP3    H147530   2.897   0.673  16.148 -1.0508 -0.0120 -1.1907
 8705TIP3    H247531   2.814   0.787  16.203  1.1979  0.8201  0.5668
 8706TIP3   OH247532   3.743   3.295   0.060 -0.7695  0.1205 -0.3889
 8706TIP3    H147533   3.760   3.202   0.048  0.4783  0.4439 -1.2846
 8706TIP3    H247534   3.715   3.304   0.151 -0.5863 -1.0821 -0.2130
 8707TIP3   OH247535   2.902   3.253   2.053  0.2158  0.2624 -0.1194
 8707TIP3    H147536   2.840   3.232   1.983  0.1482 -1.2822  0.3939
 8707TIP3    H247537   2.967   3.183   2.049 -0.6277 -0.7161  2.3347
 8708TIP3   OH247538   5.795   0.457  12.028  0.4430  0.0622 -0.2483
 8708TIP3    H147539   5.871   0.423  12.076 -0.3280 -0.4873  0.5917
 8708TIP3    H247540   5.720   0.419  12.073 -0.3140  0.2000 -1.4024
 8709TIP3   OH247541   5.729   3.058  17.200  0.5475  0.4675 -0.4724
 8709TIP3    H147542   5.656   3.116  17.177  1.4127  1.4371 -0.8159
 8709TIP3    H247543   5.761   3.026  17.116  0.5865  0.1276 -0.3249
 8710TIP3   OH247544   4.800   3.781   0.372  0.4546  0.1442  0.6832
 8710TIP3    H147545   4.872   3.726   0.402  1.6267  1.1830 -0.1697
 8710TIP3    H247546   4.832   3.820   0.290 -0.7667  1.2200  0.7041
 8711TIP3   OH247547   5.198   4.939  11.458  0.0938  0.0417 -0.2474
 8711TIP3    H147548   5.294   4.941  11.456  0.1112  1.2726  1.0810
 8711TIP3    H247549   5.174   5.015  11.510 -1.5825 -0.8818  0.3500
 8712TIP3   OH247550   2.972   3.050   5.911  0.5379  0.1138  0.4429
 8712TIP3    H147551   2.919   3.093   5.978  0.5907  0.1232  0.4796
 8712TIP3    H247552   3.003   2.970   5.953  1.6045  0.7263  0.8740
 8713TIP3   OH247553   5.242   5.883   4.074 -0.2791 -0.0822  0.1914
 8713TIP3    H147554   5.158   5.881   4.028 -0.1201  0.0729 -0.1082
 8713TIP3    H247555   5.295   5.944   4.024  0.4825 -1.2563 -0.4491
 8714TIP3   OH247556   4.012   1.441  15.805 -0.0225  0.0317 -0.9826
 8714TIP3    H147557   4.012   1.413  15.897 -1.4551 -0.0260 -0.9917
 8714TIP3    H247558   4.088   1.398  15.767 -0.2678 -1.1379 -0.1756
 8715TIP3   OH247559   1.662   6.003   3.192 -0.2364 -0.2735  0.1159
 8715TIP3    H147560   1.746   5.997   3.148 -0.4033 -1.3712 -0.0625
 8715TIP3    H247561   1.682   5.986   3.284 -0.2331 -0.2751  0.1149
 8716TIP3   OH247562   6.240   2.282  11.983  0.4321  0.4610 -0.0477
 8716TIP3    H147563   6.310   2.216  11.986  0.3819  0.3932 -0.3355
 8716TIP3    H247564   6.266   2.341  11.911  0.6047  0.8980  0.3674
 8717TIP3   OH247565   5.363   1.367  12.269  0.0056  0.0074 -0.6526
 8717TIP3    H147566   5.351   1.334  12.358  2.0585  1.0252  0.0428
 8717TIP3    H247567   5.279   1.405  12.246 -0.0210  1.4305  1.6064
 8718TIP3   OH247568   5.886   3.305  11.192 -0.0530  0.5083  0.1256
 8718TIP3    H147569   5.974   3.312  11.229  0.6129  0.6757 -1.4617
 8718TIP3    H247570   5.897   3.251  11.113 -1.2434  1.1549 -0.4951
 8719TIP3   OH247571   2.458   1.368   5.334 -0.6651  0.1138  0.8255
 8719TIP3    H147572   2.435   1.426   5.407 -0.7485  2.3879 -0.9609
 8719TIP3    H247573   2.547   1.338   5.354 -0.3335  1.4530  1.3940
 8720TIP3   OH247574   0.906   1.882   4.558 -0.1257 -0.0609  0.3736
 8720TIP3    H147575   0.927   1.923   4.642 -3.0973 -1.0613  1.6572
 8720TIP3    H247576   0.935   1.791   4.568 -1.4572 -0.4567  0.7431
 8721TIP3   OH247577   3.226   3.101   2.933 -0.3198  0.1208  0.3678
 8721TIP3    H147578   3.298   3.048   2.897 -0.6509 -0.2031  0.1745
 8721TIP3    H247579   3.200   3.055   3.013 -0.7234 -0.1054  0.1080
 8722TIP3   OH247580   6.425   4.955  14.049 -0.3446 -0.0610  0.4307
 8722TIP3    H147581   6.402   4.947  13.956  1.9773 -0.3673 -0.1594
 8722TIP3    H247582   6.419   4.866  14.083  0.6309 -0.2489  0.1123
 8723TIP3   OH247583   4.602   4.630   4.913  0.1547  0.9736 -0.5158
 8723TIP3    H147584   4.611   4.551   4.860 -0.1638  0.3556  0.3318
 8723TIP3    H247585   4.690   4.667   4.917  0.5469 -0.0231  0.1128
 8724TIP3   OH247586   6.354   5.301  11.463 -0.4475 -0.1809 -0.2698
 8724TIP3    H147587   6.448   5.303  11.479 -0.6436  2.4672  0.8157
 8724TIP3    H247588   6.345   5.306  11.368  0.5099 -0.1749 -0.3610
 8725TIP3   OH247589   2.724   0.728  15.569  0.9044 -0.1762 -0.2656
 8725TIP3    H147590   2.733   0.652  15.625 -0.0507 -0.6338 -0.7270
 8725TIP3    H247591   2.736   0.803  15.627 -1.7012 -0.5996  0.8773
 8726TIP3   OH247592   1.303   6.464   4.925 -0.5380  0.0214 -0.1393
 8726TIP3    H147593   1.277   6.442   4.836  0.4934 -0.6425 -0.2920
 8726TIP3    H247594   1.281   6.387   4.977  2.5997 -1.2367 -0.5797
 8727TIP3   OH247595   3.390   6.658  12.259 -0.2846 -0.3402  0.1868
 8727TIP3    H147596   3.347   6.655  12.345 -0.7902 -1.1607 -0.0860
 8727TIP3    H247597   3.388   6.567  12.228 -0.1781 -0.0332 -0.7271
 8728TIP3   OH247598   1.911   1.273   1.254  0.2525  0.4419  0.2323
 8728TIP3    H147599   1.881   1.364   1.250 -1.8498 -0.1867  0.9451
 8728TIP3    H247600   1.885   1.243   1.341 -0.1888 -1.2090 -0.4448
 8729TIP3   OH247601   1.174   0.242  10.821  0.3993 -0.3271  0.0199
 8729TIP3    H147602   1.118   0.165  10.826 -0.0649 -0.0154 -0.2817
 8729TIP3    H247603   1.116   0.315  10.844  0.9844 -0.1399  0.9035
 8730TIP3   OH247604   3.719   0.360  11.975  0.4260 -0.2523  0.1353
 8730TIP3    H147605   3.752   0.371  11.885  0.1258 -0.4376  0.0033
 8730TIP3    H247606   3.776   0.416  12.028 -0.1237  0.7723 -0.3291
 8731TIP3   OH247607   3.517   5.669   2.898  0.1597  0.1354 -0.2824
 8731TIP3    H147608   3.520   5.582   2.859  0.2784 -0.1851  0.4423
 8731TIP3    H247609   3.478   5.656   2.984  2.3689  0.4531  0.7838
 8732TIP3   OH247610   2.369   0.455  11.688 -0.6844  0.5308 -0.1990
 8732TIP3    H147611   2.362   0.388  11.620  1.4859  0.0684  0.0235
 8732TIP3    H247612   2.430   0.519  11.652 -0.6589  1.0270  0.7318
 8733TIP3   OH247613   3.560   6.225  13.557 -0.5761  0.3326 -0.1679
 8733TIP3    H147614   3.467   6.218  13.577 -0.2191 -1.8573  1.0200
 8733TIP3    H247615   3.575   6.318  13.542 -2.9246  0.7303 -0.2728
 8734TIP3   OH247616   3.340   3.508  12.451 -0.0378  0.5821 -0.0903
 8734TIP3    H147617   3.294   3.562  12.387  3.0671  2.1174 -1.1277
 8734TIP3    H247618   3.385   3.570  12.508  0.3815 -0.8539  1.1846
 8735TIP3   OH247619   6.428   5.576   4.321  0.7575 -0.6929 -0.5768
 8735TIP3    H147620   6.475   5.635   4.380 -0.6201  0.0155 -0.1831
 8735TIP3    H247621   6.378   5.519   4.379 -0.0590 -0.4543 -1.0477
 8736TIP3   OH247622   4.128   2.258  15.478  0.0617 -0.7056  0.4637
 8736TIP3    H147623   4.092   2.173  15.452  1.4348 -1.1425 -0.0326
 8736TIP3    H247624   4.217   2.239  15.507  0.5442  0.6212 -0.0865
 8737TIP3   OH247625   1.042   6.731  15.717  0.3767 -0.6080 -0.4028
 8737TIP3    H147626   1.069   6.643  15.690  0.1286 -0.8375  0.0917
 8737TIP3    H247627   0.977   6.717  15.786 -0.4978 -0.0444 -1.0979
 8738TIP3   OH247628   3.009   2.030  11.669  0.6225 -0.7322  0.1282
 8738TIP3    H147629   2.967   2.116  11.663  0.6698 -0.6795  0.5291
 8738TIP3    H247630   2.936   1.968  11.675  0.4855 -1.0054 -3.1897
 8739TIP3   OH247631   3.724   3.351  16.830  0.4616  0.4072 -0.3243
 8739TIP3    H147632   3.683   3.438  16.830  1.3442  0.8392 -1.6738
 8739TIP3    H247633   3.773   3.348  16.748  0.1034 -1.5402 -0.4774
 8740TIP3   OH247634   4.855   2.173   1.351 -0.4147  0.1487  0.2157
 8740TIP3    H147635   4.865   2.249   1.294  2.5366 -1.1500 -1.1035
 8740TIP3    H247636   4.767   2.140   1.333 -1.1805  2.3605 -0.2657
 8741TIP3   OH247637   0.587   5.261  12.196 -0.2278 -0.3818  0.2525
 8741TIP3    H147638   0.642   5.261  12.274 -0.0426 -0.8550  0.1207
 8741TIP3    H247639   0.588   5.171  12.165 -1.2062 -0.4177  0.3322
 8742TIP3   OH247640   5.954   4.515   3.883 -0.4482 -0.0020 -0.4884
 8742TIP3    H147641   5.962   4.498   3.977 -0.8363 -1.6917 -0.7500
 8742TIP3    H247642   6.037   4.485   3.846 -1.3658 -1.9454 -1.0298
 8743TIP3   OH247643   2.615   6.090   1.294 -0.4198  0.1965  0.4121
 8743TIP3    H147644   2.551   6.090   1.222 -1.4848  0.9607  1.3478
 8743TIP3    H247645   2.632   5.998   1.312 -0.7914 -0.0025 -0.2514
 8744TIP3   OH247646   0.124   4.314  11.122 -0.3922  0.5558 -0.6674
 8744TIP3    H147647   0.040   4.309  11.078 -0.0987 -0.4184 -1.1241
 8744TIP3    H247648   0.108   4.276  11.209 -0.5662  0.9304 -0.5344
 8745TIP3   OH247649   3.550   4.396  15.088 -0.1702  0.5589 -0.0239
 8745TIP3    H147650   3.478   4.456  15.109 -1.3193 -1.5761  2.3944
 8745TIP3    H247651   3.516   4.344  15.014 -0.7820  0.1453  0.5442
 8746TIP3   OH247652   0.853   2.472   0.542  0.1283 -0.5049 -0.2899
 8746TIP3    H147653   0.852   2.538   0.611 -0.0379 -0.8145  0.0050
 8746TIP3    H247654   0.842   2.389   0.588 -1.9432 -0.5717 -0.8629
 8747TIP3   OH247655   2.426   4.349   0.166 -0.4869 -0.8385 -0.7229
 8747TIP3    H147656   2.387   4.375   0.249  1.8485  0.8864 -0.1329
 8747TIP3    H247657   2.467   4.264   0.184  1.9821  0.5634  0.5755
 8748TIP3   OH247658   4.059   2.968   4.725 -0.2188  0.0716  0.0016
 8748TIP3    H147659   4.053   2.964   4.630 -0.8346 -1.5091  0.0927
 8748TIP3    H247660   3.978   2.927   4.756 -0.7314  1.9423  1.2013
 8749TIP3   OH247661   1.109   2.235   1.149 -0.7850 -0.1305 -0.3528
 8749TIP3    H147662   1.158   2.283   1.216 -0.7496  1.3762 -1.4261
 8749TIP3    H247663   1.093   2.299   1.080 -2.3844 -1.1769 -1.0021
 8750TIP3   OH247664   2.888   1.536   1.816 -0.4074  0.3383  0.1729
 8750TIP3    H147665   2.795   1.552   1.833 -0.3794 -0.0777  0.7076
 8750TIP3    H247666   2.934   1.598   1.872 -0.2723 -2.2276  3.0254
 8751TIP3   OH247667   1.442   2.390  11.486  0.4138 -0.0576 -0.3858
 8751TIP3    H147668   1.445   2.457  11.554  0.5494 -1.3548  0.9281
 8751TIP3    H247669   1.360   2.343  11.501  0.5663 -0.5232 -0.9492
 8752TIP3   OH247670   4.620   2.411   4.026 -0.7263 -0.1404  0.0379
 8752TIP3    H147671   4.618   2.448   4.114  0.0856 -0.8280  0.3567
 8752TIP3    H247672   4.714   2.404   4.005 -0.8764 -1.2165 -0.3360
 8753TIP3   OH247673   2.024   4.664   0.035  0.0187  0.3538  0.0201
 8753TIP3    H147674   2.007   4.724   0.107 -0.6120 -0.0893  0.2454
 8753TIP3    H247675   2.015   4.577   0.073  0.6599  0.1080 -0.3667
 8754TIP3   OH247676   1.774   4.823  16.621 -0.2209  0.1022  0.2791
 8754TIP3    H147677   1.760   4.733  16.591 -2.1774 -0.0855  1.6483
 8754TIP3    H247678   1.708   4.874  16.574  0.5953  0.7551 -0.1583
 8755TIP3   OH247679   5.208   5.639  14.825 -0.0043  0.6140 -0.4148
 8755TIP3    H147680   5.250   5.644  14.740  0.0628  2.1191 -0.3135
 8755TIP3    H247681   5.215   5.547  14.851  2.5431  0.6885 -0.7421
 8756TIP3   OH247682   2.110   4.192   0.001  0.4430  0.1912  0.3482
 8756TIP3    H147683   2.160   4.265  -0.036 -1.1279  1.6308  1.0136
 8756TIP3    H247684   2.027   4.194  -0.045  0.5459 -1.4930  0.0525
 8757TIP3   OH247685   3.223   0.438   5.714 -0.3909 -0.1612 -0.1518
 8757TIP3    H147686   3.253   0.352   5.742 -1.7512 -0.7157 -0.3335
 8757TIP3    H247687   3.187   0.423   5.626 -1.7294  0.3314  0.2892
 8758TIP3   OH247688   1.808   5.355  12.802  0.2506 -0.4275 -0.1087
 8758TIP3    H147689   1.766   5.439  12.823  1.5860  0.4310 -0.8278
 8758TIP3    H247690   1.744   5.309  12.748 -0.0806  0.5542 -0.5600
 8759TIP3   OH247691   3.237   1.227   1.075  0.1677 -0.2519  0.4275
 8759TIP3    H147692   3.196   1.228   1.162  0.3722  0.1628  0.5218
 8759TIP3    H247693   3.164   1.242   1.014 -0.1034 -1.3797  0.4716
 8760TIP3   OH247694   2.672   0.481  13.302 -0.0594  0.4699  0.1747
 8760TIP3    H147695   2.578   0.461  13.300  0.0266  0.1102 -0.4438
 8760TIP3    H247696   2.693   0.503  13.212  0.4739  0.4505  0.2955
 8761TIP3   OH247697   5.276   6.441   1.267 -0.5076 -0.4544 -0.0852
 8761TIP3    H147698   5.209   6.450   1.336 -0.4070 -0.8531  0.0682
 8761TIP3    H247699   5.238   6.378   1.205 -0.0330 -1.1265  0.3017
 8762TIP3   OH247700   1.764   4.330   4.288  0.2956 -0.4905  0.5584
 8762TIP3    H147701   1.775   4.308   4.381  0.5429 -2.2479  0.1357
 8762TIP3    H247702   1.846   4.370   4.262 -0.0001  0.5840  1.2433
 8763TIP3   OH247703   1.002   3.016  14.788  0.1132 -0.1078  0.7287
 8763TIP3    H147704   1.039   3.003  14.701  2.1741 -1.5476  1.7971
 8763TIP3    H247705   1.054   3.087  14.826 -1.8196  1.6303  0.2394
 8764TIP3   OH247706   5.392   6.724  13.684 -0.7327 -0.3690 -0.1162
 8764TIP3    H147707   5.448   6.790  13.726 -1.7709  1.4290 -1.4921
 8764TIP3    H247708   5.309   6.729  13.731 -1.3108  0.4018 -1.1884
 8765TIP3   OH247709   0.402   0.310  13.973  0.0076 -0.2414 -0.4346
 8765TIP3    H147710   0.478   0.368  13.973 -0.1483 -0.0338 -0.2487
 8765TIP3    H247711   0.337   0.355  14.027 -0.3101 -0.3386 -0.7298
 8766TIP3   OH247712   0.284   3.447   3.680  0.0780 -0.6908  0.4210
 8766TIP3    H147713   0.290   3.361   3.638  1.0107  0.8786 -2.7880
 8766TIP3    H247714   0.190   3.462   3.690 -0.1261 -1.5992 -0.0206
 8767TIP3   OH247715   0.491   1.092   4.447  0.2063 -0.2718  0.4332
 8767TIP3    H147716   0.450   1.006   4.449  1.5528 -0.8995  1.2980
 8767TIP3    H247717   0.524   1.101   4.358  0.9605 -1.0687  0.6333
 8768TIP3   OH247718   6.113   1.040  14.497 -0.1075 -0.4390  0.0461
 8768TIP3    H147719   6.068   1.055  14.581  0.3554 -0.7875  0.3534
 8768TIP3    H247720   6.043   1.047  14.432 -0.6318 -1.0904  0.5337
 8769TIP3   OH247721   5.209   4.565  16.392 -0.2301 -0.0727  0.8689
 8769TIP3    H147722   5.149   4.634  16.363 -2.1829 -1.6198  1.1228
 8769TIP3    H247723   5.153   4.489  16.406  1.8159 -1.5818  1.0779
 8770TIP3   OH247724   0.374   2.487   4.635 -0.2352 -0.1839  0.2428
 8770TIP3    H147725   0.446   2.526   4.684 -2.0401  2.2740  1.0222
 8770TIP3    H247726   0.310   2.557   4.625 -1.0988 -1.3779 -3.3642
 8771TIP3   OH247727   0.898   6.630  14.130  0.1005  0.2841 -0.3988
 8771TIP3    H147728   0.953   6.607  14.205 -0.0048 -1.6303 -0.8837
 8771TIP3    H247729   0.892   6.726  14.133  0.7548  0.2854  1.5636
 8772TIP3   OH247730   6.614   2.907   4.324 -0.1683  0.6030  0.1989
 8772TIP3    H147731   6.555   2.870   4.389 -1.4923  0.9253 -0.8092
 8772TIP3    H247732   6.681   2.952   4.375 -0.4062 -0.3392  1.3625
 8773TIP3   OH247733   1.855   0.802  16.027  0.3012 -0.1483  0.0092
 8773TIP3    H147734   1.934   0.856  16.027  1.0730 -1.2687 -0.3524
 8773TIP3    H247735   1.814   0.820  15.942  1.2568 -1.1183 -0.6725
 8774TIP3   OH247736   6.401   6.240   5.857  0.5559 -0.3046  0.2806
 8774TIP3    H147737   6.311   6.219   5.832  0.3963 -0.1130  0.6946
 8774TIP3    H247738   6.432   6.161   5.902 -0.5556  0.8880  3.2075
 8775TIP3   OH247739   4.448   1.121   0.341 -0.0032  0.0606  0.2913
 8775TIP3    H147740   4.486   1.041   0.377 -1.3491  0.0904  1.8220
 8775TIP3    H247741   4.364   1.094   0.304  0.0904  0.5391 -0.2719
 8776TIP3   OH247742   1.032   1.060   1.751 -0.1405  0.0921 -0.0585
 8776TIP3    H147743   1.075   1.067   1.666  0.5781  1.4445  0.4018
 8776TIP3    H247744   1.101   1.075   1.815 -0.4050 -2.2625  0.8211
 8777TIP3   OH247745   4.739   2.226  11.487  0.1638  0.5866  1.0080
 8777TIP3    H147746   4.783   2.311  11.475 -0.3092  0.7414  0.3641
 8777TIP3    H247747   4.653   2.238  11.447  0.9779 -0.9461 -1.2709
 8778TIP3   OH247748   0.310   3.542   0.424 -0.4677  0.4227 -0.2898
 8778TIP3    H147749   0.308   3.633   0.397  0.1003  0.0649 -1.6196
 8778TIP3    H247750   0.359   3.542   0.506 -0.5871  1.3284 -0.2146
 8779TIP3   OH247751   2.117   6.175   0.084  0.1265 -0.2859  0.3086
 8779TIP3    H147752   2.053   6.136   0.024 -0.2395  1.3341 -0.3793
 8779TIP3    H247753   2.066   6.238   0.136  0.7233 -0.6474  1.3629
 8780TIP3   OH247754   4.644   5.632  11.829  0.7793  0.1877  0.3923
 8780TIP3    H147755   4.679   5.718  11.853  1.3084 -0.0648  0.5446
 8780TIP3    H247756   4.555   5.649  11.799  1.4060  0.9953 -1.0673
 8781TIP3   OH247757   2.142   1.402   2.821  0.5074  0.1222 -0.4647
 8781TIP3    H147758   2.077   1.451   2.872 -0.2739 -0.6589 -0.6977
 8781TIP3    H247759   2.157   1.322   2.871  0.1588 -0.3919 -1.1702
 8782TIP3   OH247760   6.613   1.563   4.456  0.4582 -0.0894 -0.3034
 8782TIP3    H147761   6.547   1.611   4.506  0.1916 -1.0229  0.2532
 8782TIP3    H247762   6.573   1.548   4.371  0.1567 -0.1785 -0.1487
 8783TIP3   OH247763   0.649   4.306  14.790 -0.5954 -0.2261  0.1819
 8783TIP3    H147764   0.601   4.223  14.790 -0.1955 -0.4620  0.7718
 8783TIP3    H247765   0.726   4.289  14.844  0.0135  0.2295 -0.5287
 8784TIP3   OH247766   5.356   3.743   0.664  0.1920  0.1083 -0.1252
 8784TIP3    H147767   5.301   3.791   0.727 -0.1486 -0.0002 -0.3429
 8784TIP3    H247768   5.360   3.654   0.699  2.6847  0.8116  1.5158
 8785TIP3   OH247769   6.532   4.885  12.322  0.5151  0.2581 -0.4730
 8785TIP3    H147770   6.545   4.924  12.236  0.1523 -1.5913 -1.3930
 8785TIP3    H247771   6.619   4.854  12.347  0.5625  0.5271 -0.3002
 8786TIP3   OH247772   6.694   3.008   2.831 -0.6180  0.4958 -0.1150
 8786TIP3    H147773   6.613   2.980   2.789  0.9877 -2.2399 -1.5418
 8786TIP3    H247774   6.760   3.002   2.762  1.6593 -1.9084  2.1453
 8787TIP3   OH247775   3.719   3.331  15.702 -0.6816 -0.2799  0.5393
 8787TIP3    H147776   3.636   3.362  15.664 -1.6100  0.1428  2.8425
 8787TIP3    H247777   3.722   3.238  15.680 -0.7110  0.1592 -1.4029
 8788TIP3   OH247778   4.496   2.909  14.892 -0.1722  0.0979  0.2967
 8788TIP3    H147779   4.487   2.965  14.969  0.2042 -0.2390  0.5788
 8788TIP3    H247780   4.510   2.971  14.820  2.7260  0.2772  0.9530
 8789TIP3   OH247781   5.906   6.408   2.479  0.2385 -0.1341 -0.9020
 8789TIP3    H147782   5.817   6.406   2.443 -0.8814 -0.1194  1.7258
 8789TIP3    H247783   5.915   6.495   2.516  0.0916 -1.1967  1.7436
 8790TIP3   OH247784   0.733   5.165  15.608 -0.4353  0.2267 -0.3130
 8790TIP3    H147785   0.771   5.235  15.554  1.4595 -1.1541 -0.8055
 8790TIP3    H247786   0.692   5.106  15.545 -0.8002  0.1444 -0.0001
 8791TIP3   OH247787   2.863   1.744   5.087  0.4445 -0.8568  0.7766
 8791TIP3    H147788   2.907   1.689   5.022  1.1788  0.7892 -0.1534
 8791TIP3    H247789   2.906   1.722   5.170 -0.1018 -2.5574  0.6111
 8792TIP3   OH247790   5.139   1.081  12.386 -0.8200 -0.0899 -1.0915
 8792TIP3    H147791   5.206   1.015  12.369 -0.6528 -0.3080  0.3986
 8792TIP3    H247792   5.179   1.140  12.450 -1.3887  0.8210 -1.5601
 8793TIP3   OH247793   4.686   4.975  10.614  0.0959  0.0143 -0.5057
 8793TIP3    H147794   4.635   4.901  10.648 -1.2551  1.1675  0.0516
 8793TIP3    H247795   4.657   4.984  10.523 -1.0307  0.9164 -0.0760
 8794TIP3   OH247796   5.499   3.589  14.136 -0.5966 -0.5997 -0.1290
 8794TIP3    H147797   5.437   3.660  14.147 -0.9236 -1.0839  1.2140
 8794TIP3    H247798   5.495   3.540  14.218 -0.5501 -2.3063 -1.1138
 8795TIP3   OH247799   0.705   5.301   6.493 -0.3050  0.5501  0.3730
 8795TIP3    H147800   0.622   5.269   6.459 -1.2848  2.9558  0.4724
 8795TIP3    H247801   0.771   5.257   6.439 -1.6345 -0.7635 -0.2203
 8796TIP3   OH247802   2.014   5.028  16.208 -0.1110 -0.4500  0.2055
 8796TIP3    H147803   1.989   5.016  16.300 -0.9125  1.1754  0.2151
 8796TIP3    H247804   2.057   5.113  16.205  1.1257 -1.0907 -0.6968
 8797TIP3   OH247805   3.573   4.515   4.877  0.3294 -0.2428 -0.1654
 8797TIP3    H147806   3.497   4.470   4.914 -0.6551  2.7372  1.6436
 8797TIP3    H247807   3.603   4.573   4.947  1.4171  2.0411 -2.4371
 8798TIP3   OH247808   2.561   5.738   0.458  0.5653 -0.2834 -0.0355
 8798TIP3    H147809   2.597   5.689   0.383  0.3346  0.0080 -0.3319
 8798TIP3    H247810   2.494   5.794   0.421  0.8936  0.3316  0.2998
 8799TIP3   OH247811   6.433   2.255  16.469  0.2346 -0.4482  0.6977
 8799TIP3    H147812   6.453   2.162  16.470  1.0528 -0.2713  1.0267
 8799TIP3    H247813   6.396   2.271  16.382  2.3304 -0.6188 -0.2646
 8800TIP3   OH247814   4.318   6.222   2.823 -0.1434 -0.3436 -0.4239
 8800TIP3    H147815   4.245   6.192   2.769 -0.2688  0.6351 -0.8171
 8800TIP3    H247816   4.317   6.164   2.899 -1.6700 -0.0281 -0.1745
 8801TIP3   OH247817   0.866   4.689   5.689 -0.3164  0.6551  0.4658
 8801TIP3    H147818   0.870   4.681   5.784 -1.3791 -1.0827  0.3738
 8801TIP3    H247819   0.957   4.675   5.660 -0.5264 -1.9388  1.0019
 8802TIP3   OH247820   5.924   0.699  12.166  0.6975  0.3561  0.5300
 8802TIP3    H147821   5.844   0.741  12.137  0.2121  0.0820  1.4389
 8802TIP3    H247822   5.912   0.686  12.260  1.2089 -0.9886  0.4267
 8803TIP3   OH247823   4.978   6.027   3.721 -0.0227  0.2092 -0.2604
 8803TIP3    H147824   5.016   5.985   3.644  1.7489 -1.0838  1.2667
 8803TIP3    H247825   5.017   6.115   3.721 -0.8815  0.6144 -1.4075
 8804TIP3   OH247826   5.264   2.551  15.294  0.2769  0.0497  0.5630
 8804TIP3    H147827   5.216   2.608  15.354 -0.6735 -1.2372  1.0302
 8804TIP3    H247828   5.302   2.484  15.350  0.1696 -0.6159 -0.1609
 8805TIP3   OH247829   0.746   1.896   4.271  0.1097  0.2709 -0.3697
 8805TIP3    H147830   0.671   1.861   4.224  0.0441 -0.2486  0.1158
 8805TIP3    H247831   0.726   1.988   4.284 -1.7501 -0.4649  2.2857
 8806TIP3   OH247832   3.334   5.999   1.519 -0.0080  0.8845  0.2261
 8806TIP3    H147833   3.313   5.944   1.594  0.1365  1.3205  0.5934
 8806TIP3    H247834   3.287   5.960   1.446 -0.4720  0.6839  0.6276
 8807TIP3   OH247835   0.753   5.066  12.852  0.6130  0.5962 -0.1249
 8807TIP3    H147836   0.744   4.976  12.882 -0.2007  1.1162  1.2521
 8807TIP3    H247837   0.711   5.068  12.766 -1.2215  0.1404  0.7530
 8808TIP3   OH247838   5.875   1.237  13.570 -0.7751  0.1187  0.0776
 8808TIP3    H147839   5.816   1.293  13.520  0.7930  1.2815 -0.5077
 8808TIP3    H247840   5.890   1.161  13.514 -0.2657  0.6841 -0.5587
 8809TIP3   OH247841   5.996   6.172   3.133 -0.5213  0.2632  0.4279
 8809TIP3    H147842   6.019   6.209   3.218  0.7164 -2.5466  1.3788
 8809TIP3    H247843   5.910   6.132   3.147  0.9361 -2.7764  1.2868
 8810TIP3   OH247844   2.669   4.779   3.396  0.0705 -0.0002 -0.1577
 8810TIP3    H147845   2.705   4.793   3.484 -0.2725  0.0159 -0.0207
 8810TIP3    H247846   2.601   4.713   3.409  0.6471 -0.6775 -0.5583
 8811TIP3   OH247847   3.991   1.993  15.461  0.5405 -0.6564 -0.6609
 8811TIP3    H147848   3.916   1.939  15.437  0.4224 -0.7992  0.0160
 8811TIP3    H247849   3.990   1.995  15.557  2.3926 -2.0792 -0.5775
 8812TIP3   OH247850   1.351   5.466   3.489 -0.7375  0.0197 -0.3141
 8812TIP3    H147851   1.269   5.420   3.509 -0.8028  0.6340  0.9482
 8812TIP3    H247852   1.352   5.539   3.552 -0.7248  1.8319 -2.3751
 8813TIP3   OH247853   4.324   4.743  10.813  0.4479  0.1906 -0.2386
 8813TIP3    H147854   4.416   4.735  10.789 -0.0072 -0.8363 -1.7308
 8813TIP3    H247855   4.301   4.833  10.788  0.7580  0.0980 -0.8650
 8814TIP3   OH247856   3.171   0.260   6.317 -0.1214  0.2098 -0.2189
 8814TIP3    H147857   3.250   0.295   6.358  0.0404 -1.0488  0.5693
 8814TIP3    H247858   3.145   0.187   6.374 -0.4809 -0.9063 -1.7758
 8815TIP3   OH247859   5.803   0.138   2.682 -0.4073  0.2131 -0.0383
 8815TIP3    H147860   5.778   0.108   2.770 -0.7301 -0.2897 -0.2983
 8815TIP3    H247861   5.737   0.202   2.659 -0.1908  0.5159  0.1778
 8816TIP3   OH247862   0.162   4.881   0.620 -0.2825 -0.1705  0.3938
 8816TIP3    H147863   0.143   4.925   0.702  3.5805  2.5017 -0.0033
 8816TIP3    H247864   0.105   4.924   0.556  0.2561  1.1988  0.8176
 8817TIP3   OH247865   4.373   4.615  12.005  0.4059 -0.5204 -0.0032
 8817TIP3    H147866   4.292   4.635  11.958  0.7762 -0.5629 -0.6664
 8817TIP3    H247867   4.377   4.680  12.075  0.3385  0.1629 -0.6254
 8818TIP3   OH247868   6.407   0.193   4.588  0.3470 -0.7277  0.4145
 8818TIP3    H147869   6.472   0.181   4.518 -0.3404  0.4164 -0.4263
 8818TIP3    H247870   6.389   0.104   4.618  2.0230 -1.0869  0.4031
 8819TIP3   OH247871   3.669   3.060   1.594 -0.2807 -0.4320 -0.0092
 8819TIP3    H147872   3.680   3.123   1.523 -0.4188 -0.4960 -0.0858
 8819TIP3    H247873   3.622   3.108   1.662 -0.2319 -0.4004  0.0029
 8820TIP3   OH247874   2.846   1.924   4.450 -0.0215 -0.1074  0.0674
 8820TIP3    H147875   2.917   1.969   4.495  0.9278 -1.8354  0.3099
 8820TIP3    H247876   2.851   1.957   4.360  0.6566  0.2714  0.2365
 8821TIP3   OH247877   5.775   6.607   0.290 -0.2734 -0.7229  0.3242
 8821TIP3    H147878   5.837   6.678   0.276 -0.0453 -0.9249  0.3004
 8821TIP3    H247879   5.802   6.539   0.228 -0.9926 -0.5070 -0.2239
 8822TIP3   OH247880   0.668   3.357   4.962 -0.1035 -0.4255 -0.3182
 8822TIP3    H147881   0.710   3.377   5.045 -0.8853  1.6693 -0.3972
 8822TIP3    H247882   0.581   3.323   4.986 -0.4225  0.4145 -0.2840
 8823TIP3   OH247883   2.078   4.334   4.711  0.5780 -0.0016 -0.5064
 8823TIP3    H147884   2.144   4.317   4.778 -0.5481  1.3270  0.9735
 8823TIP3    H247885   2.129   4.355   4.632  1.9018  0.4145  0.4481
 8824TIP3   OH247886   1.302   2.660   1.020 -0.1989  0.4663  0.4063
 8824TIP3    H147887   1.286   2.740   0.971  0.8352  0.5501  0.1852
 8824TIP3    H247888   1.264   2.676   1.107 -0.4746  0.9850  0.1902
 8825TIP3   OH247889   0.550   5.076   3.226  0.4063  0.4511 -0.1045
 8825TIP3    H147890   0.525   5.043   3.140  1.4324 -0.5878 -0.0114
 8825TIP3    H247891   0.466   5.093   3.270 -0.1207  0.3918 -1.0767
 8826TIP3   OH247892   5.226   3.006   2.511  0.2303 -0.2950 -0.0996
 8826TIP3    H147893   5.170   2.938   2.472 -0.6278 -0.2194  0.9737
 8826TIP3    H247894   5.174   3.086   2.503  0.3229 -0.1639  0.5878
 8827TIP3   OH247895   2.484   1.769  11.495 -1.1631 -0.1508 -0.1448
 8827TIP3    H147896   2.459   1.837  11.558  0.3551 -0.7070  1.1072
 8827TIP3    H247897   2.545   1.812  11.436 -0.8595 -0.2110  0.1263
 8828TIP3   OH247898   6.212   1.371  15.594  0.2635 -0.0218  0.3603
 8828TIP3    H147899   6.256   1.358  15.510  0.5520 -1.3443  0.6906
 8828TIP3    H247900   6.192   1.464  15.597  1.4334  0.2777 -0.5983
 8829TIP3   OH247901   5.048   2.804   3.927 -0.6666 -0.1708  0.2659
 8829TIP3    H147902   4.974   2.808   3.987 -1.5175 -0.1248 -0.7708
 8829TIP3    H247903   5.050   2.891   3.886 -2.0748 -1.2048 -2.0871
 8830TIP3   OH247904   3.696   3.412  13.494  0.2177 -0.4754 -0.5281
 8830TIP3    H147905   3.645   3.452  13.564  0.6834 -0.7070 -0.0538
 8830TIP3    H247906   3.659   3.324  13.484  0.2293 -0.4841 -0.4927
 8831TIP3   OH247907   5.094   5.016   0.525  0.4183  0.7113  0.5855
 8831TIP3    H147908   5.164   4.988   0.466  1.4637  1.5938  1.3802
 8831TIP3    H247909   5.029   5.056   0.468 -0.2405 -1.5977 -0.3621
 8832TIP3   OH247910   5.729   0.449   2.690  0.1195  0.2993 -0.2324
 8832TIP3    H147911   5.810   0.400   2.707  0.1212  0.4004  0.0516
 8832TIP3    H247912   5.747   0.537   2.722  0.4451  0.7429 -1.6081
 8833TIP3   OH247913   3.209   0.129  12.639 -0.5472  1.0126  0.2497
 8833TIP3    H147914   3.296   0.136  12.599 -0.4774 -2.2491 -0.3190
 8833TIP3    H247915   3.148   0.156  12.569 -0.0375  3.2302  0.6248
 8834TIP3   OH247916   0.366   2.543   4.275  0.3738  0.3014 -0.9572
 8834TIP3    H147917   0.281   2.578   4.246  0.2091  0.7941  0.1227
 8834TIP3    H247918   0.401   2.610   4.332 -0.7426 -2.0137  2.5894
 8835TIP3   OH247919   6.477   4.538   6.178 -0.0906  0.1953 -0.5540
 8835TIP3    H147920   6.465   4.586   6.096 -1.8242  0.7212 -0.0041
 8835TIP3    H247921   6.400   4.482   6.185  0.2827 -0.2053  0.4787
 8836TIP3   OH247922   4.070   5.551  13.866 -0.7615 -0.1311 -0.2445
 8836TIP3    H147923   4.130   5.527  13.795 -0.8289  1.2579 -0.7962
 8836TIP3    H247924   4.085   5.486  13.934  3.1647  1.5920  0.6613
 8837TIP3   OH247925   4.024   0.040  10.933 -0.0212 -0.2444 -0.3399
 8837TIP3    H147926   4.036  -0.055  10.938  1.6051 -0.0158  0.2913
 8837TIP3    H247927   4.047   0.072  11.020  0.3875  0.8318 -0.8319
 8838TIP3   OH247928   3.631   2.513  15.287  0.3419 -0.5422 -0.1164
 8838TIP3    H147929   3.623   2.582  15.353  1.5375  0.2443 -0.7826
 8838TIP3    H247930   3.636   2.432  15.338  1.0539  0.0396  0.7556
 8839TIP3   OH247931   0.899   4.005  15.930  0.5594  0.5386 -0.1834
 8839TIP3    H147932   0.992   3.986  15.942  0.2937 -1.3757 -0.8943
 8839TIP3    H247933   0.896   4.073  15.863  1.4641  1.1205  0.3588
 8840TIP3   OH247934   5.244   3.443   6.548  0.0220 -0.0660  0.5191
 8840TIP3    H147935   5.253   3.375   6.481 -0.1112  0.5459 -0.1265
 8840TIP3    H247936   5.324   3.435   6.601  0.2527 -0.3831  0.1256
 8841TIP3   OH247937   3.328   6.520   2.759  0.3816  0.4384 -1.1038
 8841TIP3    H147938   3.284   6.552   2.681 -3.0802 -1.2721  0.0270
 8841TIP3    H247939   3.378   6.595   2.791  0.6729  1.5843 -4.1142
 8842TIP3   OH247940   0.265   2.627   5.670 -0.0129  0.3181 -0.3009
 8842TIP3    H147941   0.247   2.556   5.731  0.7332  0.2110 -0.2062
 8842TIP3    H247942   0.344   2.668   5.704  1.6237 -1.0491 -2.3713
 8843TIP3   OH247943   3.799   4.579  15.065  0.2956 -0.2795  0.6930
 8843TIP3    H147944   3.730   4.544  15.121 -0.4249 -0.4382 -0.2807
 8843TIP3    H247945   3.781   4.542  14.978 -0.2533  2.1764 -0.2865
 8844TIP3   OH247946   1.533   3.285   3.857  0.4145 -0.0797  0.4237
 8844TIP3    H147947   1.609   3.261   3.805 -0.4521 -0.5657 -0.6224
 8844TIP3    H247948   1.468   3.218   3.838 -1.5520  2.3051 -1.4756
 8845TIP3   OH247949   3.281   0.773   0.442  0.1460 -0.5459 -0.7510
 8845TIP3    H147950   3.210   0.794   0.502  2.0676 -0.1649  1.4925
 8845TIP3    H247951   3.325   0.699   0.482  3.1508  1.4504 -0.1766
 8846TIP3   OH247952   6.523   6.419  13.351 -0.5430  0.2437 -0.2279
 8846TIP3    H147953   6.483   6.442  13.267  0.3625  2.1754 -0.1612
 8846TIP3    H247954   6.606   6.377  13.328 -0.9371 -0.5034 -0.3061
 8847TIP3   OH247955   0.004   4.615  17.117 -0.0060  0.2093 -0.8080
 8847TIP3    H147956   0.088   4.585  17.152 -0.7342  1.5411  2.2430
 8847TIP3    H247957   0.006   4.710  17.128 -1.5015  0.3581 -1.6772
 8848TIP3   OH247958   0.466   0.255   1.853  0.1448 -0.3984  0.5311
 8848TIP3    H147959   0.443   0.274   1.944  0.8234 -0.2229  0.6661
 8848TIP3    H247960   0.561   0.247   1.853  0.1928  0.0841 -0.2524
 8849TIP3   OH247961   2.279   6.608  14.452  0.0077 -0.7488  0.3815
 8849TIP3    H147962   2.271   6.661  14.531  0.0644 -0.2398  0.0506
 8849TIP3    H247963   2.338   6.536  14.476  2.1893  0.8809  0.0532
 8850TIP3   OH247964   3.614   3.049  16.584  0.0224 -0.0353  0.1350
 8850TIP3    H147965   3.529   3.026  16.545  0.2167  0.3856 -0.5436
 8850TIP3    H247966   3.591   3.104  16.660 -0.4273 -2.0792  1.5289
 8851TIP3   OH247967   0.262   5.472  15.573  0.0235 -0.1881 -0.5728
 8851TIP3    H147968   0.235   5.460  15.482  2.9909  0.7220 -1.6231
 8851TIP3    H247969   0.342   5.420  15.582  0.7585  1.1595  0.9939
 8852TIP3   OH247970   0.602   2.808   2.193 -0.5732 -0.5237  0.2381
 8852TIP3    H147971   0.639   2.728   2.156 -0.8046  0.0536 -1.2695
 8852TIP3    H247972   0.678   2.859   2.222 -0.3502 -0.7156 -0.0040
 8853TIP3   OH247973   5.358   2.653   5.199  0.5285  0.1723  0.3468
 8853TIP3    H147974   5.270   2.684   5.219  0.1745 -0.5198 -0.1238
 8853TIP3    H247975   5.380   2.595   5.273 -0.7742 -2.3717 -1.2002
 8854TIP3   OH247976   0.250   0.732   5.983  0.0832 -0.2912  0.2013
 8854TIP3    H147977   0.261   0.639   5.964  1.3683 -0.0841 -0.1587
 8854TIP3    H247978   0.238   0.773   5.897 -0.4685 -0.1204  0.3583
 8855TIP3   OH247979   3.154   2.798   1.509  0.1573  0.2006  0.0214
 8855TIP3    H147980   3.240   2.829   1.481  0.4795 -1.1234 -0.5093
 8855TIP3    H247981   3.105   2.788   1.428 -0.2117  0.1145  0.2554
 8856TIP3   OH247982   4.951   2.435   5.421 -0.2887 -0.5041  0.2822
 8856TIP3    H147983   4.897   2.513   5.437 -0.1563 -0.1277 -0.9751
 8856TIP3    H247984   4.913   2.368   5.477  0.1516  0.6887  2.0609
 8857TIP3   OH247985   3.729   3.485  12.338 -0.1806  0.5962  0.1323
 8857TIP3    H147986   3.653   3.534  12.310 -0.3423 -0.1411 -0.7335
 8857TIP3    H247987   3.787   3.483  12.262 -0.2692 -0.7274  0.0885
 8858TIP3   OH247988   4.214   6.211  11.405  0.7195  0.7890 -0.0681
 8858TIP3    H147989   4.164   6.210  11.487  1.2729 -0.4539  0.2655
 8858TIP3    H247990   4.303   6.235  11.433  1.5411 -2.1799  0.1015
 8859TIP3   OH247991   3.579   2.551   5.872  0.4217  0.2287 -0.8239
 8859TIP3    H147992   3.510   2.611   5.845  0.8391  0.1412 -2.1434
 8859TIP3    H247993   3.543   2.503   5.947 -0.5447  0.9072 -0.8509
 8860TIP3   OH247994   4.882   2.399   1.195 -0.2002 -0.1501  0.5072
 8860TIP3    H147995   4.957   2.372   1.143  0.3017  0.2373  1.0302
 8860TIP3    H247996   4.889   2.495   1.199  0.5904 -0.2760  2.5256
 8861TIP3   OH247997   1.190   1.351  16.124  0.3227 -0.3692  0.6084
 8861TIP3    H147998   1.232   1.301  16.055 -1.0020 -0.7539  0.0679
 8861TIP3    H247999   1.255   1.416  16.150  1.6993 -1.7540  0.6631
 8862TIP3   OH248000   4.003   5.806   1.611  0.2697 -0.5368 -0.0483
 8862TIP3    H148001   4.086   5.801   1.563  0.1740 -1.0606 -0.1573
 8862TIP3    H248002   3.967   5.891   1.587  1.1619  0.0466  0.6235
 8863TIP3   OH248003   1.756   4.193  10.630 -0.1198 -0.3197 -0.0816
 8863TIP3    H148004   1.722   4.105  10.614 -0.0170 -0.9386  2.7721
 8863TIP3    H248005   1.800   4.187  10.715 -0.2773  2.5314  0.2763
 8864TIP3   OH248006   0.586   2.670   4.690  0.8507 -0.2518 -0.2470
 8864TIP3    H148007   0.667   2.622   4.673  1.7720  1.0886  0.1864
 8864TIP3    H248008   0.604   2.718   4.771  0.0407  0.9479 -0.7591
 8865TIP3   OH248009   0.828   0.051   4.733 -0.4516 -0.0684  0.2418
 8865TIP3    H148010   0.914   0.074   4.770 -1.1316  1.6882  0.7904
 8865TIP3    H248011   0.765   0.097   4.788 -1.6085  0.8074 -1.7474
 8866TIP3   OH248012   2.392   5.995   4.863 -0.4722  0.4502 -0.1723
 8866TIP3    H148013   2.321   6.057   4.879  0.1137  1.1125 -0.1049
 8866TIP3    H248014   2.360   5.939   4.792 -1.5764 -0.0943  0.7481
 8867TIP3   OH248015   6.389   1.106  13.940  0.1653  0.2005  0.5724
 8867TIP3    H148016   6.445   1.086  13.866  1.0223 -0.8647  1.4888
 8867TIP3    H248017   6.423   1.189  13.974  2.7809 -1.6256  2.5869
 8868TIP3   OH248018   0.141   3.450   0.847 -0.2645 -0.2031 -0.3367
 8868TIP3    H148019   0.192   3.394   0.789 -0.2308  0.0667 -0.5697
 8868TIP3    H248020   0.205   3.486   0.908 -0.4586 -1.2952  0.5171
 8869TIP3   OH248021   1.687   3.241  16.333  0.0731  0.5161  0.1923
 8869TIP3    H148022   1.669   3.188  16.256  0.8968  1.1285 -0.4373
 8869TIP3    H248023   1.780   3.262  16.326  0.6227 -0.9943  2.3513
 8870TIP3   OH248024   4.270   3.874  12.891  0.2392  0.1847  0.4477
 8870TIP3    H148025   4.246   3.820  12.966  0.0272 -1.7109 -0.9627
 8870TIP3    H248026   4.349   3.921  12.920 -0.2264 -0.0104  2.0814
 8871TIP3   OH248027   4.376   6.004   3.325  0.1590 -0.3170 -0.8521
 8871TIP3    H148028   4.411   6.004   3.414  1.2720 -2.4297 -1.2757
 8871TIP3    H248029   4.320   5.927   3.321 -1.5110  0.9005 -1.3747
 8872TIP3   OH248030   5.446   5.832  10.508 -0.1554  0.6355 -0.4169
 8872TIP3    H148031   5.529   5.784  10.505 -0.5128  0.0583 -0.9209
 8872TIP3    H248032   5.469   5.914  10.552  0.1673 -0.5362  1.6853
 8873TIP3   OH248033   2.489   6.375  11.983 -0.2050  0.1514  0.5434
 8873TIP3    H148034   2.433   6.297  11.982 -0.3663  0.2353 -2.1174
 8873TIP3    H248035   2.574   6.344  11.950  0.1092  0.8442  0.6933
 8874TIP3   OH248036   5.182   4.299  11.241 -0.1565  0.3523  0.2480
 8874TIP3    H148037   5.156   4.338  11.158  1.3339  0.4941 -0.1745
 8874TIP3    H248038   5.192   4.373  11.301  2.4817  0.6616 -0.5009
 8875TIP3   OH248039   2.230   1.968  14.246  0.1475 -0.1410 -0.1005
 8875TIP3    H148040   2.278   1.896  14.287  2.2112  0.4219 -1.4166
 8875TIP3    H248041   2.292   2.042  14.248 -1.0710  0.9296 -0.8777
 8876TIP3   OH248042   6.045   5.966   6.411  0.5793 -0.4278 -0.0983
 8876TIP3    H148043   5.975   5.923   6.362 -1.0082  0.7693  1.0594
 8876TIP3    H248044   6.079   6.033   6.352 -1.5058  1.1893  0.4835
 8877TIP3   OH248045   2.544   4.129   6.291 -0.0094 -0.6697  0.0780
 8877TIP3    H148046   2.474   4.091   6.344 -0.5918  0.7566  0.3487
 8877TIP3    H248047   2.571   4.207   6.340  1.2839 -0.8131 -0.3880
 8878TIP3   OH248048   0.222   1.978   3.939 -0.5213  0.3245  0.3726
 8878TIP3    H148049   0.151   1.914   3.933 -0.8958  0.9004 -1.9630
 8878TIP3    H248050   0.298   1.932   3.903 -0.1260  0.2793  1.2637
 8879TIP3   OH248051   2.549   0.708   3.435 -0.1457  0.0267  0.0942
 8879TIP3    H148052   2.506   0.646   3.376  2.7803 -1.4271 -0.6479
 8879TIP3    H248053   2.636   0.720   3.397  1.5337 -0.2696  3.6243
 8880TIP3   OH248054   5.711   4.360  11.451 -0.0795  0.4936  0.0756
 8880TIP3    H148055   5.796   4.316  11.454 -0.1162  0.5133  2.2176
 8880TIP3    H248056   5.648   4.291  11.432  0.2394  0.2091  0.0610
 8881TIP3   OH248057   3.927   1.785   4.495 -0.5316  0.1929 -0.4947
 8881TIP3    H148058   3.950   1.793   4.588 -0.5135 -0.6049 -0.4264
 8881TIP3    H248059   3.971   1.859   4.453  0.5887 -0.2201 -0.0672
 8882TIP3   OH248060   0.933   3.733  16.259  0.3003 -0.4287 -0.2794
 8882TIP3    H148061   0.976   3.730  16.344 -0.1076  0.5540 -0.0237
 8882TIP3    H248062   0.914   3.641  16.238 -0.0065 -0.6474  0.9077
 8883TIP3   OH248063   5.340   4.378   1.629  0.1334  0.5785  0.4688
 8883TIP3    H148064   5.351   4.344   1.718 -2.2102 -0.0036  0.5532
 8883TIP3    H248065   5.260   4.429   1.632 -1.2414 -1.3311 -1.8420
 8884TIP3   OH248066   1.292   2.133   4.775  0.1190  0.1801 -0.1199
 8884TIP3    H148067   1.278   2.220   4.738 -3.1117 -1.2038 -2.3969
 8884TIP3    H248068   1.356   2.092   4.716  0.5280  0.4845  0.1078
 8885TIP3   OH248069   3.619   2.590  11.570 -0.4970 -0.5120  0.4062
 8885TIP3    H148070   3.647   2.657  11.632  0.1193 -0.5833  0.2140
 8885TIP3    H248071   3.559   2.534  11.619 -0.8059  0.0313  0.6400
 8886TIP3   OH248072   5.851   0.851  14.205  0.1377  1.0647  0.0058
 8886TIP3    H148073   5.906   0.778  14.236 -1.7948 -0.0921  0.8126
 8886TIP3    H248074   5.830   0.829  14.114  1.4614  1.8054 -0.4939
 8887TIP3   OH248075   6.664   6.273   2.697  0.3156  0.0952  0.2271
 8887TIP3    H148076   6.655   6.231   2.782 -2.2205  4.0368  2.0273
 8887TIP3    H248077   6.722   6.348   2.712 -0.4082  1.0311 -1.4045
 8888TIP3   OH248078   5.448   4.465  11.623 -0.3481  0.0963  0.4071
 8888TIP3    H148079   5.488   4.386  11.659  0.0203  0.8080  1.5910
 8888TIP3    H248080   5.459   4.531  11.691 -1.7979  0.8364 -0.0469
 8889TIP3   OH248081   6.221   6.423  11.564  0.2163 -0.3209  0.3672
 8889TIP3    H148082   6.181   6.354  11.510 -0.2851  0.3286 -0.0915
 8889TIP3    H248083   6.303   6.384  11.595 -1.8058 -2.5255  3.1961
 8890TIP3   OH248084   0.706   5.200  11.877 -0.9184 -0.6373 -0.3970
 8890TIP3    H148085   0.780   5.215  11.935 -1.0871 -2.9311  0.4588
 8890TIP3    H248086   0.745   5.195  11.790 -0.1798 -0.9210 -0.0553
 8891TIP3   OH248087   2.486   5.594  12.081 -0.0288 -0.1171  0.0329
 8891TIP3    H148088   2.424   5.565  12.014 -1.1632 -0.7009  1.3047
 8891TIP3    H248089   2.519   5.678  12.049 -3.1616  1.3089  0.3747
 8892TIP3   OH248090   3.015   4.703   1.457  0.3007  0.0588 -0.0394
 8892TIP3    H148091   3.104   4.673   1.441  0.5052 -0.5172  2.0377
 8892TIP3    H248092   2.961   4.624   1.446  0.2252  0.0736  0.2283
 8893TIP3   OH248093   4.127   0.158   5.095  0.5336 -0.4702 -0.0592
 8893TIP3    H148094   4.213   0.201   5.098  0.3848 -0.1949  0.3663
 8893TIP3    H248095   4.126   0.113   5.011  1.0017 -0.2735 -0.1755
 8894TIP3   OH248096   5.110   5.276  10.809 -0.1660  0.1509 -0.6089
 8894TIP3    H148097   5.174   5.325  10.861  0.6269 -0.8325 -0.6371
 8894TIP3    H248098   5.142   5.186  10.810 -0.0422  0.1342 -2.9379
 8895TIP3   OH248099   3.154   2.786  13.808 -0.2225  0.4008 -0.3175
 8895TIP3    H148100   3.240   2.782  13.766 -0.0466  1.6938 -0.0833
 8895TIP3    H248101   3.092   2.796  13.736 -0.1740 -0.2843 -0.4652
 8896TIP3   OH248102   0.270   5.159   2.322  0.0046  0.0645 -0.1287
 8896TIP3    H148103   0.214   5.104   2.376 -0.3586 -0.2015 -0.7658
 8896TIP3    H248104   0.236   5.149   2.233  0.0419  1.1794 -0.2834
 8897TIP3   OH248105   6.759   4.516   3.357 -0.1726 -0.3868 -0.0743
 8897TIP3    H148106   6.676   4.526   3.310  0.3794  0.4855 -0.8736
 8897TIP3    H248107   6.819   4.577   3.314  0.8065 -0.7897  0.6926
 8898TIP3   OH248108   3.483   5.586   4.836 -0.1288  0.1463 -0.6009
 8898TIP3    H148109   3.509   5.651   4.902 -1.4006  2.0599 -1.9214
 8898TIP3    H248110   3.563   5.538   4.816  0.8584  1.3628  0.3650
 8899TIP3   OH248111   0.885   1.978  12.000 -0.5059 -0.2600  0.2484
 8899TIP3    H148112   0.945   2.013  11.934 -0.1511  0.1447  0.7867
 8899TIP3    H248113   0.908   2.024  12.080 -0.4828 -1.2397  0.8111
 8900TIP3   OH248114   0.969   4.695  11.282 -0.3866  0.6128 -0.1972
 8900TIP3    H148115   1.034   4.625  11.293 -1.4088 -0.1627  1.0387
 8900TIP3    H248116   1.012   4.758  11.224  0.6317 -0.9230 -1.1566
 8901TIP3   OH248117   3.891   4.831  11.985 -0.3897 -0.0290 -0.2641
 8901TIP3    H148118   3.895   4.862  12.076  0.5415 -0.8233 -0.0233
 8901TIP3    H248119   3.952   4.888  11.938 -1.3357  0.7814 -0.5148
 8902TIP3   OH248120   1.793   1.399   2.474  0.1791 -0.2112  0.4234
 8902TIP3    H148121   1.860   1.425   2.537  2.5377 -0.2506 -1.9812
 8902TIP3    H248122   1.832   1.418   2.388 -2.2036 -1.8777 -1.0805
 8903TIP3   OH248123   1.205   0.073   4.145 -0.7219 -0.6457  0.3991
 8903TIP3    H148124   1.248   0.068   4.231  1.8208  1.6819 -0.6529
 8903TIP3    H248125   1.258   0.017   4.089 -0.1262  0.7477 -0.4677
 8904TIP3   OH248126   1.541   4.432   3.186  0.2660  0.0891 -0.3141
 8904TIP3    H148127   1.536   4.525   3.208 -0.6371  0.0748 -0.4467
 8904TIP3    H248128   1.583   4.430   3.100  0.1289  0.3783 -0.3872
 8905TIP3   OH248129   1.415   3.490  12.553 -0.3424  0.3808  0.1223
 8905TIP3    H148130   1.456   3.555  12.610 -1.1430  0.6277  0.4263
 8905TIP3    H248131   1.322   3.515  12.551 -0.6547 -0.7531  0.2295
 8906TIP3   OH248132   4.509   3.909  11.742 -0.2202  0.5737  0.1402
 8906TIP3    H148133   4.438   3.953  11.788 -0.5733  1.5639 -1.3011
 8906TIP3    H248134   4.488   3.921  11.649  0.5883 -1.1761 -0.2853
 8907TIP3   OH248135   4.920   3.590  15.828 -0.2264 -0.3145 -0.0955
 8907TIP3    H148136   4.946   3.675  15.862  0.5928  0.0409 -1.5792
 8907TIP3    H248137   4.831   3.604  15.794 -1.1623 -0.7461  2.1185
 8908TIP3   OH248138   4.587   5.358   0.430 -0.5010 -0.3765 -1.0749
 8908TIP3    H148139   4.579   5.443   0.474 -0.1577 -0.8950 -0.0007
 8908TIP3    H248140   4.585   5.379   0.337 -0.0727  0.8463 -0.8140
 8909TIP3   OH248141   4.732   6.503  15.602  0.3802 -0.5438  0.1878
 8909TIP3    H148142   4.659   6.450  15.634  0.6896 -1.0858 -0.0134
 8909TIP3    H248143   4.772   6.539  15.681  1.2617 -2.0387  0.4221
 8910TIP3   OH248144   4.471   4.041  14.909 -0.5282 -0.3171  0.6808
 8910TIP3    H148145   4.387   4.059  14.950 -0.9548 -2.2967  0.7346
 8910TIP3    H248146   4.454   4.045  14.815 -0.3026  0.9078  0.6868
 8911TIP3   OH248147   2.150   1.124  12.647  0.5893 -0.0839 -0.1462
 8911TIP3    H148148   2.236   1.155  12.620 -0.0857  1.8030 -0.2106
 8911TIP3    H248149   2.167   1.063  12.719  1.9918 -0.0274 -0.4298
 8912TIP3   OH248150   1.670   3.678  14.579 -0.2012  0.4541 -0.0306
 8912TIP3    H148151   1.677   3.760  14.627  0.3129  0.4341 -0.0765
 8912TIP3    H248152   1.638   3.615  14.644 -0.4716  0.6537  0.0328
 8913TIP3   OH248153   1.865   2.702  11.296 -0.4074 -0.1741 -0.2505
 8913TIP3    H148154   1.894   2.617  11.262  0.1746  0.1546 -0.5757
 8913TIP3    H248155   1.936   2.762  11.274 -0.0275  0.0559  1.5107
 8914TIP3   OH248156   5.069   5.203  16.881 -0.0988  0.1038 -0.0227
 8914TIP3    H148157   5.098   5.263  16.950  0.4795 -0.5477  0.3066
 8914TIP3    H248158   5.114   5.121  16.900 -0.4951 -0.2932 -0.7634
 8915TIP3   OH248159   4.220   4.729  11.782  0.3391  0.0080 -0.0135
 8915TIP3    H148160   4.293   4.737  11.721  1.0821  0.4219  0.9102
 8915TIP3    H248161   4.231   4.803  11.842 -0.2203 -0.5375  0.7778
 8916TIP3   OH248162   2.416   1.770   3.459  0.1861 -0.3358 -0.2981
 8916TIP3    H148163   2.454   1.706   3.519 -1.0564 -0.8029  0.0083
 8916TIP3    H248164   2.322   1.765   3.476 -0.0260  0.6878 -1.1503
 8917TIP3   OH248165   0.593   4.056   5.401  0.2101 -0.3072  0.2227
 8917TIP3    H148166   0.675   4.105   5.395  1.1064 -1.8951 -0.6581
 8917TIP3    H248167   0.619   3.966   5.419 -1.4137 -0.5588  1.4614
 8918TIP3   OH248168   3.353   3.394   1.215  0.3131 -0.3769  0.1523
 8918TIP3    H148169   3.332   3.372   1.306  0.6992 -1.0799  0.0703
 8918TIP3    H248170   3.337   3.488   1.209  1.3663 -0.1141  1.2470
 8919TIP3   OH248171   3.485   4.553   1.933  0.0359  0.0539  0.1008
 8919TIP3    H148172   3.561   4.611   1.926 -1.4418  2.2356  1.2778
 8919TIP3    H248173   3.465   4.551   2.027  0.7216 -3.3096  0.2244
 8920TIP3   OH248174   2.842   1.344  13.451  0.2237 -0.0659  0.0113
 8920TIP3    H148175   2.871   1.286  13.521 -0.3431  0.8721  1.0476
 8920TIP3    H248176   2.798   1.416  13.497 -0.6961  0.2496 -1.3468
 8921TIP3   OH248177   3.742   3.398   1.651 -0.1346 -0.2536 -0.1591
 8921TIP3    H148178   3.673   3.337   1.678 -0.2752 -0.6915 -1.4919
 8921TIP3    H248179   3.708   3.438   1.571  0.2639  1.0716  0.3178
 8922TIP3   OH248180   0.911   1.179   5.206 -1.0529  0.5995  0.2115
 8922TIP3    H148181   0.885   1.219   5.123  0.1964  0.3878 -0.2885
 8922TIP3    H248182   0.961   1.102   5.182  0.7206  1.4215  1.1231
 8923TIP3   OH248183   4.036   1.797  16.178 -0.8830 -0.2618 -0.0249
 8923TIP3    H148184   4.049   1.803  16.084 -0.8037 -0.7393 -0.0445
 8923TIP3    H248185   3.943   1.817  16.191 -1.1964 -1.4906 -0.3292
 8924TIP3   OH248186   2.317   4.893  15.567  0.0669  0.0114  0.4244
 8924TIP3    H148187   2.333   4.987  15.570 -0.3748  0.0570  2.2475
 8924TIP3    H248188   2.234   4.881  15.614 -1.4585 -0.9849 -2.4274
 8925TIP3   OH248189   3.297   5.616  14.341  0.1070 -0.2649  0.3486
 8925TIP3    H148190   3.302   5.521  14.351  1.1055 -0.2106  0.3448
 8925TIP3    H248191   3.260   5.628  14.253 -1.4229 -0.6558  0.9208
 8926TIP3   OH248192   4.845   2.722   5.323  0.1264 -0.6254  0.1768
 8926TIP3    H148193   4.751   2.722   5.337  0.2167 -1.8043  0.8528
 8926TIP3    H248194   4.858   2.668   5.245  0.1746  0.3617 -0.5136
 8927TIP3   OH248195   0.361   5.976  15.243  0.5520  0.0376 -0.1383
 8927TIP3    H148196   0.361   5.935  15.157 -1.1285  2.7000 -1.4951
 8927TIP3    H248197   0.287   5.938  15.289  1.1978 -1.0779 -0.0073
 8928TIP3   OH248198   1.092   5.410  16.625 -0.1099  0.0739  0.1744
 8928TIP3    H148199   1.109   5.493  16.579  1.9414 -0.5967 -0.3073
 8928TIP3    H248200   1.095   5.433  16.718  1.3888  0.3858  0.0633
 8929TIP3   OH248201   1.654   3.811   4.404 -0.0500 -0.3004 -0.3737
 8929TIP3    H148202   1.676   3.809   4.497  1.6866 -0.2750 -0.7648
 8929TIP3    H248203   1.646   3.904   4.383  2.7583 -0.1488 -0.9439
 8930TIP3   OH248204   1.306   5.873   0.108  0.1343  0.2758  0.0970
 8930TIP3    H148205   1.306   5.815   0.032 -0.0500 -0.2143  0.4651
 8930TIP3    H248206   1.215   5.900   0.118  0.0534 -0.1171  0.4791
 8931TIP3   OH248207   4.903   1.178  11.446 -0.7667 -0.4194 -0.3253
 8931TIP3    H148208   4.830   1.201  11.388 -0.3873 -0.0490 -0.6537
 8931TIP3    H248209   4.980   1.213  11.403 -0.3294 -1.2461 -0.2193
 8932TIP3   OH248210   5.271   4.447   2.685  0.0251  0.1566 -0.3647
 8932TIP3    H148211   5.353   4.454   2.736 -0.4386 -1.9459  0.7092
 8932TIP3    H248212   5.230   4.533   2.696  1.2280  0.6426  0.5812
 8933TIP3   OH248213   1.230   4.835  17.193 -0.4707  0.4705 -0.7822
 8933TIP3    H148214   1.176   4.843  17.272 -0.7485 -0.8737 -0.8174
 8933TIP3    H248215   1.247   4.741  17.186 -0.6299  0.5512 -2.4383
 8934TIP3   OH248216   1.762   3.164   6.066 -0.3881  0.1376 -0.4573
 8934TIP3    H148217   1.696   3.232   6.078  1.2130  1.4741  1.0261
 8934TIP3    H248218   1.835   3.208   6.022 -0.2278 -1.1717 -1.5550
 8935TIP3   OH248219   4.092   0.298   2.252  0.4315  0.2404  0.1638
 8935TIP3    H148220   4.059   0.281   2.164  1.2472  0.0298 -0.1058
 8935TIP3    H248221   4.183   0.267   2.250  0.6441  0.8058  0.8921
 8936TIP3   OH248222   1.866   6.471  13.178 -0.5766  0.2902  0.3686
 8936TIP3    H148223   1.879   6.553  13.225 -1.1945 -0.4487  1.8885
 8936TIP3    H248224   1.826   6.496  13.095  0.5930  1.6340  0.1951
 8937TIP3   OH248225   2.965   0.903   1.542  0.4135  0.6379  0.1236
 8937TIP3    H148226   2.922   0.825   1.576  2.3265 -0.2743  0.5443
 8937TIP3    H248227   2.995   0.877   1.454  0.9558  0.9192  0.2213
 8938TIP3   OH248228   2.671   3.121  16.168 -0.6515 -0.0805 -1.0882
 8938TIP3    H148229   2.613   3.171  16.110 -1.0609  0.8666  0.1228
 8938TIP3    H248230   2.622   3.112  16.249  1.0963  1.2190  0.1617
 8939TIP3   OH248231   2.880   4.392   3.267  0.5307 -0.3966 -0.1895
 8939TIP3    H148232   2.883   4.413   3.174 -0.3986  1.5393  0.1765
 8939TIP3    H248233   2.917   4.469   3.310  0.5002 -1.0616  1.0568
 8940TIP3   OH248234   6.472   4.645  12.615 -0.1055  0.3722  0.5527
 8940TIP3    H148235   6.529   4.599  12.553  0.0932  0.8951  0.3451
 8940TIP3    H248236   6.528   4.710  12.656 -0.1876 -0.0853  1.4236
 8941TIP3   OH248237   1.963   1.910  13.380  0.1895  0.2801  0.3248
 8941TIP3    H148238   1.875   1.946  13.370  1.0785  2.2162 -0.8708
 8941TIP3    H248239   1.987   1.929  13.470 -0.1940  0.7519  0.3293
 8942TIP3   OH248240   1.478   6.243   4.409  0.8410 -0.1446 -0.5916
 8942TIP3    H148241   1.455   6.335   4.395  1.7858 -0.0031 -1.2881
 8942TIP3    H248242   1.404   6.194   4.375  0.8683  0.3418 -1.3598
 8943TIP3   OH248243   5.173   5.298  17.105  0.7928  0.3659  0.2941
 8943TIP3    H148244   5.092   5.322  17.149 -0.5972 -0.8544 -1.5504
 8943TIP3    H248245   5.199   5.215  17.145  0.1554 -0.1561 -0.3688
 8944TIP3   OH248246   3.330   3.261   2.597  0.0409 -0.1284 -0.5910
 8944TIP3    H148247   3.277   3.188   2.627  0.3221 -0.4890 -0.9675
 8944TIP3    H248248   3.283   3.294   2.520  0.9840 -1.2026 -1.6419
 8945TIP3   OH248249   5.339   0.521   5.632 -0.1477  0.5275 -0.5703
 8945TIP3    H148250   5.244   0.517   5.643 -0.0108 -1.2405  0.2026
 8945TIP3    H248251   5.357   0.464   5.556  0.3655  0.1267 -0.1564
 8946TIP3   OH248252   5.176   4.069   1.636  0.3726 -0.3607  0.0773
 8946TIP3    H148253   5.099   4.112   1.597 -0.2282 -1.4471  0.0352
 8946TIP3    H248254   5.250   4.107   1.590 -0.1796  0.3109 -0.2705
 8947TIP3   OH248255   2.616   5.452   2.693  0.0743  0.2004 -0.2940
 8947TIP3    H148256   2.598   5.497   2.610 -0.0352  1.5555  0.4498
 8947TIP3    H248257   2.708   5.425   2.685  0.9002  2.7191  0.2017
 8948TIP3   OH248258   2.183   6.393   3.078 -0.1865 -0.6218 -0.5626
 8948TIP3    H148259   2.133   6.442   3.143  0.2412  0.1543 -0.8128
 8948TIP3    H248260   2.265   6.371   3.122  0.4243  0.5734 -1.0853
 8949TIP3   OH248261   2.490   5.829   2.063  0.1933  0.4620 -0.4811
 8949TIP3    H148262   2.514   5.840   2.155 -0.9316 -2.5125  0.2200
 8949TIP3    H248263   2.501   5.916   2.025  0.9484  1.6792  2.3910
 8950TIP3   OH248264   3.590   3.294   4.462 -1.1721  0.1287 -0.6096
 8950TIP3    H148265   3.567   3.282   4.370  1.2201  1.1552 -1.3771
 8950TIP3    H248266   3.587   3.389   4.475  0.1423  0.1012 -0.0777
 8951TIP3   OH248267   2.319   6.192  14.502  0.1215  0.1366  0.1711
 8951TIP3    H148268   2.396   6.150  14.540  0.2412 -1.2977 -1.6168
 8951TIP3    H248269   2.329   6.181  14.408 -0.3804  3.2981 -0.2970
 8952TIP3   OH248270   2.841   2.562   1.795  0.4551  0.5801  0.2942
 8952TIP3    H148271   2.891   2.626   1.846 -0.6082  1.0225  0.7953
 8952TIP3    H248272   2.750   2.586   1.809  0.0607 -0.7351  0.0714
 8953TIP3   OH248273   3.910   6.224  10.281 -0.4966  0.4759  0.3208
 8953TIP3    H148274   3.902   6.182  10.367  2.0148 -0.1755  0.2544
 8953TIP3    H248275   3.828   6.201  10.236 -1.3861 -0.0443  2.1454
 8954TIP3   OH248276   6.055   5.208   1.611  0.2869  0.1431 -0.0272
 8954TIP3    H148277   6.142   5.170   1.602  1.4477  2.5348  0.6814
 8954TIP3    H248278   6.059   5.290   1.563 -1.3093  0.6948  0.7367
 8955TIP3   OH248279   1.237   2.568   0.591 -0.0441  0.3937  0.4415
 8955TIP3    H148280   1.146   2.559   0.561  0.5767 -1.3059 -1.0314
 8955TIP3    H248281   1.246   2.661   0.610 -2.0882  0.5950  0.5918
 8956TIP3   OH248282   4.887   3.901   1.799  0.4180  0.0573 -0.0385
 8956TIP3    H148283   4.921   3.848   1.727  1.5230 -0.6670  1.0024
 8956TIP3    H248284   4.836   3.839   1.852 -0.1271  0.5186 -0.0177
 8957TIP3   OH248285   2.138   6.457  12.784 -0.4265  0.3941 -0.0627
 8957TIP3    H148286   2.129   6.525  12.851 -0.2573 -0.6148  0.9997
 8957TIP3    H248287   2.102   6.497  12.705  0.1505  1.9060  0.4152
 8958TIP3   OH248288   5.483   4.184  10.748  0.4478  0.4055  0.1691
 8958TIP3    H148289   5.493   4.232  10.830 -0.5257  2.5406 -0.9383
 8958TIP3    H248290   5.389   4.184  10.732  0.6791  0.4103 -1.2040
 8959TIP3   OH248291   5.262   3.241   0.289 -0.5549  0.1821 -0.1846
 8959TIP3    H148292   5.305   3.181   0.349 -0.1866 -0.3950 -1.0120
 8959TIP3    H248293   5.271   3.199   0.203 -0.8641  1.1031 -0.6725
 8960TIP3   OH248294   1.928   6.290   0.239  0.1421  0.3118  0.4227
 8960TIP3    H148295   1.928   6.318   0.331  0.4379  1.6930  0.0113
 8960TIP3    H248296   1.838   6.260   0.223 -0.2492  1.2842  0.7958
 8961TIP3   OH248297   0.768   3.277  14.673 -0.3394  0.4469  0.1191
 8961TIP3    H148298   0.681   3.318  14.673  0.8291  3.0860  2.0185
 8961TIP3    H248299   0.766   3.216  14.747 -0.3366  1.1123  0.6776
 8962TIP3   OH248300   4.048   6.506   2.047 -0.3407 -0.4734  0.3537
 8962TIP3    H148301   3.979   6.456   2.092  0.5545 -0.7892  1.3975
 8962TIP3    H248302   4.070   6.576   2.108  0.0014 -0.1607 -0.1304
 8963TIP3   OH248303   0.426   1.317   2.208  0.0551  0.0748  0.0408
 8963TIP3    H148304   0.511   1.306   2.167 -0.1198  3.1452 -1.2750
 8963TIP3    H248305   0.443   1.306   2.302  1.3091 -2.2716 -0.4188
 8964TIP3   OH248306   3.026   6.774  13.799  0.0870 -0.3168  0.6403
 8964TIP3    H148307   2.984   6.696  13.836 -2.9145  0.8008 -0.2096
 8964TIP3    H248308   3.008   6.844  13.862  1.5094  0.0145  0.6978
 8965TIP3   OH248309   0.446   3.741  12.388 -0.0790 -0.4433 -0.0257
 8965TIP3    H148310   0.425   3.754  12.480 -0.8472 -0.0294 -0.2484
 8965TIP3    H248311   0.371   3.692  12.353 -1.0529  1.6786 -1.0060
 8966TIP3   OH248312   0.719   1.972   0.817 -0.0330  0.2202 -0.2128
 8966TIP3    H148313   0.764   1.996   0.898 -0.0613  1.2989 -0.5064
 8966TIP3    H248314   0.784   1.921   0.768  0.2574  0.2449  0.1453
 8967TIP3   OH248315   2.438   1.713   3.971 -0.0700  0.1768  0.0258
 8967TIP3    H148316   2.527   1.716   4.007 -0.4108 -1.0128  1.0019
 8967TIP3    H248317   2.386   1.764   4.032 -0.1383  0.5544 -0.3428
 8968TIP3   OH248318   2.420   4.753   1.013 -0.2275  0.2693 -0.2275
 8968TIP3    H148319   2.389   4.834   1.054 -1.3077 -0.8223  1.1633
 8968TIP3    H248320   2.350   4.728   0.953 -0.6240 -0.4817  0.5367
 8969TIP3   OH248321   5.663   1.357  14.154 -0.5992  1.1992 -0.0659
 8969TIP3    H148322   5.599   1.402  14.208 -0.7146  0.4050  0.4615
 8969TIP3    H248323   5.656   1.265  14.180 -1.9432  0.5044 -2.6618
 8970TIP3   OH248324   4.207   2.230   3.491 -0.3244 -0.1501  0.4313
 8970TIP3    H148325   4.200   2.325   3.484 -0.2530 -0.0187  1.8436
 8970TIP3    H248326   4.132   2.197   3.442 -0.9034  0.6679  0.7482
 8971TIP3   OH248327   2.360   4.041   2.378 -0.4531  0.3778 -0.0069
 8971TIP3    H148328   2.359   4.125   2.332 -0.4481  0.4138  0.0576
 8971TIP3    H248329   2.430   4.051   2.444 -0.1782  0.1801 -0.2669
 8972TIP3   OH248330   5.215   6.151   5.402  0.5251 -0.4306 -0.8513
 8972TIP3    H148331   5.283   6.214   5.379  0.1124  0.1968 -0.3850
 8972TIP3    H248332   5.133   6.192   5.372  0.2791 -0.8465 -0.7585
 8973TIP3   OH248333   0.066   5.452   1.442  0.2323  0.4561 -0.3056
 8973TIP3    H148334   0.084   5.543   1.419  0.0682  0.6814  0.4287
 8973TIP3    H248335   0.153   5.412   1.453  0.3012  0.8859  0.7399
 8974TIP3   OH248336   0.709   4.635  11.385 -0.0238 -0.0151 -0.0852
 8974TIP3    H148337   0.683   4.631  11.293  0.6376  0.9758 -0.3159
 8974TIP3    H248338   0.804   4.638  11.383 -0.0029 -0.2955  0.6410
 8975TIP3   OH248339   1.514   0.158   4.966  0.2352  0.0046 -0.0911
 8975TIP3    H148340   1.455   0.230   4.990  1.1819  0.9932 -0.7307
 8975TIP3    H248341   1.576   0.153   5.039  0.6919  0.4017 -0.4517
 8976TIP3   OH248342   2.212   1.214  16.603 -0.2688 -0.3919  0.6920
 8976TIP3    H148343   2.254   1.300  16.598 -0.0622 -0.3746  2.4734
 8976TIP3    H248344   2.285   1.152  16.603 -0.4115 -0.5833 -0.3874
 8977TIP3   OH248345   6.080   3.899   0.112 -0.4412  0.6276 -0.1547
 8977TIP3    H148346   6.019   3.843   0.161 -1.9588  1.5239 -1.0015
 8977TIP3    H248347   6.155   3.909   0.172 -1.0711 -0.5391  0.8699
 8978TIP3   OH248348   2.028   4.648   0.445  0.0602 -0.0406  0.1453
 8978TIP3    H148349   1.961   4.587   0.413 -0.4553 -0.1323  1.3471
 8978TIP3    H248350   2.030   4.718   0.381 -1.3771  0.0802  0.2113
 8979TIP3   OH248351   2.766   3.078   5.702 -0.2676 -0.4581 -0.2966
 8979TIP3    H148352   2.763   3.017   5.628 -2.8310 -2.5115  1.4036
 8979TIP3    H248353   2.841   3.047   5.754  0.0982 -0.4711 -0.8273
 8980TIP3   OH248354   6.325   5.360  13.373  0.6831  0.2589  0.4368
 8980TIP3    H148355   6.333   5.307  13.294 -0.6489  0.3147  0.2535
 8980TIP3    H248356   6.288   5.443  13.342 -0.1949  0.1490  1.1539
 8981TIP3   OH248357   4.535   5.636   1.610 -0.2166  0.1908  0.2213
 8981TIP3    H148358   4.509   5.624   1.519 -1.4748 -1.0320  0.7299
 8981TIP3    H248359   4.455   5.621   1.660  0.4493  0.9255  1.5332
 8982TIP3   OH248360   3.210   6.474   3.190  0.0032  0.7354  0.2948
 8982TIP3    H148361   3.278   6.506   3.250  0.7656  1.0761 -0.7262
 8982TIP3    H248362   3.257   6.418   3.129 -0.7914  0.2691  0.1071
 8983TIP3   OH248363   4.450   4.140   4.983 -0.0015  0.3215  0.1320
 8983TIP3    H148364   4.466   4.186   5.066 -0.3287  0.5688  0.0572
 8983TIP3    H248365   4.364   4.101   4.994  0.1854 -0.1014  0.1124
 8984TIP3   OH248366   6.188   4.541  13.808  0.0880 -0.3192 -0.3482
 8984TIP3    H148367   6.182   4.599  13.733 -2.4467  0.2770  0.2727
 8984TIP3    H248368   6.237   4.465  13.776  0.5293  0.6783 -2.0962
 8985TIP3   OH248369   5.665   0.465   3.143  0.6938  0.3245 -0.3943
 8985TIP3    H148370   5.586   0.417   3.169 -0.4250  1.3691 -1.8035
 8985TIP3    H248371   5.704   0.493   3.225 -0.4092 -0.1954  0.3249
 8986TIP3   OH248372   1.971   5.582   3.723 -0.2091  0.1546 -0.1794
 8986TIP3    H148373   1.903   5.629   3.771 -1.2334 -1.2667 -0.2371
 8986TIP3    H248374   2.013   5.650   3.670 -0.5622  1.3149  0.9859
 8987TIP3   OH248375   6.064   6.284   3.883  0.0032  0.5007 -0.4545
 8987TIP3    H148376   6.149   6.328   3.876  1.8715 -3.1961 -2.1439
 8987TIP3    H248377   6.076   6.223   3.956 -1.6034  0.7687  0.0347
 8988TIP3   OH248378   1.029   2.888   2.931  0.6286 -0.8730  0.0842
 8988TIP3    H148379   1.076   2.937   2.999  2.9803 -1.2317 -1.2335
 8988TIP3    H248380   0.996   2.811   2.977 -0.8447  0.5945  1.5831
 8989TIP3   OH248381   0.014   5.436  12.146  0.3591 -0.3411 -0.5973
 8989TIP3    H148382   0.034   5.437  12.052  1.4693  1.5027 -0.3626
 8989TIP3    H248383   0.090   5.394  12.186 -0.3415 -1.5976 -0.5443
 8990TIP3   OH248384   3.221   3.485  16.381  0.0657 -0.1507  0.3010
 8990TIP3    H148385   3.273   3.410  16.411  1.2746  0.2042 -0.8944
 8990TIP3    H248386   3.130   3.460  16.399  0.6388 -0.6999  2.5730
 8991TIP3   OH248387   4.936   1.330   0.333  0.3793  0.2701 -0.4942
 8991TIP3    H148388   4.894   1.341   0.418  2.4500 -1.2744  0.7708
 8991TIP3    H248389   5.017   1.283   0.352  0.1520 -1.4441 -3.5078
 8992TIP3   OH248390   5.344   6.567  14.440 -0.2990 -0.1871  0.3504
 8992TIP3    H148391   5.356   6.662  14.438  0.0920 -0.2305  0.6004
 8992TIP3    H248392   5.285   6.552  14.514  0.0022 -0.1766  0.5943
 8993TIP3   OH248393   5.267   0.569   1.486  0.5036  0.8253  0.0557
 8993TIP3    H148394   5.203   0.572   1.557  0.2187 -2.9161  0.0540
 8993TIP3    H248395   5.214   0.556   1.407  1.1330 -0.0480 -0.2213
 8994TIP3   OH248396   6.469   4.912  13.793  0.3037  0.4230  0.1734
 8994TIP3    H148397   6.450   4.901  13.700  1.6361  0.2569 -0.0864
 8994TIP3    H248398   6.469   4.823  13.828 -2.1103  0.6117  0.7345
 8995TIP3   OH248399   5.774   1.960  13.735 -0.5672 -0.0151  0.1596
 8995TIP3    H148400   5.861   1.924  13.754 -0.0533  2.5017  2.9581
 8995TIP3    H248401   5.726   1.887  13.697  3.3535 -0.9417 -3.4712
 8996TIP3   OH248402   5.985   5.400  16.112 -0.1719 -0.1056 -0.1627
 8996TIP3    H148403   6.061   5.421  16.058 -0.9655  0.0604 -1.2479
 8996TIP3    H248404   5.962   5.482  16.156 -1.5776  0.6492 -2.2294
 8997TIP3   OH248405   0.154   3.002  12.470 -0.7583 -0.0444 -0.2497
 8997TIP3    H148406   0.157   3.065  12.397 -1.8927 -1.2741 -1.3986
 8997TIP3    H248407   0.098   3.044  12.535 -0.9768  0.4139 -0.7229
 8998TIP3   OH248408   6.064   5.084  14.698  0.2251  0.5707 -0.4354
 8998TIP3    H148409   6.129   5.122  14.640  0.0691  0.5359 -0.6359
 8998TIP3    H248410   6.009   5.030  14.641  0.8841 -0.5414 -0.0509
 8999TIP3   OH248411   0.543   2.007  13.510 -0.7901  0.3856 -0.0254
 8999TIP3    H148412   0.488   1.968  13.579 -1.7041 -1.1851 -1.6105
 8999TIP3    H248413   0.562   1.934  13.451  0.7603  1.5276 -0.9439
 9000TIP3   OH248414   4.029   5.465   5.123  0.5621  0.0152 -0.3606
 9000TIP3    H148415   3.983   5.382   5.136  0.8917  0.1448  1.8097
 9000TIP3    H248416   3.997   5.521   5.193 -1.1159  2.3974 -2.9532
 9001TIP3   OH248417   0.781   4.266  14.507  0.8444 -0.1229  0.4445
 9001TIP3    H148418   0.761   4.343  14.454  0.7577  0.0344  0.7060
 9001TIP3    H248419   0.747   4.287  14.594  2.3083  0.2102  0.9395
 9002TIP3   OH248420   5.404   2.747   5.587  0.0102 -0.0153  0.5405
 9002TIP3    H148421   5.480   2.715   5.635 -0.8681 -1.3999  1.0514
 9002TIP3    H248422   5.334   2.687   5.611 -0.6123 -0.3484 -1.9687
 9003TIP3   OH248423   3.728   2.624   4.621  0.0719  0.2498  0.4160
 9003TIP3    H148424   3.818   2.652   4.608 -0.3367  1.8673  0.9208
 9003TIP3    H248425   3.690   2.626   4.533  1.0401 -2.3751 -0.0991
 9004TIP3   OH248426   6.353   2.447   0.527 -0.0004  0.1453  0.5771
 9004TIP3    H148427   6.271   2.494   0.543  0.0382  0.0412  1.0727
 9004TIP3    H248428   6.385   2.482   0.444 -0.2323  0.6240  0.6903
 9005TIP3   OH248429   6.307   3.135  14.889  0.9274 -0.1736 -0.4046
 9005TIP3    H148430   6.246   3.177  14.828  0.6537 -1.9871 -1.4214
 9005TIP3    H248431   6.392   3.174  14.870  0.5889  0.3012 -0.9542
 9006TIP3   OH248432   2.771   1.013   4.196  0.4092  0.0086  0.2438
 9006TIP3    H148433   2.837   1.066   4.240  0.6961  0.7047 -1.0034
 9006TIP3    H248434   2.688   1.054   4.219  0.5204  0.0922  0.5033
 9007TIP3   OH248435   0.841   6.165  16.507 -0.2904  0.2315 -0.3028
 9007TIP3    H148436   0.936   6.180  16.508 -0.0281 -1.2463 -1.3258
 9007TIP3    H248437   0.828   6.100  16.438 -1.9909 -0.0085  0.2277
 9008TIP3   OH248438   4.186   0.799   3.701 -0.3568  0.0033 -0.0905
 9008TIP3    H148439   4.220   0.875   3.748  0.5751 -0.4320 -0.0477
 9008TIP3    H248440   4.178   0.731   3.767 -2.5917  0.4727  0.1697
 9009TIP3   OH248441   2.580   4.695   1.627  0.4620 -0.8219  0.1490
 9009TIP3    H148442   2.545   4.606   1.617 -1.4501 -0.0822  0.0155
 9009TIP3    H248443   2.624   4.695   1.712  0.9706 -2.0528 -0.1081
 9010TIP3   OH248444   4.022   5.043  16.008 -0.6956 -0.3439  0.1617
 9010TIP3    H148445   3.963   5.099  15.958  2.3885  0.6085 -2.5560
 9010TIP3    H248446   4.015   4.957  15.967 -1.1713 -0.5687  0.7040
 9011TIP3   OH248447   1.727   0.716   3.004 -0.2259 -0.0988 -0.2081
 9011TIP3    H148448   1.635   0.714   2.976 -0.1536  0.8681 -0.5108
 9011TIP3    H248449   1.730   0.785   3.071 -0.4076 -2.3832  2.2604
 9012TIP3   OH248450   2.643   5.244  15.386 -0.9102  0.0869  0.0655
 9012TIP3    H148451   2.598   5.258  15.470 -0.7689 -1.7301  0.4681
 9012TIP3    H248452   2.593   5.174  15.344 -0.3040  0.2159 -0.8703
 9013TIP3   OH248453   1.408   3.770   3.644 -0.0940  0.1787 -0.3857
 9013TIP3    H148454   1.315   3.775   3.667 -0.1060  0.5668 -0.5320
 9013TIP3    H248455   1.416   3.687   3.596  0.3500 -1.8748  3.0527
 9014TIP3   OH248456   6.440   0.733  15.767 -0.7137  0.1974  0.3326
 9014TIP3    H148457   6.354   0.759  15.732 -0.4018  0.0275 -0.5647
 9014TIP3    H248458   6.458   0.649  15.725 -0.0304  0.3153  0.3898
 9015TIP3   OH248459   3.916   4.859   5.093 -0.0441 -0.0483 -0.5773
 9015TIP3    H148460   3.901   4.844   5.186 -0.1388  1.6373 -0.3048
 9015TIP3    H248461   4.011   4.861   5.084 -0.0091  2.2458 -0.0664
 9016TIP3   OH248462   5.794   5.678   0.598 -0.3172 -0.4853  0.6393
 9016TIP3    H148463   5.825   5.692   0.509  0.5127  0.3851  1.0555
 9016TIP3    H248464   5.842   5.601   0.628 -0.1672 -0.4364  0.5284
 9017TIP3   OH248465   0.685   3.758  12.169  0.2379 -0.4653 -0.2959
 9017TIP3    H148466   0.660   3.667  12.181 -0.2647 -0.3653 -0.5721
 9017TIP3    H248467   0.712   3.763  12.077  0.3252 -0.3497 -0.2637
 9018TIP3   OH248468   6.784   5.262  16.824  0.1313  0.4808 -0.6910
 9018TIP3    H148469   6.869   5.283  16.863 -0.4067  1.2615  0.0785
 9018TIP3    H248470   6.791   5.170  16.800  0.7247  0.1785  0.6144
 9019TIP3   OH248471   0.427   5.112  11.483 -0.0463 -0.8315 -0.6396
 9019TIP3    H148472   0.426   5.072  11.396  0.9618 -2.3129  0.0179
 9019TIP3    H248473   0.420   5.038  11.544 -0.8961  0.2011  0.5443
 9020TIP3   OH248474   6.785   3.577   2.376 -0.7025  0.5605 -0.0572
 9020TIP3    H148475   6.775   3.487   2.346 -0.2874  0.8849 -1.1737
 9020TIP3    H248476   6.740   3.579   2.461 -0.6691 -0.7025 -0.0069
 9021TIP3   OH248477   1.392   0.642  13.146  0.2318  0.0338 -0.4602
 9021TIP3    H148478   1.426   0.575  13.087 -0.5000  0.1421 -1.0054
 9021TIP3    H248479   1.470   0.683  13.184  0.6888 -0.5341 -0.7875
 9022TIP3   OH248480   1.862   5.996  16.056 -0.1414  0.8117  0.2421
 9022TIP3    H148481   1.860   6.069  16.118 -1.0699 -0.4044  1.7015
 9022TIP3    H248482   1.785   6.009  16.001 -0.9174  0.3646  1.2009
 9023TIP3   OH248483   6.719   1.078   0.964 -0.2033  0.2768 -0.3785
 9023TIP3    H148484   6.720   1.109   0.874  0.0359 -1.3191 -0.9243
 9023TIP3    H248485   6.809   1.049   0.981 -0.9350 -2.2673 -0.6385
 9024TIP3   OH248486   4.018   5.882  16.661 -0.2471 -0.3470  0.3834
 9024TIP3    H148487   4.083   5.900  16.729 -0.1653  0.5410  0.0789
 9024TIP3    H248488   3.961   5.959  16.661  0.3006  0.0904 -1.1574
 9025TIP3   OH248489   4.110   2.595   0.225  0.1818 -0.2225 -0.1948
 9025TIP3    H148490   4.075   2.574   0.312 -3.4810 -2.1202 -2.0213
 9025TIP3    H248491   4.171   2.524   0.206  1.8182  0.7672  1.2047
 9026TIP3   OH248492   5.121   5.159   2.139 -0.1225  0.4364  0.1591
 9026TIP3    H148493   5.108   5.086   2.079 -0.0262  0.6668 -0.1449
 9026TIP3    H248494   5.169   5.121   2.213  2.6711  0.8093 -1.4000
 9027TIP3   OH248495   1.604   2.543  13.619 -0.5101  0.0038 -0.0233
 9027TIP3    H148496   1.671   2.572  13.680 -0.5543  0.6570 -0.2738
 9027TIP3    H248497   1.641   2.561  13.532 -1.0545  0.4821 -0.1592
 9028TIP3   OH248498   0.844   2.836  12.121  0.0075  0.2322 -0.1693
 9028TIP3    H148499   0.780   2.862  12.054  1.0478 -0.6667 -1.5470
 9028TIP3    H248500   0.828   2.743  12.135  0.8934  0.0450 -0.3897
 9029TIP3   OH248501   1.535   0.394   1.855  0.0693 -0.1653  0.0920
 9029TIP3    H148502   1.560   0.486   1.847  2.0745 -0.7913 -1.3582
 9029TIP3    H248503   1.440   0.394   1.861  0.0490  1.9812 -0.1611
 9030TIP3   OH248504   1.664   0.626   5.512 -0.3563  0.8002  0.2704
 9030TIP3    H148505   1.736   0.564   5.502 -0.3594  0.8886 -0.3097
 9030TIP3    H248506   1.606   0.586   5.576 -0.1813  0.3708  0.1603
 9031TIP3   OH248507   6.331   2.193  12.709  0.2355 -0.6851  0.8113
 9031TIP3    H148508   6.387   2.258  12.665 -0.5768 -0.8000 -0.4221
 9031TIP3    H248509   6.385   2.160  12.781  1.6992 -0.6497 -0.2396
 9032TIP3   OH248510   6.552   1.513  12.722  0.6084  0.8905 -0.1474
 9032TIP3    H148511   6.605   1.505  12.802  0.3249  1.5549  0.1046
 9032TIP3    H248512   6.560   1.427  12.680  0.4641  0.4135  0.7810
 9033TIP3   OH248513   2.962   5.558  12.522  0.0082  0.2884  0.1646
 9033TIP3    H148514   2.935   5.647  12.547  3.1854  0.8929  1.7590
 9033TIP3    H248515   3.026   5.571  12.452  0.4514 -0.7359  0.3676
 9034TIP3   OH248516   1.998   0.540   4.366 -0.2197  0.4729  0.3339
 9034TIP3    H148517   1.917   0.545   4.415  0.7411 -0.1192  2.0364
 9034TIP3    H248518   1.981   0.474   4.298 -1.5479  1.2931 -0.1480
 9035TIP3   OH248519   1.137   5.407  10.706 -0.2959  0.1530  0.0629
 9035TIP3    H148520   1.193   5.336  10.738 -1.1509 -0.6078 -0.1263
 9035TIP3    H248521   1.161   5.418  10.614  0.5372  0.7829  0.3525
 9036TIP3   OH248522   1.295   4.520  12.563 -0.2068  0.0941  0.1803
 9036TIP3    H148523   1.318   4.427  12.559  0.7000  0.3450 -0.6906
 9036TIP3    H248524   1.352   4.561  12.498 -0.8180  1.2164  0.3466
 9037TIP3   OH248525   5.010   0.015  15.930 -0.2323  0.3509 -0.1444
 9037TIP3    H148526   4.957   0.069  15.871  0.4983  0.7497 -0.4451
 9037TIP3    H248527   5.015   0.065  16.011 -0.3417  0.3010 -0.1071
 9038TIP3   OH248528   6.735   1.822   5.943 -1.0258  0.5872 -0.4959
 9038TIP3    H148529   6.692   1.853   5.863 -0.4939  0.1940 -0.9367
 9038TIP3    H248530   6.802   1.887   5.962 -1.0427  0.5944 -0.4611
 9039TIP3   OH248531   1.447   4.165   0.082  0.1805  0.4971  0.2732
 9039TIP3    H148532   1.396   4.167   0.163  0.1688 -1.3601  0.3147
 9039TIP3    H248533   1.538   4.168   0.110  0.1520  1.1975  0.2978
 9040TIP3   OH248534   4.484   0.851   5.548  0.4892 -0.1960 -0.5073
 9040TIP3    H148535   4.564   0.840   5.599  1.4782  0.2259 -1.9333
 9040TIP3    H248536   4.445   0.763   5.544  1.1139 -0.4856 -0.1794
 9041TIP3   OH248537   1.209   5.295   6.057  0.0050 -0.5605  0.3961
 9041TIP3    H148538   1.276   5.292   5.989  1.4927  0.2560  1.7663
 9041TIP3    H248539   1.198   5.204   6.084  0.2514 -0.7547 -0.1421
 9042TIP3   OH248540   3.839   4.158  15.700 -0.4652  0.2891  0.4182
 9042TIP3    H148541   3.789   4.092  15.652  0.4729  0.5883 -0.9925
 9042TIP3    H248542   3.928   4.121  15.706  0.1197  1.4931 -0.5676
 9043TIP3   OH248543   2.239   5.069  10.733 -0.2736 -0.4277  0.3081
 9043TIP3    H148544   2.319   5.020  10.719  0.1973 -0.1896  2.0665
 9043TIP3    H248545   2.171   5.017  10.691  0.8679 -0.3598 -1.6682
 9044TIP3   OH248546   2.551   1.178   4.259 -0.3817  0.4667  0.5855
 9044TIP3    H148547   2.484   1.228   4.211  0.8230  1.2813 -0.2671
 9044TIP3    H248548   2.562   1.225   4.341 -1.3376 -0.0654  1.0373
 9045TIP3   OH248549   4.568   1.434  13.513  0.1789  0.4783  0.6088
 9045TIP3    H148550   4.588   1.439  13.607 -0.1325  1.9264  0.6052
 9045TIP3    H248551   4.493   1.491  13.502 -0.3487 -0.4062 -0.3792
 9046TIP3   OH248552   6.781   6.243  12.523 -0.2972 -0.2263  0.2163
 9046TIP3    H148553   6.707   6.289  12.484 -0.5766 -1.0026 -0.1808
 9046TIP3    H248554   6.789   6.279  12.611  1.2843  2.6576 -1.0345
 9047TIP3   OH248555   5.111   0.604  16.711  0.0803  0.4239  0.2601
 9047TIP3    H148556   5.038   0.574  16.765  0.6856 -1.1679  0.2305
 9047TIP3    H248557   5.071   0.630  16.628 -0.4397 -0.5817  0.1884
 9048TIP3   OH248558   0.574   1.848  11.826 -0.2219  0.1476  0.1380
 9048TIP3    H148559   0.631   1.791  11.878 -1.3194 -0.7525  0.3624
 9048TIP3    H248560   0.502   1.792  11.799  0.2270  0.6654 -2.2007
 9049TIP3   OH248561   6.180   0.241   0.761 -0.6439 -0.0898 -0.2965
 9049TIP3    H148562   6.186   0.146   0.750 -0.5622  0.0950 -1.9235
 9049TIP3    H248563   6.268   0.267   0.789 -0.3193 -0.3441 -1.0594
 9050TIP3   OH248564   0.087   3.817   1.924  0.1261 -0.2152 -0.2663
 9050TIP3    H148565   0.074   3.743   1.983  2.2960 -0.1757  0.3116
 9050TIP3    H248566   0.181   3.836   1.930  0.4667 -0.4235 -3.9953
 9051TIP3   OH248567   2.108   0.933  16.093 -0.2708 -0.2571  0.5659
 9051TIP3    H148568   2.199   0.912  16.073 -0.8245 -2.5869  0.3266
 9051TIP3    H248569   2.099   0.913  16.187 -0.7366 -0.7799  0.4096
 9052TIP3   OH248570   3.283   0.382  14.134 -0.3220  0.4651  0.7002
 9052TIP3    H148571   3.356   0.373  14.195  1.7957  2.2436 -1.5047
 9052TIP3    H248572   3.260   0.292  14.110  3.2108 -0.0847 -0.9387
 9053TIP3   OH248573   3.065   2.850  13.203  0.5546  0.5150  0.2300
 9053TIP3    H148574   3.090   2.823  13.292 -1.5257  0.1820  0.7360
 9053TIP3    H248575   2.990   2.795  13.182  1.6918 -0.1501 -2.1868
 9054TIP3   OH248576   2.929   1.249   2.257  0.0966  0.1596 -0.2078
 9054TIP3    H148577   2.918   1.173   2.315 -0.2844 -0.8664 -1.5966
 9054TIP3    H248578   2.976   1.313   2.311 -1.1845 -0.3570  1.5719
 9055TIP3   OH248579   0.041   4.827   6.045 -0.5812  0.0633  0.6080
 9055TIP3    H148580  -0.053   4.810   6.043 -0.4796 -0.4623 -1.5618
 9055TIP3    H248581   0.056   4.875   6.126 -2.9817  1.6202  0.1723
 9056TIP3   OH248582   5.515   5.686   4.991 -0.0512  0.9180 -0.4034
 9056TIP3    H148583   5.574   5.628   4.943 -2.0352  0.3571 -2.2765
 9056TIP3    H248584   5.536   5.671   5.083  1.2045 -0.9050 -0.9551
 9057TIP3   OH248585   5.042   0.938  10.962 -0.2225 -0.1039  0.0319
 9057TIP3    H148586   4.968   0.901  10.915 -0.5597  0.3061  0.2382
 9057TIP3    H248587   5.039   0.897  11.049 -0.3865  0.1355  0.1407
 9058TIP3   OH248588   0.455   6.562  13.289  0.0935  0.0379 -0.5296
 9058TIP3    H148589   0.400   6.635  13.317 -1.3399 -1.1177 -0.2569
 9058TIP3    H248590   0.524   6.557  13.355  0.7489  1.7184 -1.0628
 9059TIP3   OH248591   4.780   0.020   1.405  0.1158 -0.2340  0.3334
 9059TIP3    H148592   4.747   0.108   1.385 -1.7422 -1.1217 -0.6046
 9059TIP3    H248593   4.825  -0.008   1.326 -0.9146 -0.8533 -0.0442
 9060TIP3   OH248594   1.747   5.754   0.538 -0.0436 -0.0402 -0.3868
 9060TIP3    H148595   1.705   5.788   0.459  1.3733  0.8149 -0.8009
 9060TIP3    H248596   1.840   5.770   0.524  0.3366 -0.9613  0.9516
 9061TIP3   OH248597   0.544   1.468   2.731  0.0811 -0.3443  0.3176
 9061TIP3    H148598   0.461   1.493   2.771  0.8720  1.8054  0.6389
 9061TIP3    H248599   0.605   1.459   2.805  0.3579 -1.1275  0.0063
 9062TIP3   OH248600   5.203   1.495   2.065 -0.4516  0.3678 -0.4887
 9062TIP3    H148601   5.169   1.585   2.067  0.8044  0.8270  0.9560
 9062TIP3    H248602   5.203   1.472   1.972 -1.0235  1.7730 -0.8500
 9063TIP3   OH248603   0.476   2.906   3.625  0.1808 -0.5848 -1.0585
 9063TIP3    H148604   0.474   2.845   3.551 -0.8320 -2.9142  0.8183
 9063TIP3    H248605   0.536   2.866   3.688  0.9550  1.3154 -0.5513
 9064TIP3   OH248606   5.984   1.900   1.821  0.6744 -0.2497 -0.1190
 9064TIP3    H148607   6.005   1.807   1.814 -0.2229 -0.4873  0.1699
 9064TIP3    H248608   5.890   1.905   1.801  0.2807  0.3392  1.7439
 9065TIP3   OH248609   2.057   0.291   0.535 -0.2945 -0.3738  0.7242
 9065TIP3    H148610   2.037   0.381   0.558  0.1630 -0.2389  0.5923
 9065TIP3    H248611   2.061   0.245   0.619 -0.5993 -0.2898  0.7864
 9066TIP3   OH248612   2.961   4.610  12.982  0.0177  0.5041 -0.0639
 9066TIP3    H148613   3.002   4.577  12.902 -3.1509 -3.7107 -0.0865
 9066TIP3    H248614   3.015   4.576  13.053  0.7270  1.1922 -0.2589
 9067TIP3   OH248615   6.085   5.124  11.559 -0.4328  0.6319  0.3463
 9067TIP3    H148616   6.175   5.155  11.565 -0.2159  0.4074 -1.2713
 9067TIP3    H248617   6.060   5.142  11.468 -2.1426  1.0196  0.8813
 9068TIP3   OH248618   6.103   3.152   3.579  0.4998  0.7883 -0.2829
 9068TIP3    H148619   6.040   3.215   3.615 -0.4183  0.0917 -0.6401
 9068TIP3    H248620   6.126   3.186   3.493 -0.2465  0.4842 -0.6123
 9069TIP3   OH248621   0.575   6.100  16.183  0.2210 -0.8878  0.5848
 9069TIP3    H148622   0.498   6.090  16.127 -1.0747 -0.8887  2.3164
 9069TIP3    H248623   0.623   6.017  16.175  0.7360 -0.3987 -1.4971
 9070TIP3   OH248624   0.715   3.079  12.001  0.0339 -0.4337 -0.0924
 9070TIP3    H148625   0.796   3.065  11.952  0.2180  0.8705 -0.1834
 9070TIP3    H248626   0.733   3.157  12.055 -0.1884 -1.7834  1.9816
 9071TIP3   OH248627   5.451   5.948   0.459  1.3169  0.0281 -0.0527
 9071TIP3    H148628   5.434   5.942   0.365  1.6462 -0.3398 -0.0910
 9071TIP3    H248629   5.391   6.016   0.490  0.7876 -0.2604 -0.4294
 9072TIP3   OH248630   4.457   2.163   2.644 -0.6179 -0.0660  0.0851
 9072TIP3    H148631   4.538   2.209   2.622 -0.4933  0.3188  1.3172
 9072TIP3    H248632   4.484   2.074   2.664 -0.6635 -0.2661 -0.7010
 9073TIP3   OH248633   3.357   5.159  15.329  0.0855 -0.2571  0.2511
 9073TIP3    H148634   3.306   5.079  15.335  1.3055 -1.1531 -1.0519
 9073TIP3    H248635   3.364   5.177  15.235  2.7209 -0.5627  0.3245
 9074TIP3   OH248636   4.525   3.723  16.757  0.3752 -0.5402  0.0705
 9074TIP3    H148637   4.490   3.654  16.701  0.5158 -0.5152 -0.0444
 9074TIP3    H248638   4.483   3.708  16.842  0.8554 -1.1316  0.2099
 9075TIP3   OH248639   0.779   6.242   6.201  0.4533 -0.2854 -0.4249
 9075TIP3    H148640   0.778   6.323   6.252 -1.7315 -0.7544  0.3646
 9075TIP3    H248641   0.821   6.265   6.118 -1.0021  1.9163 -0.5876
 9076TIP3   OH248642   6.714   3.174   3.063 -0.1359  0.2749 -0.3805
 9076TIP3    H148643   6.669   3.144   3.142  1.5928 -0.5622  0.3315
 9076TIP3    H248644   6.697   3.106   2.998  0.6040 -0.3740  0.0850
 9077TIP3   OH248645   4.986   3.313   6.664 -0.2603 -0.1180 -0.1192
 9077TIP3    H148646   5.070   3.339   6.627  0.3454 -1.1234  0.5119
 9077TIP3    H248647   4.948   3.394   6.697 -0.3114  0.6157 -1.9333
 9078TIP3   OH248648   1.674   5.004  16.196  0.0489 -0.1629 -0.0211
 9078TIP3    H148649   1.633   5.082  16.159  0.9587  0.7572  0.8901
 9078TIP3    H248650   1.766   5.009  16.169  0.3095 -0.4470  0.7818
 9079TIP3   OH248651   4.030   5.969   3.594  0.5844 -0.2601 -0.4273
 9079TIP3    H148652   3.942   5.934   3.606  0.6427 -1.2138 -2.4881
 9079TIP3    H248653   4.053   6.008   3.678 -1.4920 -0.7115  0.3620
 9080TIP3   OH248654   1.974   1.462  13.368  0.0007  0.2077 -0.0658
 9080TIP3    H148655   2.022   1.525  13.313  0.5453  0.5482  0.7804
 9080TIP3    H248656   1.954   1.389  13.310  1.8884 -0.1030 -0.3495
 9081TIP3   OH248657   2.677   0.817   3.072 -0.2251  0.2735  0.7292
 9081TIP3    H148658   2.701   0.896   3.120  0.6720  1.5718 -1.7519
 9081TIP3    H248659   2.605   0.844   3.015  1.4958 -0.0837 -1.6976
 9082TIP3   OH248660   5.034   5.806   0.463 -0.5504 -0.9994 -0.1785
 9082TIP3    H148661   5.122   5.769   0.473 -0.3140  0.1916  2.7691
 9082TIP3    H248662   5.048   5.901   0.466 -2.0220 -0.8058  1.4146
 9083TIP3   OH248663   1.771   4.262  14.866  0.6678  0.1429  0.5381
 9083TIP3    H148664   1.808   4.308  14.790  1.9660 -0.6120  0.6873
 9083TIP3    H248665   1.681   4.242  14.842  0.7852  0.7643 -0.4226
 9084TIP3   OH248666   5.544   4.412   4.639 -0.2055  0.3163  0.9496
 9084TIP3    H148667   5.460   4.420   4.593 -0.6927 -2.2268  1.3364
 9084TIP3    H248668   5.561   4.318   4.643  1.1652  0.6221  3.5872
 9085TIP3   OH248669   6.502   1.557   2.148 -0.4003  0.4184 -0.3891
 9085TIP3    H148670   6.574   1.499   2.176 -0.3142  0.8670  0.3387
 9085TIP3    H248671   6.488   1.615   2.223 -0.4628  1.3640 -1.1229
 9086TIP3   OH248672   1.609   6.091  14.028 -0.1355  0.3946 -0.0257
 9086TIP3    H148673   1.591   6.161  13.966 -0.6067  0.7581  0.5268
 9086TIP3    H248674   1.701   6.104  14.053 -0.5422  1.4692  0.9179
 9087TIP3   OH248675   6.468   2.500  15.942 -0.9387  0.0152 -0.7354
 9087TIP3    H148676   6.443   2.449  16.019  0.6531  0.7918  0.3392
 9087TIP3    H248677   6.393   2.557  15.925 -0.4545  1.4877  1.7179
 9088TIP3   OH248678   4.021   3.039  11.652 -0.5883 -0.4326  0.2200
 9088TIP3    H148679   3.928   3.047  11.631 -0.8960  0.0505  1.7319
 9088TIP3    H248680   4.023   2.988  11.734  0.3765  1.0151  1.1154
 9089TIP3   OH248681   3.864   3.808   1.852  0.2016 -0.1774  0.1801
 9089TIP3    H148682   3.785   3.753   1.843 -0.2649  0.3160  1.1647
 9089TIP3    H248683   3.867   3.830   1.946 -0.4643  2.7374 -0.4474
 9090TIP3   OH248684   3.441   2.578   0.077 -0.2479 -0.0145  0.9147
 9090TIP3    H148685   3.403   2.609   0.159 -0.9380  0.1233  0.5546
 9090TIP3    H248686   3.477   2.657   0.036 -1.3139  0.2018  0.3590
 9091TIP3   OH248687   2.708   2.693  11.504 -0.3001  0.3132 -0.4822
 9091TIP3    H148688   2.682   2.752  11.575  1.5756  1.7324 -0.9235
 9091TIP3    H248689   2.723   2.751  11.429  2.1674 -0.6163 -0.7594
 9092TIP3   OH248690   0.884   1.826  16.585 -0.1060  0.0761  0.0938
 9092TIP3    H148691   0.793   1.801  16.599  0.3252 -0.9434  1.2138
 9092TIP3    H248692   0.906   1.881  16.660  0.9101 -1.7132  1.1389
 9093TIP3   OH248693   6.325   6.008  11.415 -1.1473  0.2121  0.1049
 9093TIP3    H148694   6.295   5.959  11.492  1.5599 -0.4314  0.8191
 9093TIP3    H248695   6.269   6.085  11.412 -1.5830  0.0248  2.4980
 9094TIP3   OH248696   4.293   0.983   4.677  0.4154  0.3697 -0.2440
 9094TIP3    H148697   4.224   0.922   4.650  0.6859  0.3287 -0.8319
 9094TIP3    H248698   4.312   0.959   4.768 -0.1364  0.1863 -0.1759
 9095TIP3   OH248699   1.001   0.774  15.243 -0.4793  0.4810  0.3314
 9095TIP3    H148700   0.998   0.740  15.154  0.5501  1.9161 -0.2608
 9095TIP3    H248701   1.063   0.717  15.289 -0.4770  0.1820 -0.0411
 9096TIP3   OH248702   1.508   4.067   0.806  0.2805 -0.3097 -0.8154
 9096TIP3    H148703   1.424   4.037   0.774 -0.8846  1.7132  0.2523
 9096TIP3    H248704   1.541   3.995   0.859 -1.1886 -0.7645 -0.5175
 9097TIP3   OH248705   0.746   1.190  14.789 -0.3906 -0.0516 -0.0434
 9097TIP3    H148706   0.758   1.125  14.859  0.6137  1.4633  1.2257
 9097TIP3    H248707   0.691   1.257  14.827 -0.8584  0.1960 -1.1289
 9098TIP3   OH248708   4.620   1.157  10.635 -0.2123  0.5357  0.4307
 9098TIP3    H148709   4.649   1.083  10.582 -0.7983  0.7171 -0.1563
 9098TIP3    H248710   4.679   1.229  10.609 -0.7949  0.7455 -0.3164
 9099TIP3   OH248711   3.809   6.112  10.786 -0.3942  0.3993  0.0113
 9099TIP3    H148712   3.901   6.088  10.779 -0.8936 -1.2096 -1.5352
 9099TIP3    H248713   3.779   6.118  10.696 -1.5007  2.2281  0.4770
 9100TIP3   OH248714   3.459   0.986   6.215 -0.0563  0.3419 -0.1453
 9100TIP3    H148715   3.535   1.012   6.164  1.5596  0.8033  2.4033
 9100TIP3    H248716   3.422   1.069   6.246 -0.2967  0.0237  0.4298
 9101TIP3   OH248717   2.970   6.548  16.391  0.2100 -0.2488 -0.0949
 9101TIP3    H148718   2.904   6.607  16.426  0.2437 -0.4643  0.3314
 9101TIP3    H248719   2.925   6.464  16.380  0.0095  0.0001 -1.2434
 9102TIP3   OH248720   3.829   1.016   5.172  0.2103  0.3565  0.6698
 9102TIP3    H148721   3.910   0.996   5.219 -0.4405 -0.6187  1.3950
 9102TIP3    H248722   3.835   0.968   5.090 -1.0290 -2.3413  2.0956
 9103TIP3   OH248723   4.375   4.939  16.227 -0.0831  0.3168 -0.0027
 9103TIP3    H148724   4.320   5.005  16.184 -0.0195  0.1712 -0.3138
 9103TIP3    H248725   4.393   4.975  16.314 -1.1959  0.0724  0.3334
 9104TIP3   OH248726   3.967   1.378  12.691 -0.0599 -0.1210 -0.0760
 9104TIP3    H148727   4.014   1.403  12.770 -1.5368  2.7085 -0.0247
 9104TIP3    H248728   4.012   1.424  12.620  0.1121 -1.1456 -0.6490
 9105TIP3   OH248729   0.859   0.084  12.115 -0.2984 -0.0625 -0.1771
 9105TIP3    H148730   0.860   0.087  12.211  1.0296  0.9655 -0.1999
 9105TIP3    H248731   0.860  -0.010  12.094  1.9214 -0.3109  0.8478
 9106TIP3   OH248732   0.538   0.897   0.951  0.1291  0.1973 -0.1182
 9106TIP3    H148733   0.465   0.939   0.906 -1.1134 -0.7756  0.9373
 9106TIP3    H248734   0.510   0.806   0.962  1.3816 -0.1177  0.5408
 9107TIP3   OH248735   5.291   6.751  11.254 -0.3154 -0.6281 -0.0486
 9107TIP3    H148736   5.282   6.740  11.349  0.9612  0.0204  0.1628
 9107TIP3    H248737   5.252   6.836  11.236  0.6449 -0.1482  0.1023
 9108TIP3   OH248738   6.016   1.654  16.811  0.2230 -0.0447  0.2738
 9108TIP3    H148739   5.986   1.667  16.901  1.6479 -1.5686  1.0051
 9108TIP3    H248740   5.982   1.729  16.763 -0.4906  0.8358  2.1033
 9109TIP3   OH248741   1.894   6.097  11.603 -0.3011  0.3807 -0.1598
 9109TIP3    H148742   1.906   6.191  11.609 -3.3383  0.8135  0.0957
 9109TIP3    H248743   1.830   6.076  11.670 -0.8848 -1.6166 -1.2711
 9110TIP3   OH248744   3.585   4.571  11.319 -0.2963 -0.3150 -0.5654
 9110TIP3    H148745   3.511   4.526  11.360 -0.1923 -1.2095 -1.3233
 9110TIP3    H248746   3.550   4.656  11.293 -0.6251 -0.1184  0.4884
 9111TIP3   OH248747   5.364   5.774   0.925  0.3313  0.1592 -0.1471
 9111TIP3    H148748   5.354   5.688   0.966  3.5542  0.3476  1.1910
 9111TIP3    H248749   5.404   5.755   0.840  1.0769  0.3278  0.1635
 9112TIP3   OH248750   3.661   1.467  13.716 -0.1202  0.4895 -0.5421
 9112TIP3    H148751   3.746   1.455  13.758 -0.9235  0.1361  1.0519
 9112TIP3    H248752   3.669   1.550  13.668  2.1458 -1.1260 -3.1126
 9113TIP3   OH248753   6.333   1.479   0.338 -0.1681 -0.7343  0.0605
 9113TIP3    H148754   6.375   1.467   0.423 -0.1195 -0.8491  0.0203
 9113TIP3    H248755   6.242   1.452   0.353 -0.6108  0.9695  0.5344
 9114TIP3   OH248756   0.607   1.828  14.806  0.1497 -0.3291  0.1192
 9114TIP3    H148757   0.579   1.775  14.880 -0.9917 -1.1396 -0.8753
 9114TIP3    H248758   0.599   1.919  14.837 -0.5349 -0.6513  0.8936
 9115TIP3   OH248759   1.815   6.463  12.924 -0.4207 -0.2184 -0.1128
 9115TIP3    H148760   1.837   6.400  12.855  1.3901  0.2588  0.0146
 9115TIP3    H248761   1.825   6.548  12.882 -0.1603  0.0498  0.4980
 9116TIP3   OH248762   2.431   0.032  11.640 -0.0815 -0.1354  0.9828
 9116TIP3    H148763   2.396   0.070  11.721  0.0490 -1.5420  1.7064
 9116TIP3    H248764   2.424  -0.062  11.652  0.4392 -0.3719 -0.4372
 9117TIP3   OH248765   3.025   1.054  16.491 -0.5423  0.0792  0.3888
 9117TIP3    H148766   3.081   1.117  16.447 -1.3384 -0.3104 -1.2227
 9117TIP3    H248767   2.958   1.031  16.426 -1.7494 -0.5087  1.8020
 9118TIP3   OH248768   1.256   1.739   3.215 -0.1139  0.4450  0.1512
 9118TIP3    H148769   1.324   1.786   3.263  0.6011  0.0666 -0.4865
 9118TIP3    H248770   1.215   1.682   3.281  1.5695 -0.8641  0.1074
 9119TIP3   OH248771   5.062   2.632  15.093 -0.3695  0.9047 -0.0334
 9119TIP3    H148772   5.071   2.724  15.068 -0.7521  0.4968 -1.7224
 9119TIP3    H248773   5.150   2.606  15.121  0.1076  1.3383 -1.1116
 9120TIP3   OH248774   4.023   4.821   0.664  0.4663  0.3294  0.6884
 9120TIP3    H148775   3.931   4.840   0.648  0.2397 -0.8466  0.5857
 9120TIP3    H248776   4.042   4.862   0.748 -0.1728  0.4916  0.7546
 9121TIP3   OH248777   5.072   6.513   4.189 -0.4354 -0.5533 -0.1831
 9121TIP3    H148778   5.066   6.524   4.094  2.6258 -1.5677 -0.5612
 9121TIP3    H248779   5.082   6.418   4.201 -1.5996 -0.5073  1.2264
 9122TIP3   OH248780   2.112   4.780  16.732 -0.1404  0.3130 -0.0291
 9122TIP3    H148781   2.064   4.721  16.790 -2.2702  0.9068 -1.1297
 9122TIP3    H248782   2.086   4.868  16.760  3.4714  0.8145  1.9810
 9123TIP3   OH248783   1.896   5.974  13.609 -0.2555 -0.1215 -0.4762
 9123TIP3    H148784   1.873   6.037  13.677  0.4424 -1.8857  1.4367
 9123TIP3    H248785   1.929   6.027  13.537  1.4379  1.6194  1.5456
 9124TIP3   OH248786   2.482   0.324  11.055 -0.0267  0.5269 -0.3748
 9124TIP3    H148787   2.540   0.249  11.048 -0.4961  0.2998 -2.1186
 9124TIP3    H248788   2.481   0.362  10.968 -1.5943  1.1964 -0.0880
 9125TIP3   OH248789   4.365   0.536   0.766  0.1367 -0.1740 -0.3930
 9125TIP3    H148790   4.363   0.612   0.825  0.7623 -0.1487 -0.4035
 9125TIP3    H248791   4.420   0.472   0.811  2.0921  0.5222 -1.7782
 9126TIP3   OH248792   1.846   4.928  14.746 -0.2419  0.3378 -0.1755
 9126TIP3    H148793   1.938   4.904  14.741 -0.0172  1.4548 -1.6979
 9126TIP3    H248794   1.818   4.935  14.654 -1.7148  0.4548  0.2736
 9127TIP3   OH248795   3.105   3.352  14.721  0.1182 -0.6812  0.1029
 9127TIP3    H148796   3.058   3.282  14.676 -1.1785 -0.0536  0.4424
 9127TIP3    H248797   3.054   3.431  14.703 -0.2159 -0.3479  2.3010
 9128TIP3   OH248798   5.579   5.945  11.931 -0.0159 -0.0078  0.1387
 9128TIP3    H148799   5.610   6.023  11.886 -1.0201 -0.0054 -0.5505
 9128TIP3    H248800   5.636   5.875  11.899  0.0742  0.2128 -0.1898
 9129TIP3   OH248801   5.484   2.677   3.983  0.4601  0.2671  0.1880
 9129TIP3    H148802   5.482   2.628   4.065  0.9095  1.7991  1.1337
 9129TIP3    H248803   5.536   2.622   3.924  0.6565 -0.5627  1.1158
 9130TIP3   OH248804   3.533   4.884   0.511  0.2271 -0.4059 -0.3854
 9130TIP3    H148805   3.595   4.869   0.582  0.6621  0.3183 -0.6147
 9130TIP3    H248806   3.463   4.820   0.527  1.1352 -1.3757 -0.2578
 9131TIP3   OH248807   4.534   6.489  13.856  0.2119  0.1642 -0.7124
 9131TIP3    H148808   4.579   6.503  13.940 -3.5306  1.3583  1.2210
 9131TIP3    H248809   4.550   6.570  13.807  0.5214  0.4246 -0.1897
 9132TIP3   OH248810   4.576   2.472   2.294 -0.2566 -0.3751 -0.1348
 9132TIP3    H148811   4.612   2.459   2.381  1.1315  2.3683 -0.2527
 9132TIP3    H248812   4.550   2.384   2.265  0.2255 -1.4603  2.5841
 9133TIP3   OH248813   0.475   3.794   3.787  0.5668  0.3842  0.1998
 9133TIP3    H148814   0.560   3.831   3.761  0.4426  0.1119 -0.5999
 9133TIP3    H248815   0.432   3.864   3.836  0.3399  1.3042 -1.2918
 9134TIP3   OH248816   0.348   1.901  14.973  0.1398  0.0586 -0.7979
 9134TIP3    H148817   0.366   1.893  15.067 -1.0100 -1.1297 -0.6702
 9134TIP3    H248818   0.425   1.946  14.938 -0.4979  2.7967  1.1063
 9135TIP3   OH248819   2.587   5.547   6.486  0.1968  0.4008 -0.0195
 9135TIP3    H148820   2.642   5.580   6.415  2.1287 -1.1218  0.7384
 9135TIP3    H248821   2.552   5.626   6.527 -0.5558  1.3258 -2.3107
 9136TIP3   OH248822   5.082   5.527  12.805 -0.1140  0.1176  0.2134
 9136TIP3    H148823   5.059   5.488  12.721  0.6115 -0.4529  0.2830
 9136TIP3    H248824   5.000   5.566  12.836 -0.9377 -1.6720  0.3221
 9137TIP3   OH248825   4.098   1.139  13.750  0.1164 -0.1991  0.1474
 9137TIP3    H148826   4.026   1.081  13.728 -1.8291  2.7764 -1.8017
 9137TIP3    H248827   4.157   1.134  13.675  0.0470  0.1205  0.0677
 9138TIP3   OH248828   5.710   6.188  11.868  0.3346 -0.5347 -0.6155
 9138TIP3    H148829   5.789   6.150  11.828 -0.7395 -0.6914 -2.6771
 9138TIP3    H248830   5.719   6.282  11.856 -0.0942 -0.5953 -1.4867
 9139TIP3   OH248831   0.653   5.905   5.247 -0.0140 -0.4036  0.5226
 9139TIP3    H148832   0.721   5.879   5.308  1.1780  0.9248 -0.2089
 9139TIP3    H248833   0.600   5.970   5.295  1.5187  1.3886 -0.1537
 9140TIP3   OH248834   2.738   4.717  16.113 -0.5703 -0.0347 -0.0317
 9140TIP3    H148835   2.702   4.727  16.201 -0.4151 -0.1587  0.0490
 9140TIP3    H248836   2.685   4.775  16.059 -0.2490  0.5361  0.2578
 9141TIP3   OH248837   3.465   4.375  11.898  0.1415 -0.8502 -0.0960
 9141TIP3    H148838   3.378   4.340  11.915  0.2172 -0.4986  1.0708
 9141TIP3    H248839   3.519   4.298  11.880 -0.3643 -1.0847 -0.6090
 9142TIP3   OH248840   0.504   1.723   3.609  0.7970  0.0904  0.4174
 9142TIP3    H148841   0.585   1.771   3.590  1.2372 -1.6006 -2.2596
 9142TIP3    H248842   0.530   1.656   3.672  1.1094  0.6361  0.8707
 9143TIP3   OH248843   4.706   2.053   4.551  0.2654 -0.0395 -0.0801
 9143TIP3    H148844   4.743   2.023   4.468  0.4647 -1.0491  0.3587
 9143TIP3    H248845   4.740   2.142   4.562  0.3561  0.0451 -1.0022
 9144TIP3   OH248846   0.978   1.457   5.319 -0.5617 -0.2412  0.4510
 9144TIP3    H148847   0.896   1.503   5.306 -0.2456  0.9665  2.5271
 9144TIP3    H248848   0.961   1.368   5.288 -2.5161  0.1111  0.4741
 9145TIP3   OH248849   2.024   4.357   0.188 -0.1182  0.0943 -0.1450
 9145TIP3    H148850   2.066   4.297   0.126 -1.1128 -0.0268 -0.7249
 9145TIP3    H248851   2.086   4.365   0.260  1.6548  1.3292 -1.7867
 9146TIP3   OH248852   3.492   2.319  15.799 -0.1640 -0.0618  0.1447
 9146TIP3    H148853   3.452   2.373  15.867 -1.4414 -1.3060  0.4214
 9146TIP3    H248854   3.484   2.371  15.719 -0.5174  0.5581  0.5770
 9147TIP3   OH248855   4.445   0.047  14.365  0.4517 -0.4237  0.3038
 9147TIP3    H148856   4.363   0.088  14.394  0.2965  0.2941 -1.0723
 9147TIP3    H248857   4.423   0.009  14.280  1.4379 -0.6032  0.1311
 9148TIP3   OH248858   6.402   4.262   1.785 -0.1290 -0.4963 -0.1237
 9148TIP3    H148859   6.356   4.184   1.754  0.4704 -1.1625  0.6349
 9148TIP3    H248860   6.335   4.330   1.784 -0.7480 -1.0972 -0.4923
 9149TIP3   OH248861   4.444   0.702   0.578  0.1293 -0.2420  0.4229
 9149TIP3    H148862   4.423   0.641   0.648  0.6474 -0.4196  0.4320
 9149TIP3    H248863   4.361   0.744   0.556 -0.3527 -1.4032 -0.0140
 9150TIP3   OH248864   4.835   5.756  14.041 -0.2687 -0.8289 -0.2030
 9150TIP3    H148865   4.923   5.793  14.040  0.6032 -2.8104 -2.0559
 9150TIP3    H248866   4.785   5.809  13.979 -0.2806  0.0346  0.5368
 9151TIP3   OH248867   2.367   5.605  13.503 -0.2629 -0.2946  0.1272
 9151TIP3    H148868   2.406   5.635  13.585 -1.4337  0.5675  0.3885
 9151TIP3    H248869   2.285   5.564  13.529 -1.5284  1.6033 -0.7398
 9152TIP3   OH248870   2.930   0.125  14.021 -0.3522 -0.2054  0.2679
 9152TIP3    H148871   2.996   0.130  14.091  0.8992 -0.1728 -0.8974
 9152TIP3    H248872   2.865   0.192  14.045 -0.3486 -0.7307  1.8102
 9153TIP3   OH248873   4.154   2.013   4.535 -0.0093  0.0305  0.0411
 9153TIP3    H148874   4.210   2.045   4.605 -0.5140  1.2572 -0.1104
 9153TIP3    H248875   4.215   1.976   4.471  0.6413  1.2668 -0.0774
 9154TIP3   OH248876   1.717   3.419   3.585 -0.3044  0.3387  0.4349
 9154TIP3    H148877   1.721   3.510   3.617 -1.3291  0.9364 -1.0592
 9154TIP3    H248878   1.730   3.427   3.491  0.6316 -1.1903  0.4292
 9155TIP3   OH248879   5.385   4.739  11.205  0.1318 -0.2850  0.3539
 9155TIP3    H148880   5.421   4.800  11.270  1.0736 -0.4975  0.0269
 9155TIP3    H248881   5.337   4.675  11.257  0.5758 -0.2463  0.8167
 9156TIP3   OH248882   6.065   4.859  10.960 -0.7333 -0.8116  0.1704
 9156TIP3    H148883   6.072   4.766  10.983 -2.8619 -1.1470 -0.4271
 9156TIP3    H248884   6.114   4.867  10.879  1.1352 -0.9940  1.2567
 9157TIP3   OH248885   1.588   3.840  16.179 -0.1608  0.4966  0.2425
 9157TIP3    H148886   1.654   3.893  16.223 -1.0206  0.8045  1.2002
 9157TIP3    H248887   1.620   3.750  16.187 -0.3661  0.5313  1.6506
 9158TIP3   OH248888   5.557   2.510   4.209  0.4292  0.5030  0.7615
 9158TIP3    H148889   5.603   2.513   4.293  1.0665  0.5401  0.4122
 9158TIP3    H248890   5.470   2.477   4.231  0.6839  0.2468  1.4027
 9159TIP3   OH248891   2.852   6.003  13.402 -0.0021  0.3479  0.3578
 9159TIP3    H148892   2.926   5.997  13.342  0.4472  1.1160  0.8201
 9159TIP3    H248893   2.882   6.063  13.471 -0.7728  0.0564  0.9541
 9160TIP3   OH248894   6.511   2.408  10.775  0.3168 -0.1200  0.6584
 9160TIP3    H148895   6.574   2.336  10.783 -0.9108 -1.1111  1.6000
 9160TIP3    H248896   6.425   2.366  10.781 -0.4177  1.6130  3.1730
 9161TIP3   OH248897   4.818   2.657   1.826 -0.0483  0.4886 -0.0657
 9161TIP3    H148898   4.780   2.729   1.876 -2.8565 -0.5192 -0.6824
 9161TIP3    H248899   4.812   2.581   1.884  0.9405  0.2744 -0.2223
 9162TIP3   OH248900   6.298   0.156   5.665  0.1712 -0.1749  0.2602
 9162TIP3    H148901   6.226   0.192   5.615  0.4197  0.2886  0.2398
 9162TIP3    H248902   6.358   0.229   5.679 -0.5172  0.0179  2.3566
 9163TIP3   OH248903   2.082   3.937   0.162  0.6651 -0.0287 -0.0717
 9163TIP3    H148904   2.035   4.000   0.107 -1.6798 -1.3477  0.3437
 9163TIP3    H248905   2.077   3.973   0.250 -0.8413 -0.8519  0.1960
 9164TIP3   OH248906   5.396   2.003  12.250  0.2376  0.4167 -0.1167
 9164TIP3    H148907   5.450   2.078  12.278 -0.1556  0.4093  0.6847
 9164TIP3    H248908   5.336   2.040  12.185 -0.0456  0.8257  0.3754
 9165TIP3   OH248909   2.109   5.576   5.727  0.1801  0.3211  0.5282
 9165TIP3    H148910   2.059   5.500   5.755  0.0757  0.3043  0.2997
 9165TIP3    H248911   2.063   5.609   5.650  1.4112 -0.6492 -0.6567
 9166TIP3   OH248912   2.927   0.430  15.493 -0.5531 -0.0773 -0.1773
 9166TIP3    H148913   2.907   0.376  15.570 -2.1706 -1.2891 -1.3920
 9166TIP3    H248914   2.947   0.516  15.528 -2.5960 -0.2594  1.5456
 9167TIP3   OH248915   4.064   4.764  13.112  0.2011  0.2309 -0.0787
 9167TIP3    H148916   3.991   4.820  13.138  0.4249  0.0718  0.9093
 9167TIP3    H248917   4.116   4.753  13.192 -0.9159 -3.0598  0.2701
 9168TIP3   OH248918   3.290   3.296  12.205  0.6517 -0.5889  0.0558
 9168TIP3    H148919   3.331   3.382  12.217  0.9715 -0.4411 -1.9039
 9168TIP3    H248920   3.332   3.261  12.126  0.0265 -2.2504  0.4491
 9169TIP3   OH248921   5.292   3.093  10.789  0.3285 -0.1861  0.2907
 9169TIP3    H148922   5.200   3.088  10.764  0.7253  1.0760 -1.5217
 9169TIP3    H248923   5.300   3.178  10.833  0.2014 -1.2400  2.4428
 9170TIP3   OH248924   0.776   6.150  12.811 -0.6043 -0.1946  0.5437
 9170TIP3    H148925   0.704   6.132  12.872  0.6804 -0.2259  2.0983
 9170TIP3    H248926   0.756   6.097  12.734 -1.8368 -0.8020  1.2597
 9171TIP3   OH248927   0.098   1.966   6.485  0.0582  0.4703 -0.5767
 9171TIP3    H148928   0.054   1.897   6.536 -1.6110  1.6725 -0.3558
 9171TIP3    H248929   0.026   2.021   6.453  1.3692  1.9683 -0.9493
 9172TIP3   OH248930   1.724   5.972   0.022  0.0773  0.4462 -0.5267
 9172TIP3    H148931   1.629   5.971   0.036  0.1207  0.2621 -0.2471
 9172TIP3    H248932   1.745   6.064   0.009 -0.4604  0.2896 -2.7645
 9173TIP3   OH248933   2.251   0.164  11.226 -0.1023 -0.4219  0.8932
 9173TIP3    H148934   2.314   0.201  11.165 -0.1528 -1.2460  0.3446
 9173TIP3    H248935   2.276   0.072  11.234 -0.7747 -0.5759  1.2548
 9174TIP3   OH248936   0.534   4.956   1.226 -0.5381  0.0465 -0.2593
 9174TIP3    H148937   0.624   4.928   1.239 -0.3573  0.6419 -0.2248
 9174TIP3    H248938   0.482   4.891   1.272 -0.1062 -0.0874  0.0395
 9175TIP3   OH248939   0.766   4.921   3.289  0.5664  0.0894  0.6318
 9175TIP3    H148940   0.698   4.988   3.298  1.8854  1.1443  3.1022
 9175TIP3    H248941   0.809   4.942   3.206 -0.6923  0.7378  0.1320
 9176TIP3   OH248942   1.818   2.002   2.165  0.2165 -0.7189 -0.3049
 9176TIP3    H148943   1.878   1.928   2.154  1.1770  0.2366 -1.6503
 9176TIP3    H248944   1.815   2.017   2.259  2.3707 -0.5672 -0.2410
 9177TIP3   OH248945   4.148   1.846   3.372 -0.0312 -0.2162 -0.1261
 9177TIP3    H148946   4.071   1.860   3.428 -0.7885 -0.5414 -1.0680
 9177TIP3    H248947   4.112   1.815   3.290  1.1474 -0.6838 -0.4726
 9178TIP3   OH248948   1.338   5.279  12.695  0.0547  0.0217 -0.4057
 9178TIP3    H148949   1.248   5.313  12.695 -0.1959 -0.6420  0.2485
 9178TIP3    H248950   1.353   5.253  12.604  0.1571  1.6205 -0.8587
 9179TIP3   OH248951   5.461   3.794   1.801  0.3521  0.3873  0.1058
 9179TIP3    H148952   5.529   3.736   1.767  0.3640  1.2892 -1.4664
 9179TIP3    H248953   5.381   3.766   1.755  0.0095  0.4647  0.6509
 9180TIP3   OH248954   5.421   5.416  14.831  0.1716  0.2298  0.5629
 9180TIP3    H148955   5.486   5.346  14.841  0.9880  0.7520 -1.0365
 9180TIP3    H248956   5.423   5.461  14.916  1.1852 -0.3646  0.8741
 9181TIP3   OH248957   5.470   5.044   0.125  0.6965  0.2892 -0.0508
 9181TIP3    H148958   5.488   5.110   0.058  0.7699 -0.8055 -1.1014
 9181TIP3    H248959   5.556   5.014   0.154  0.6372 -0.5119 -0.7147
 9182TIP3   OH248960   4.796   3.997   0.905  0.3358  0.8992 -0.2928
 9182TIP3    H148961   4.877   3.953   0.880  0.0638  1.0172 -1.4117
 9182TIP3    H248962   4.813   4.090   0.892 -0.7717  0.7746 -2.9830
 9183TIP3   OH248963   2.243   5.485  12.755  0.1133  0.0826 -0.0790
 9183TIP3    H148964   2.252   5.500  12.661  0.5460  1.1552  0.1283
 9183TIP3    H248965   2.279   5.397  12.769  0.4432  0.0932 -0.8541
 9184TIP3   OH248966   1.272   5.817   5.185  0.1465  0.0999 -0.1185
 9184TIP3    H148967   1.287   5.880   5.115 -0.5249  1.0437  0.5737
 9184TIP3    H248968   1.353   5.816   5.235 -0.3466  1.5517  0.7511
 9185TIP3   OH248969   3.133   5.261   2.698  0.3292  0.3948  0.2961
 9185TIP3    H148970   3.181   5.250   2.616  0.6753  0.7965  0.4399
 9185TIP3    H248971   3.059   5.318   2.676 -0.9885 -1.5029 -0.2676
 9186TIP3   OH248972   0.155   5.212   3.633  0.0853 -0.0744  0.2621
 9186TIP3    H148973   0.179   5.272   3.703 -1.3203 -0.2446  0.9097
 9186TIP3    H248974   0.077   5.167   3.666  0.4200 -1.3898 -0.7082
 9187TIP3   OH248975   1.242   0.096   4.435  0.2944 -0.5747  0.0035
 9187TIP3    H148976   1.250   0.147   4.515  0.0174  0.0076 -0.3345
 9187TIP3    H248977   1.175   0.030   4.454 -2.7485  2.1134 -1.0401
 9188TIP3   OH248978   4.924   4.396   0.385 -0.0556  0.1391 -0.2063
 9188TIP3    H148979   4.892   4.486   0.391  0.8589  0.4357  0.2936
 9188TIP3    H248980   4.973   4.383   0.466  1.1984 -0.2631 -1.0149
 9189TIP3   OH248981   3.258   0.040   0.080  0.0345 -0.1492 -0.2709
 9189TIP3    H148982   3.338   0.044   0.132 -0.0858  0.7938 -0.1373
 9189TIP3    H248983   3.215  -0.041   0.106 -0.6436  0.9057  2.0298
 9190TIP3   OH248984   5.010   5.800  12.738  0.0851  0.2796 -0.6185
 9190TIP3    H148985   5.013   5.766  12.827 -2.1582 -0.5678 -0.8182
 9190TIP3    H248986   4.970   5.887  12.746 -0.7595 -0.0810 -0.8573
 9191TIP3   OH248987   5.633   5.578   3.866 -0.3372 -0.5037  0.3861
 9191TIP3    H148988   5.589   5.648   3.915  0.3590  0.3030 -0.1246
 9191TIP3    H248989   5.725   5.605   3.863 -0.0356 -1.5291  0.3236
 9192TIP3   OH248990   0.461   0.613  15.077  0.1828  0.3454  0.4566
 9192TIP3    H148991   0.422   0.537  15.119  1.7667 -0.9290 -0.3012
 9192TIP3    H248992   0.523   0.647  15.142 -1.0935  1.4787  1.0968
 9193TIP3   OH248993   5.223   4.363  12.908  0.1532  0.3518  0.0340
 9193TIP3    H148994   5.206   4.270  12.917  0.2775  0.3385  0.1343
 9193TIP3    H248995   5.141   4.400  12.876  0.2519  0.1415 -0.4573
 9194TIP3   OH248996   0.710   6.569  13.432  0.2562  0.2480  0.5347
 9194TIP3    H148997   0.788   6.534  13.389 -0.7384 -2.0115  0.5291
 9194TIP3    H248998   0.731   6.564  13.526  0.3235  0.1435  0.5146
 9195TIP3   OH248999   1.799   2.244  15.102  0.2272  0.5076 -0.0524
 9195TIP3    H149000   1.838   2.258  15.015 -1.0380 -0.7137 -0.8312
 9195TIP3    H249001   1.706   2.228  15.085  0.0929 -0.4344  1.4634
 9196TIP3   OH249002   5.148   3.994   2.507 -0.3190  0.0731  0.1766
 9196TIP3    H149003   5.186   4.072   2.466  0.5939 -0.0500  0.7783
 9196TIP3    H249004   5.168   3.923   2.446  0.6230 -0.0274  0.5897
 9197TIP3   OH249005   0.387   2.709  13.149 -0.1670 -0.6752  0.0768
 9197TIP3    H149006   0.335   2.784  13.178  0.0623 -0.3589 -0.3378
 9197TIP3    H249007   0.358   2.692  13.060  0.3474 -0.5837 -0.1090
 9198TIP3   OH249008   2.914   4.660   3.345  0.0359 -0.0104 -0.3535
 9198TIP3    H149009   2.887   4.712   3.269  2.5157  0.7546 -0.7511
 9198TIP3    H249010   2.889   4.714   3.420 -2.6389 -0.8790 -0.5825
 9199TIP3   OH249011   3.575   2.568   2.263  0.5565  0.0091 -0.3196
 9199TIP3    H149012   3.542   2.509   2.195  0.0357 -1.9947  1.6125
 9199TIP3    H249013   3.502   2.628   2.280  0.5745  0.3134 -1.2947
 9200TIP3   OH249014   1.237   1.089  12.113 -0.5191 -0.5759  0.1142
 9200TIP3    H149015   1.267   1.157  12.053  0.9566  1.3852  2.9649
 9200TIP3    H249016   1.317   1.050  12.148 -1.3150 -0.7679  1.7884
 9201TIP3   OH249017   4.200   0.130   0.034  0.3141 -0.1441  0.1406
 9201TIP3    H149018   4.127   0.147   0.094  0.6533  0.4622  0.3890
 9201TIP3    H249019   4.170   0.164  -0.051  0.2951  0.0778  0.2383
 9202TIP3   OH249020   4.171   5.782  12.266  0.1436 -0.1429 -0.1773
 9202TIP3    H149021   4.213   5.826  12.192 -1.0533 -0.8611 -1.2760
 9202TIP3    H249022   4.192   5.838  12.341  1.0565  0.7749 -1.1011
 9203TIP3   OH249023   1.185   5.136  13.554  0.5934  0.3816  0.0629
 9203TIP3    H149024   1.262   5.086  13.525  0.0846 -2.1226  2.8232
 9203TIP3    H249025   1.178   5.207  13.490  3.6137 -0.8666 -1.7951
 9204TIP3   OH249026   0.010   3.594   1.741 -0.1019  0.2938  0.0183
 9204TIP3    H149027   0.068   3.661   1.707 -0.4819  0.1094 -0.9978
 9204TIP3    H249028   0.046   3.511   1.709 -1.4044  0.2381 -1.3576
 9205TIP3   OH249029   5.061   3.108  15.269 -0.4847 -0.2975  0.0973
 9205TIP3    H149030   5.074   3.180  15.207 -0.1942 -0.0215  0.4703
 9205TIP3    H249031   5.032   3.151  15.350 -0.7190 -0.6393  0.1951
 9206TIP3   OH249032   4.678   3.062   0.201 -0.2937  0.0326 -0.3475
 9206TIP3    H149033   4.736   3.117   0.149 -0.5134  0.0180 -0.6107
 9206TIP3    H249034   4.592   3.073   0.161 -0.4643  0.0105  0.0040
 9207TIP3   OH249035   3.534   5.239   6.384  0.5983 -0.0299  0.3520
 9207TIP3    H149036   3.494   5.309   6.436 -1.2236  1.0430 -2.3299
 9207TIP3    H249037   3.608   5.209   6.436  0.7687  3.1759  2.0749
 9208TIP3   OH249038   0.445   2.171   5.499 -0.3675  0.3070 -0.1623
 9208TIP3    H149039   0.478   2.254   5.533 -0.6171 -0.1614  1.2672
 9208TIP3    H249040   0.354   2.189   5.475  0.0005  0.8056 -1.1901
 9209TIP3   OH249041   6.166   3.633   2.008 -0.1063  0.0976  0.3842
 9209TIP3    H149042   6.077   3.605   2.028  0.1279 -0.5771  0.5001
 9209TIP3    H249043   6.165   3.651   1.914 -0.2479 -0.3751  0.2925
 9210TIP3   OH249044   2.276   3.772   0.719 -0.5248  0.3186 -0.9209
 9210TIP3    H149045   2.284   3.834   0.792 -1.7473  0.1995 -0.6763
 9210TIP3    H249046   2.305   3.822   0.642 -0.2318  0.7707 -0.5263
 9211TIP3   OH249047   2.446   6.239   5.042 -0.6122 -0.0526  0.0925
 9211TIP3    H149048   2.428   6.180   5.115  0.5118  0.1003  0.5053
 9211TIP3    H249049   2.504   6.305   5.079 -0.1714  0.1210 -0.9079
 9212TIP3   OH249050   5.267   4.499   5.501  0.0823  0.1188 -0.0732
 9212TIP3    H149051   5.233   4.458   5.580 -0.7590  0.3846 -0.2929
 9212TIP3    H249052   5.280   4.426   5.440  1.1115 -0.1320  0.4452
 9213TIP3   OH249053   0.610   2.659  13.278 -0.4032 -0.5292 -0.0889
 9213TIP3    H149054   0.538   2.687  13.222 -0.1064  0.5575  0.0589
 9213TIP3    H249055   0.678   2.724  13.264  0.1233 -0.9134  0.6344
 9214TIP3   OH249056   6.380   0.829   1.368 -0.2797 -0.4228 -0.4648
 9214TIP3    H149057   6.461   0.848   1.415 -1.5569  1.9659  0.8656
 9214TIP3    H249058   6.355   0.912   1.328 -2.3083 -0.9908 -0.4309
 9215TIP3   OH249059   3.602   1.151   5.233  0.1851 -0.0576  0.0052
 9215TIP3    H149060   3.694   1.147   5.204  0.4923 -0.0984  0.9661
 9215TIP3    H249061   3.584   1.244   5.243  0.5224 -0.0895  1.0304
 9216TIP3   OH249062   4.810   4.729  16.151  0.0372 -0.1018 -0.5096
 9216TIP3    H149063   4.873   4.789  16.111  1.1400 -0.0335  1.2649
 9216TIP3    H249064   4.724   4.769  16.136  0.5478  0.5804 -1.6090
 9217TIP3   OH249065   3.342   4.486   0.374  0.0276  0.4510  0.2436
 9217TIP3    H149066   3.272   4.440   0.328  0.6899  1.4128 -1.7975
 9217TIP3    H249067   3.297   4.551   0.428 -0.7922 -1.0262  1.3491
 9218TIP3   OH249068   1.490   3.804  13.083 -0.0926  0.4995  0.0850
 9218TIP3    H149069   1.434   3.872  13.121  0.7047 -0.1779  2.5840
 9218TIP3    H249070   1.561   3.852  13.040 -0.0760  1.2771  0.9735
 9219TIP3   OH249071   1.870   4.046  13.919  0.2491  0.7354 -0.0552
 9219TIP3    H149072   1.819   4.035  13.999  1.3965 -1.5819  0.3964
 9219TIP3    H249073   1.879   3.957  13.884  0.0068  1.6865 -2.6096
 9220TIP3   OH249074   4.172   1.316   2.292  0.2481  0.0598 -0.1439
 9220TIP3    H149075   4.100   1.370   2.324  1.4122  1.9687 -0.6151
 9220TIP3    H249076   4.174   1.333   2.198  1.5188  0.3268 -0.0844
 9221TIP3   OH249077   1.556   0.595   4.126 -0.1647  0.0227  0.5169
 9221TIP3    H149078   1.521   0.640   4.203  1.9511 -0.0768  1.5895
 9221TIP3    H249079   1.650   0.616   4.128  0.1927 -1.3886 -1.0664
 9222TIP3   OH249080   4.368   0.459   0.100 -0.3133  0.8338  0.0046
 9222TIP3    H149081   4.331   0.438   0.185 -0.1728 -1.5948 -0.4744
 9222TIP3    H249082   4.453   0.415   0.100 -0.4668  0.5170 -1.5109
 9223TIP3   OH249083   0.258   5.415   2.061  0.2097 -0.1631 -0.7154
 9223TIP3    H149084   0.233   5.453   1.977  3.3280 -0.6612 -1.9249
 9223TIP3    H249085   0.240   5.321   2.051 -0.9795 -0.0062 -0.1919
 9224TIP3   OH249086   3.671   4.255   4.402  0.3314  0.5404 -0.2755
 9224TIP3    H149087   3.679   4.159   4.405  0.2358  0.5652  1.6076
 9224TIP3    H249088   3.613   4.276   4.476 -0.4979  1.9730 -1.3163
 9225TIP3   OH249089   4.978   5.975  16.387  0.2806  0.1322  0.0812
 9225TIP3    H149090   4.934   6.031  16.323  1.7912  1.9642  0.6156
 9225TIP3    H249091   5.024   6.036  16.445  0.5235 -1.5844  1.7435
 9226TIP3   OH249092   4.897   2.408   2.001 -0.7264  0.4332 -0.6846
 9226TIP3    H149093   4.971   2.460   1.970  0.1156 -0.3042  0.0850
 9226TIP3    H249094   4.872   2.449   2.084  1.0728 -1.4405  0.8205
 9227TIP3   OH249095   1.580   1.271  15.935 -0.3050 -0.3130 -0.2603
 9227TIP3    H149096   1.570   1.310  16.021 -0.9406  0.2263 -0.5773
 9227TIP3    H249097   1.648   1.324  15.892  1.2920 -1.6757  0.5371
 9228TIP3   OH249098   4.540   1.369  13.250 -0.2302 -0.3203 -0.8082
 9228TIP3    H149099   4.568   1.399  13.336  1.7661  1.9897 -2.2039
 9228TIP3    H249100   4.451   1.403  13.240 -0.2046  0.0052  0.0860
 9229TIP3   OH249101   3.038   6.590  16.105 -0.1441  0.2464  0.1358
 9229TIP3    H149102   3.004   6.623  16.189 -0.0547 -1.0541  0.6892
 9229TIP3    H249103   3.127   6.624  16.100 -1.4423  3.6998 -1.3298
 9230TIP3   OH249104   0.097   4.847  15.841  0.7791  0.4645  0.2425
 9230TIP3    H149105   0.004   4.869  15.832  0.3893 -1.1154  0.2116
 9230TIP3    H249106   0.139   4.889  15.766  0.1726  1.6698  0.5746
 9231TIP3   OH249107   5.538   2.867   2.983  0.4258  0.1431 -0.2302
 9231TIP3    H149108   5.505   2.914   2.906 -0.0724  1.6020  0.8458
 9231TIP3    H249109   5.459   2.837   3.028  0.6289  1.4370  1.0081
 9232TIP3   OH249110   1.087   4.640  13.091  0.3684 -0.1155  0.4356
 9232TIP3    H149111   1.075   4.650  12.996  3.2028  3.3425  0.3266
 9232TIP3    H249112   1.177   4.608  13.100  0.9670  1.9279  1.9897
 9233TIP3   OH249113   3.746   2.249  15.400 -0.0960  0.2115 -0.3057
 9233TIP3    H149114   3.807   2.217  15.334  1.9306 -0.6545  1.9210
 9233TIP3    H249115   3.677   2.184  15.403  0.6829 -0.6278 -0.3823
 9234TIP3   OH249116   3.530   0.871   2.882 -0.2159  0.3589  0.1294
 9234TIP3    H149117   3.511   0.783   2.848 -0.8618  0.0574  1.2285
 9234TIP3    H249118   3.449   0.920   2.868  0.5886  1.2119 -1.7525
 9235TIP3   OH249119   5.489   4.868   3.701 -0.1020 -0.3620  0.0877
 9235TIP3    H149120   5.499   4.871   3.796 -1.3821 -0.9148  0.2498
 9235TIP3    H249121   5.421   4.933   3.682  0.8563  0.4749 -0.5629
 9236TIP3   OH249122   0.573   1.123   3.032  0.7903  0.5717 -0.4085
 9236TIP3    H149123   0.492   1.109   2.983  1.7381 -0.8101 -1.6163
 9236TIP3    H249124   0.620   1.188   2.980  2.2316 -1.6155 -1.8956
 9237TIP3   OH249125   6.520   4.829   4.801  0.1507  0.1490 -0.1664
 9237TIP3    H149126   6.454   4.833   4.731  1.5907  2.3866 -1.4419
 9237TIP3    H249127   6.478   4.873   4.875 -0.6587 -0.5000 -0.2292
 9238TIP3   OH249128   4.184   6.187   4.679  0.3289 -0.3409 -0.1988
 9238TIP3    H149129   4.153   6.103   4.712  0.5323 -0.2106  0.3172
 9238TIP3    H249130   4.220   6.167   4.592 -0.4854 -0.6232 -0.4752
 9239TIP3   OH249131   4.856   6.619   1.612 -0.4996  0.2825  0.4130
 9239TIP3    H149132   4.821   6.681   1.548 -0.6740 -0.6969 -0.4559
 9239TIP3    H249133   4.835   6.658   1.697 -0.0005  1.7374 -0.1184
 9240TIP3   OH249134   0.411   0.228  11.136  0.4227 -0.5469  0.1418
 9240TIP3    H149135   0.385   0.316  11.162  2.5879  0.0776  0.3116
 9240TIP3    H249136   0.335   0.174  11.156 -0.1603  0.9212  2.0710
 9241TIP3   OH249137   0.485   5.843   0.744 -0.3298  0.2523  0.0556
 9241TIP3    H149138   0.441   5.807   0.667 -3.2661  1.7296  0.9559
 9241TIP3    H249139   0.474   5.775   0.811 -2.2636  1.0668  0.5894
 9242TIP3   OH249140   3.767   0.488  12.322  0.4323  0.3726  0.7958
 9242TIP3    H149141   3.847   0.459  12.365  0.2740 -0.8167  0.3179
 9242TIP3    H249142   3.797   0.526  12.239  0.6248  1.4002  1.3319
 9243TIP3   OH249143   4.038   3.856  14.192  0.1880  0.2344  0.1695
 9243TIP3    H149144   4.008   3.939  14.231  0.4820 -0.3095  1.5870
 9243TIP3    H249145   3.959   3.819  14.153 -0.0878  0.8686  0.1060
 9244TIP3   OH249146   2.889   1.222   1.768  0.1519 -0.6490  0.8606
 9244TIP3    H149147   2.979   1.256   1.762  0.1303 -0.7475 -0.1189
 9244TIP3    H249148   2.837   1.286   1.719 -0.5507  0.2278  2.7090
 9245TIP3   OH249149   4.813   0.894  14.892 -0.6189  0.5213 -0.1144
 9245TIP3    H149150   4.908   0.894  14.901 -0.7990  1.4933  2.0358
 9245TIP3    H249151   4.798   0.922  14.801  1.1131  1.4943 -0.1241
 9246TIP3   OH249152   4.081   6.352  12.046  0.1645  0.4505  0.0021
 9246TIP3    H149153   4.068   6.425  11.987 -3.5066  0.0854  0.2447
 9246TIP3    H249154   4.045   6.276  12.000  1.6529 -0.7693  0.7606
 9247TIP3   OH249155   5.757   3.479  11.852  0.4333 -0.5848 -0.0741
 9247TIP3    H149156   5.831   3.432  11.813  0.7976 -0.1443  0.0861
 9247TIP3    H249157   5.747   3.557  11.798  0.1974 -0.5569  0.0105
 9248TIP3   OH249158   0.897   2.615  11.471 -0.1565 -0.1424  0.8199
 9248TIP3    H149159   0.967   2.568  11.515  1.8740  1.0234 -1.0330
 9248TIP3    H249160   0.923   2.707  11.477 -0.5620  0.1587 -1.4817
 9249TIP3   OH249161   5.816   4.351  13.274 -0.3695 -0.0458 -0.0358
 9249TIP3    H149162   5.731   4.351  13.231 -0.1997 -1.4138 -0.3966
 9249TIP3    H249163   5.879   4.365  13.204 -0.1351 -1.6441 -0.1651
 9250TIP3   OH249164   6.063   0.802   3.425  0.0030  0.0477  0.2352
 9250TIP3    H149165   6.032   0.768   3.341  0.3130  1.9200 -0.6491
 9250TIP3    H249166   6.006   0.876   3.444  1.5589  1.2504  0.3717
 9251TIP3   OH249167   5.996   4.619   5.558 -0.5734  0.9022  0.1870
 9251TIP3    H149168   5.909   4.623   5.518 -0.3694 -2.8572 -0.7775
 9251TIP3    H249169   5.981   4.587   5.646 -0.0824 -1.5674 -0.5770
 9252TIP3   OH249170   3.433   2.084  13.343 -0.2986  0.1747  0.7757
 9252TIP3    H149171   3.522   2.118  13.332 -1.1003  1.3808 -2.6480
 9252TIP3    H249172   3.423   2.020  13.273 -1.5085 -1.3848  2.3279
 9253TIP3   OH249173   2.728   3.540  13.665  0.0134 -0.2625  0.6438
 9253TIP3    H149174   2.804   3.547  13.606  0.4540 -0.6166  1.1703
 9253TIP3    H249175   2.656   3.513  13.608  0.9970 -3.1456  0.6767
 9254TIP3   OH249176   5.857   4.477  14.619  0.0069  0.2966 -0.2329
 9254TIP3    H149177   5.793   4.524  14.673 -0.6661  1.3403 -1.8947
 9254TIP3    H249178   5.815   4.394  14.598 -0.5757  0.7368 -0.8299
 9255TIP3   OH249179   0.530   6.520   4.995  0.4526 -0.3463 -0.1197
 9255TIP3    H149180   0.506   6.567   5.075  0.5770  1.7433 -1.2745
 9255TIP3    H249181   0.596   6.457   5.023 -0.5205 -0.5981  1.6612
 9256TIP3   OH249182   1.660   0.525  15.733  0.7954 -0.0311 -0.1892
 9256TIP3    H149183   1.660   0.554  15.824 -0.2252 -0.6096  0.0008
 9256TIP3    H249184   1.569   0.501  15.715  1.1037 -0.4923 -1.1758
 9257TIP3   OH249185   4.009   3.948   4.563  0.0805  0.1080  0.8955
 9257TIP3    H149186   4.034   3.894   4.487  0.2801  1.6754 -0.1837
 9257TIP3    H249187   4.085   4.005   4.578 -0.9347  1.5777  0.6344
 9258TIP3   OH249188   4.711   4.104  15.025 -0.8379  0.6812  0.1245
 9258TIP3    H149189   4.620   4.086  15.001 -0.4489  1.0139 -1.6673
 9258TIP3    H249190   4.734   4.034  15.087 -2.1505  0.2969  0.1819
 9259TIP3   OH249191   0.890   2.941  15.693  0.1225  0.6905  0.2822
 9259TIP3    H149192   0.924   2.915  15.607 -0.9825  2.0899 -0.6092
 9259TIP3    H249193   0.795   2.926  15.687 -0.3326  3.1939  0.3062
 9260TIP3   OH249194   1.028   0.564  12.451  0.0943  0.3832  0.2601
 9260TIP3    H149195   1.076   0.641  12.422  0.8508  0.2116  1.0736
 9260TIP3    H249196   1.067   0.540  12.535 -0.5416 -0.5207  0.3111
 9261TIP3   OH249197   2.313   0.665   3.255 -0.0335  0.1647  0.1811
 9261TIP3    H149198   2.261   0.599   3.208  1.7313 -1.0209 -0.1376
 9261TIP3    H249199   2.269   0.674   3.340 -1.0096 -0.5010 -0.2458
 9262TIP3   OH249200   2.262   2.275  12.718  0.4392 -0.4247 -0.1806
 9262TIP3    H149201   2.212   2.287  12.637  1.4130  1.3827 -0.5323
 9262TIP3    H249202   2.202   2.302  12.788 -0.6136 -2.5509 -0.1971
 9263TIP3   OH249203   5.218   5.164  16.097  0.6562  0.1380 -0.0862
 9263TIP3    H149204   5.126   5.171  16.070  0.9807  0.8831 -1.0006
 9263TIP3    H249205   5.261   5.118  16.025  1.2754  1.0229 -0.2870
 9264TIP3   OH249206   6.667   6.469  15.142 -0.5266  0.0905  0.0556
 9264TIP3    H149207   6.655   6.492  15.234 -0.3373  0.3802  0.0043
 9264TIP3    H249208   6.616   6.534  15.094  0.2780  0.6017 -0.1022
 9265TIP3   OH249209   0.327   5.284   3.228  0.3955  0.0303 -0.2194
 9265TIP3    H149210   0.338   5.366   3.179 -0.4801  0.5987  0.5120
 9265TIP3    H249211   0.259   5.304   3.292 -1.2259 -1.8503 -1.3019
 9266TIP3   OH249212   4.031   3.666  14.561 -0.5565  0.0733 -0.2445
 9266TIP3    H149213   4.098   3.721  14.603 -2.6351  2.4837  0.0320
 9266TIP3    H249214   4.048   3.578  14.594  0.5361  1.1787  2.2635
 9267TIP3   OH249215   2.870   5.906   1.262 -0.3892  0.1578 -0.4082
 9267TIP3    H149216   2.871   6.002   1.262  2.3056  0.1648 -0.1909
 9267TIP3    H249217   2.846   5.882   1.173 -2.5805  1.0030 -0.0818
 9268TIP3   OH249218   6.116   0.753   1.092  0.3254 -0.1768  0.1458
 9268TIP3    H149219   6.129   0.659   1.105 -0.8104 -0.4028 -0.3060
 9268TIP3    H249220   6.078   0.784   1.174 -1.6191 -0.5793 -0.5777
 9269TIP3   OH249221   2.605   6.098  10.801 -0.1254  0.1032 -0.2123
 9269TIP3    H149222   2.536   6.128  10.859 -1.4186 -0.0552 -1.6400
 9269TIP3    H249223   2.656   6.036  10.853 -1.7929 -0.7004  0.4737
 9270TIP3   OH249224   5.274   6.135   5.667 -0.1795  0.1194  0.0456
 9270TIP3    H149225   5.213   6.198   5.705 -0.5046  0.2872 -0.7455
 9270TIP3    H249226   5.258   6.141   5.572  0.1874 -0.7339 -0.0690
 9271TIP3   OH249227   4.900   5.025   4.988 -0.1852  0.2488  0.3107
 9271TIP3    H149228   4.822   4.972   5.008 -1.4903  1.4268 -1.4992
 9271TIP3    H249229   4.932   5.052   5.074 -2.0304  0.0846  1.0853
 9272TIP3   OH249230   5.141   1.401  15.823 -0.2409  0.1477 -0.5652
 9272TIP3    H149231   5.125   1.342  15.749  1.2548  0.8786 -1.4935
 9272TIP3    H249232   5.152   1.343  15.898  1.7732 -0.8095 -1.5710
 9273TIP3   OH249233   1.950   1.564   2.925  0.3276 -0.2652 -0.6062
 9273TIP3    H149234   1.907   1.549   2.841 -1.3457 -0.9890  0.3519
 9273TIP3    H249235   1.907   1.642   2.961  1.1746  0.1640 -0.4863
 9274TIP3   OH249236   4.331   2.082   4.749  0.3205  0.3206  0.4084
 9274TIP3    H149237   4.396   2.013   4.760 -0.7868 -0.6629  0.8222
 9274TIP3    H249238   4.301   2.101   4.838  0.6525  1.3636  0.3025
 9275TIP3   OH249239   3.823   2.027   6.798 -0.2515 -0.7948 -0.2027
 9275TIP3    H149240   3.790   2.081   6.871 -1.1112 -0.5273 -0.7880
 9275TIP3    H249241   3.767   2.050   6.724  0.5334 -1.1748 -0.9183
 9276TIP3   OH249242   4.828   6.115   3.415 -0.2160 -0.1229 -0.3588
 9276TIP3    H149243   4.785   6.054   3.475 -0.4884  0.7097  0.2995
 9276TIP3    H249244   4.921   6.108   3.436 -0.3993  0.8392  0.7899
 9277TIP3   OH249245   2.490   2.775  12.647 -0.2179  0.9257  0.1151
 9277TIP3    H149246   2.407   2.798  12.606 -0.7715  1.5539  1.5329
 9277TIP3    H249247   2.475   2.690  12.687  0.6435 -0.1766 -1.8317
 9278TIP3   OH249248   6.088   6.192   2.062 -0.0090 -0.1362  0.5647
 9278TIP3    H149249   6.142   6.198   1.984  0.0788 -0.8579  0.5663
 9278TIP3    H249250   6.075   6.283   2.090  0.0782  0.1139 -0.2020
 9279TIP3   OH249251   3.176   3.227   2.355  0.1308 -0.3167 -0.1600
 9279TIP3    H149252   3.189   3.287   2.281 -0.2505 -0.4928 -0.3674
 9279TIP3    H249253   3.093   3.254   2.394  0.2874 -0.2820  0.1508
 9280TIP3   OH249254   0.807   4.789  13.645 -0.8126  0.1415 -0.0940
 9280TIP3    H149255   0.864   4.867  13.644  0.1839 -0.5587  0.6332
 9280TIP3    H249256   0.863   4.720  13.681 -1.0611 -1.4276 -2.6409
 9281TIP3   OH249257   4.860   3.093  14.834 -0.4850 -0.0181  0.5115
 9281TIP3    H149258   4.813   3.074  14.915 -0.3429  2.0222  1.1071
 9281TIP3    H249259   4.946   3.054  14.846  0.2287  1.9629  2.2161
 9282TIP3   OH249260   4.301   1.311  14.402 -0.2486  0.2010  0.2422
 9282TIP3    H149261   4.342   1.395  14.424 -0.0796  0.1724  0.0328
 9282TIP3    H249262   4.233   1.333  14.339  0.3877  0.0682 -0.4985
 9283TIP3   OH249263   3.298   6.065  11.667  0.0608 -0.1745  0.9709
 9283TIP3    H149264   3.361   6.005  11.626 -0.7222 -0.1044 -0.3709
 9283TIP3    H249265   3.344   6.150  11.669 -0.0085 -0.0976 -0.1053
 9284TIP3   OH249266   2.709   2.482  14.241  0.4595  0.2415 -0.0484
 9284TIP3    H149267   2.707   2.409  14.178 -1.9086 -1.1378  1.5583
 9284TIP3    H249268   2.673   2.556  14.192  0.6009 -0.2788 -0.9595
 9285TIP3   OH249269   3.913   1.773   0.599 -0.0712 -0.4775  0.5188
 9285TIP3    H149270   4.000   1.747   0.630 -0.3612 -1.3201  0.6316
 9285TIP3    H249271   3.931   1.829   0.523  0.6124  0.5963  1.4377
 9286TIP3   OH249272   5.036   4.116   1.038  0.3054  0.4595  0.0702
 9286TIP3    H149273   4.995   4.165   0.967 -0.4862  0.4888  0.5378
 9286TIP3    H249274   5.122   4.156   1.048 -0.0961  1.3453  0.0278
 9287TIP3   OH249275   5.457   5.079   4.436 -0.0173 -0.1209  0.3920
 9287TIP3    H149276   5.522   5.104   4.502  1.1725  0.2549 -0.8928
 9287TIP3    H249277   5.414   5.161   4.414  1.8512  0.3732 -1.6588
 9288TIP3   OH249278   2.651   0.496  16.975  0.1217 -0.1099 -0.2213
 9288TIP3    H149279   2.675   0.403  16.983  1.4408  0.3582  1.4406
 9288TIP3    H249280   2.590   0.511  17.047  2.4698  1.0960  1.5882
 9289TIP3   OH249281   1.537   4.111   3.854 -0.2992 -0.2672 -0.4131
 9289TIP3    H149282   1.484   4.049   3.904  0.1759 -0.1796  0.2068
 9289TIP3    H249283   1.598   4.148   3.918 -1.4883  1.8671 -0.4930
 9290TIP3   OH249284   1.472   2.466  15.856 -0.1102 -0.9055 -0.4809
 9290TIP3    H149285   1.540   2.454  15.922 -0.0400  1.7764  0.0163
 9290TIP3    H249286   1.521   2.489  15.776 -0.3671  0.6446 -0.2178
 9291TIP3   OH249287   0.878   2.369   1.867  0.2171  0.0153  0.1385
 9291TIP3    H149288   0.875   2.312   1.790 -1.3141 -0.6665  0.6804
 9291TIP3    H249289   0.847   2.314   1.939 -0.3712  1.2465  0.8474
 9292TIP3   OH249290   3.916   5.445   0.387  0.6189  0.1849  0.2401
 9292TIP3    H149291   3.982   5.515   0.380  1.2251 -0.3492  0.6093
 9292TIP3    H249292   3.881   5.437   0.298 -0.7260  2.1796  0.5497
 9293TIP3   OH249293   6.240   4.600  15.630  0.4879 -0.2061 -0.0413
 9293TIP3    H149294   6.248   4.532  15.563  2.4030  1.6283 -1.7754
 9293TIP3    H249295   6.246   4.554  15.713 -1.5265 -2.4963 -1.1347
 9294TIP3   OH249296   5.854   5.625   0.080  0.2883  0.5884  0.4266
 9294TIP3    H149297   5.808   5.578   0.150  0.8397  0.7479  0.9007
 9294TIP3    H249298   5.784   5.661   0.025 -0.1820  2.3770  2.1615
 9295TIP3   OH249299   2.612   6.471  11.642  0.7231 -0.2448  0.1707
 9295TIP3    H149300   2.521   6.459  11.666  0.2285  1.1446 -0.9659
 9295TIP3    H249301   2.624   6.420  11.562  0.2776  1.5677 -1.0776
 9296TIP3   OH249302   6.635   1.410  15.610 -0.3033 -0.0680  0.1919
 9296TIP3    H149303   6.603   1.490  15.569  0.3371  0.8851  1.5383
 9296TIP3    H249304   6.565   1.385  15.671  0.0459  0.1322  0.6675
 9297TIP3   OH249305   4.690   6.053   2.082  1.0294  0.6867  0.2017
 9297TIP3    H149306   4.681   6.102   2.000  0.4619 -0.7894 -0.6363
 9297TIP3    H249307   4.744   6.109   2.137  1.3581  1.7385 -1.1519
 9298TIP3   OH249308   4.731   0.607   2.716 -0.3935  0.1404  0.4165
 9298TIP3    H149309   4.669   0.570   2.779 -1.3899 -2.3938 -1.9536
 9298TIP3    H249310   4.808   0.551   2.722 -1.5158 -1.8491 -2.4473
 9299TIP3   OH249311   1.416   2.709   1.955  0.5119 -0.1870  0.3282
 9299TIP3    H149312   1.454   2.677   1.874  0.7334  1.5901 -0.3085
 9299TIP3    H249313   1.362   2.784   1.928 -0.6878 -0.5694  1.6227
 9300TIP3   OH249314   3.576   3.916  15.840  0.0095 -0.3030 -0.1252
 9300TIP3    H149315   3.580   3.823  15.865 -1.1294 -0.4231 -0.3446
 9300TIP3    H249316   3.613   3.918  15.752 -3.7236 -1.2516 -1.8478
 9301TIP3   OH249317   1.385   2.432   3.177  0.0029  0.0798  0.1191
 9301TIP3    H149318   1.426   2.374   3.113 -2.5996  1.0322 -2.5438
 9301TIP3    H249319   1.373   2.377   3.255  3.1093 -1.1443 -0.1992
 9302TIP3   OH249320   1.045   3.024  13.876  0.1417  0.3244 -0.3944
 9302TIP3    H149321   1.101   3.069  13.813  1.2737 -0.8910 -0.3062
 9302TIP3    H249322   1.052   2.931  13.851 -2.8189  0.2626 -1.1223
 9303TIP3   OH249323   3.087   3.049  12.540 -0.2518 -0.3021  0.0418
 9303TIP3    H149324   3.149   2.996  12.590 -1.0957  1.2680  2.8686
 9303TIP3    H249325   3.142   3.109  12.489  0.6637  1.3053  2.7731
 9304TIP3   OH249326   3.141   1.540  16.756  0.3080 -0.0054 -0.0082
 9304TIP3    H149327   3.213   1.582  16.803 -0.2952  0.7999  0.2012
 9304TIP3    H249328   3.108   1.474  16.817  0.0991  0.4385  0.3631
 9305TIP3   OH249329   6.482   1.435  12.453  0.1106 -0.1285 -0.3555
 9305TIP3    H149330   6.467   1.529  12.450 -2.3774 -0.4527  0.8559
 9305TIP3    H249331   6.399   1.396  12.426  0.7410 -2.0062  0.3003
 9306TIP3   OH249332   6.293   3.048   6.561  0.9374  0.3217  0.1550
 9306TIP3    H149333   6.343   3.091   6.491 -0.6452  0.7738 -0.7207
 9306TIP3    H249334   6.272   3.119   6.622  0.2188  0.3980 -0.1716
 9307TIP3   OH249335   0.374   6.457   2.129  0.4493 -0.3137  0.4014
 9307TIP3    H149336   0.317   6.534   2.121 -0.0472 -0.7793 -0.6224
 9307TIP3    H249337   0.373   6.417   2.042 -0.2931 -2.1826  1.2337
 9308TIP3   OH249338   4.665   5.076   3.393 -0.2826  0.4851  0.3902
 9308TIP3    H149339   4.644   5.108   3.481 -2.8297  0.0021  0.0038
 9308TIP3    H249340   4.636   4.985   3.393  0.3712  0.2720 -0.7170
 9309TIP3   OH249341   0.782   6.602   5.893 -0.2239  0.0782 -0.2877
 9309TIP3    H149342   0.779   6.688   5.933  0.4799 -0.0164 -0.0330
 9309TIP3    H249343   0.814   6.618   5.804  3.2202 -0.2823  0.8103
 9310TIP3   OH249344   3.730   2.604   5.402 -0.2533  0.1335  0.4341
 9310TIP3    H149345   3.822   2.581   5.416 -0.5090 -0.3370  1.4164
 9310TIP3    H249346   3.724   2.623   5.309  0.9697  0.7592  0.4661
 9311TIP3   OH249347   1.324   5.918  11.195 -0.3360 -0.3697  0.0843
 9311TIP3    H149348   1.372   5.991  11.156 -0.5386 -0.3822 -0.1905
 9311TIP3    H249349   1.261   5.893  11.128 -0.1681 -0.8941  0.1233
 9312TIP3   OH249350   5.028   3.463   5.413  0.0936 -0.2687  0.7458
 9312TIP3    H149351   4.953   3.433   5.465 -1.5422  0.1395 -1.2689
 9312TIP3    H249352   5.056   3.544   5.455  0.2657 -1.1359  2.3200
 9313TIP3   OH249353   6.774   1.598   5.103 -0.5063 -0.1172  0.3256
 9313TIP3    H149354   6.796   1.563   5.189 -2.3102  0.3348  0.9713
 9313TIP3    H249355   6.747   1.521   5.052  0.2342 -0.3350  0.2536
 9314TIP3   OH249356   5.964   3.863  16.536  0.1988  0.1955 -0.0280
 9314TIP3    H149357   5.896   3.931  16.535  0.6220  0.6146 -0.2969
 9314TIP3    H249358   6.045   3.911  16.555  0.6125 -0.1368 -0.9585
 9315TIP3   OH249359   5.975   5.513  15.185 -0.1555  0.0695  0.4713
 9315TIP3    H149360   6.036   5.555  15.246 -0.1849 -0.3097  0.7658
 9315TIP3    H249361   6.026   5.445  15.142 -0.6106 -0.9083  1.4335
 9316TIP3   OH249362   2.592   6.360   4.195 -0.0048  0.5236  0.6883
 9316TIP3    H149363   2.523   6.294   4.184  0.0450  0.4982  0.5261
 9316TIP3    H249364   2.673   6.314   4.171 -0.2583  1.3693 -2.0282
 9317TIP3   OH249365   5.762   0.256   0.453  0.7946  0.1510 -0.2094
 9317TIP3    H149366   5.701   0.316   0.410  0.7793  0.3414  0.0760
 9317TIP3    H249367   5.823   0.313   0.499 -1.0908 -0.0578  2.6611
 9318TIP3   OH249368   6.367   1.239  14.370  0.2609 -0.5583 -0.0231
 9318TIP3    H149369   6.436   1.196  14.320  0.5294  1.0625 -1.0999
 9318TIP3    H249370   6.285   1.212  14.327  0.2988 -1.4280  0.4379
 9319TIP3   OH249371   6.776   6.724  12.378 -0.2488 -0.1215  0.2923
 9319TIP3    H149372   6.793   6.790  12.311  1.2998  0.4129  1.1847
 9319TIP3    H249373   6.784   6.640  12.333  0.0235  0.2526 -0.3522
 9320TIP3   OH249374   1.193   4.804  14.115 -0.1855 -0.2458  0.4846
 9320TIP3    H149375   1.255   4.876  14.132  0.4844 -0.6919 -0.0339
 9320TIP3    H249376   1.213   4.776  14.025 -1.2803 -0.2644  0.2380
 9321TIP3   OH249377   0.569   1.991   2.452  0.3909 -0.1834  0.2651
 9321TIP3    H149378   0.495   1.972   2.509  1.1002 -0.5031  1.0696
 9321TIP3    H249379   0.622   1.911   2.452  0.9394  0.1751 -0.0136
 9322TIP3   OH249380   1.945   0.617  13.939  0.5829  0.1478 -0.6089
 9322TIP3    H149381   1.863   0.571  13.955  0.3905  0.7212  0.1349
 9322TIP3    H249382   1.921   0.690  13.882  0.3949  0.8384  0.3291
 9323TIP3   OH249383   4.511   4.291  16.302  0.5440  0.0766  0.7417
 9323TIP3    H149384   4.453   4.285  16.226  0.0104  0.2215  1.1324
 9323TIP3    H249385   4.550   4.378  16.296 -1.0806  0.9067  1.7560
 9324TIP3   OH249386   2.285   0.132   0.799 -0.4455  0.5452 -0.2593
 9324TIP3    H149387   2.353   0.152   0.864 -0.4263 -1.2568  0.2918
 9324TIP3    H249388   2.334   0.114   0.718 -0.3227  0.2201 -0.1133
 9325TIP3   OH249389   0.033   6.555  17.072 -0.2391 -0.0989  0.2683
 9325TIP3    H149390   0.126   6.541  17.053  0.0447  1.9775 -0.0489
 9325TIP3    H249391   0.017   6.506  17.152  2.0320  2.3732  2.3401
 9326TIP3   OH249392   4.736   0.997  14.204  0.0661 -0.4139  0.0159
 9326TIP3    H149393   4.685   1.073  14.177  1.8850  1.3469  1.4258
 9326TIP3    H249394   4.685   0.956  14.273 -0.2872  0.2823  0.1669
 9327TIP3   OH249395   0.288   5.684  15.272  0.7655 -0.0490  0.1222
 9327TIP3    H149396   0.321   5.737  15.199  0.6771  1.0316  0.8572
 9327TIP3    H249397   0.366   5.641  15.308  0.9862  0.3574  0.1373
 9328TIP3   OH249398   4.410   2.084   3.606 -0.0772 -0.3513  0.2111
 9328TIP3    H149399   4.338   2.121   3.556 -0.7670  1.5699  2.5447
 9328TIP3    H249400   4.489   2.124   3.568 -0.5316  0.5580  0.2324
 9329TIP3   OH249401   1.146   3.793   5.454  0.0436  0.4928  0.2021
 9329TIP3    H149402   1.162   3.730   5.525  0.3427  0.4547  0.1009
 9329TIP3    H249403   1.117   3.872   5.499  1.1995  0.7956  0.4425
 9330TIP3   OH249404   4.087   3.518  15.649  0.1354  0.0994 -0.8131
 9330TIP3    H149405   4.151   3.585  15.671  0.0491  0.2633 -1.0569
 9330TIP3    H249406   4.124   3.473  15.573 -0.3675  0.6590 -1.3961
 9331TIP3   OH249407   0.695   4.035   4.367  0.5728  0.1409  0.2287
 9331TIP3    H149408   0.654   3.958   4.407 -1.3190 -0.1245 -2.1124
 9331TIP3    H249409   0.776   4.047   4.416 -0.8710 -1.1411  3.0409
 9332TIP3   OH249410   4.304   1.969  13.172  0.1285 -0.1625  0.1439
 9332TIP3    H149411   4.230   1.939  13.120  0.0694  0.5009 -0.1666
 9332TIP3    H249412   4.379   1.919  13.139 -0.0601 -0.3506  0.0009
 9333TIP3   OH249413   3.609   0.870   5.279  0.0476  0.6743  0.5386
 9333TIP3    H149414   3.662   0.943   5.247  0.7359  0.7177  1.7426
 9333TIP3    H249415   3.530   0.911   5.313  0.0377  0.7823  0.3850
 9334TIP3   OH249416   4.053   4.976  17.063 -1.1224 -0.4057  0.0040
 9334TIP3    H149417   4.090   5.025  16.990 -1.5313 -0.4354 -0.2233
 9334TIP3    H249418   3.985   5.034  17.099 -1.9230 -0.9931 -0.5523
 9335TIP3   OH249419   3.220   0.413   4.012  0.1624 -0.0723 -0.3915
 9335TIP3    H149420   3.222   0.383   3.921 -0.6859  0.6126 -0.6542
 9335TIP3    H249421   3.298   0.375   4.052  0.3642 -0.6599 -1.3180
 9336TIP3   OH249422   3.111   0.712   5.502  0.1898 -0.8456 -0.1910
 9336TIP3    H149423   3.099   0.623   5.467 -0.6063 -0.7957 -0.0409
 9336TIP3    H249424   3.065   0.711   5.586 -1.3266  0.2225 -0.9853
 9337TIP3   OH249425   6.659   1.453   3.931 -0.0036  0.3061  0.4221
 9337TIP3    H149426   6.754   1.446   3.928 -0.0826 -1.1620  1.2424
 9337TIP3    H249427   6.638   1.515   3.861  1.2810 -2.0860 -2.1799
 9338TIP3   OH249428   4.736   4.634  11.404  0.0128  0.2503 -0.2263
 9338TIP3    H149429   4.710   4.557  11.454 -0.0724  0.1608 -0.4062
 9338TIP3    H249430   4.823   4.655  11.435  0.2943 -0.3034 -0.6329
 9339TIP3   OH249431   3.490   3.743  13.557  0.3776  0.1744 -0.6649
 9339TIP3    H149432   3.554   3.809  13.582  0.3487  0.7088 -1.9914
 9339TIP3    H249433   3.405   3.782  13.579  0.3173  0.9030 -2.1795
 9340TIP3   OH249434   4.524   0.280  16.535  0.1474 -0.2945  0.6384
 9340TIP3    H149435   4.567   0.340  16.475  0.0664 -1.8145 -0.9745
 9340TIP3    H249436   4.452   0.242  16.484 -2.4143  1.3091  2.9102
 9341TIP3   OH249437   1.977   1.660   5.691 -0.3461 -0.0466 -0.1318
 9341TIP3    H149438   1.888   1.623   5.696 -0.4107  0.0219 -0.6882
 9341TIP3    H249439   2.034   1.591   5.725 -0.6571  0.0784  0.6441
 9342TIP3   OH249440   1.587   6.499  15.165  0.0414  0.5259 -0.4461
 9342TIP3    H149441   1.650   6.502  15.093 -2.3999 -0.1047 -2.6882
 9342TIP3    H249442   1.503   6.518  15.124 -1.3351  0.7503  2.3734
 9343TIP3   OH249443   1.120   2.109   0.687 -0.7075  0.0300 -0.0935
 9343TIP3    H149444   1.093   2.139   0.601 -0.1203 -0.4011 -0.4333
 9343TIP3    H249445   1.187   2.172   0.715 -0.4292 -0.1987 -0.2372
 9344TIP3   OH249446   2.474   0.123  10.619 -0.5197  0.3037  0.2202
 9344TIP3    H149447   2.412   0.141  10.690 -1.9398  1.2822 -1.2340
 9344TIP3    H249448   2.518   0.207  10.604 -1.7155  0.6504 -1.4442
 9345TIP3   OH249449   6.012   1.944   3.122  0.3205  0.9402 -0.5725
 9345TIP3    H149450   6.064   1.931   3.202 -0.6345  1.4218  0.1259
 9345TIP3    H249451   6.042   2.028   3.088  0.4835  0.8940 -0.5468
 9346TIP3   OH249452   2.222   5.408  16.395 -0.6779 -0.2060  0.0288
 9346TIP3    H149453   2.313   5.439  16.390 -1.4282  1.9541 -0.6926
 9346TIP3    H249454   2.230   5.313  16.406  1.6586 -0.1884 -1.1870
 9347TIP3   OH249455   6.231   3.344   2.290  0.0336  0.4485  0.1782
 9347TIP3    H149456   6.310   3.291   2.305 -0.0052  0.7110  1.4085
 9347TIP3    H249457   6.260   3.416   2.234  0.8192  0.8797  1.1250
 9348TIP3   OH249458   2.997   5.865  15.330 -0.1650  0.2691 -0.3143
 9348TIP3    H149459   3.010   5.959  15.319 -2.9837  0.6804 -0.3740
 9348TIP3    H249460   2.993   5.852  15.425 -2.6055  0.6737 -0.3217
 9349TIP3   OH249461   2.291   0.364   4.242 -0.4459 -0.1411 -1.0015
 9349TIP3    H149462   2.296   0.446   4.194  1.4254 -0.1204 -0.8358
 9349TIP3    H249463   2.237   0.384   4.318  1.7701  1.5832  0.1933
 9350TIP3   OH249464   2.522   6.311   2.580 -0.4400  0.2690  0.1406
 9350TIP3    H149465   2.525   6.239   2.643 -1.1014  0.9518  0.9627
 9350TIP3    H249466   2.614   6.334   2.565 -0.2592 -0.2195  0.4859
 9351TIP3   OH249467   1.361   3.757   4.623 -0.0535  0.0822 -0.4470
 9351TIP3    H149468   1.336   3.846   4.650 -0.2899 -0.0490 -0.2262
 9351TIP3    H249469   1.279   3.716   4.596 -0.3152 -0.8030  1.5843
 9352TIP3   OH249470   4.851   0.168  15.708  0.5772 -0.4127  0.3304
 9352TIP3    H149471   4.759   0.142  15.708  0.2205  0.8028 -1.5095
 9352TIP3    H249472   4.895   0.104  15.653  0.5966 -0.1483  0.0406
 9353TIP3   OH249473   5.889   3.950   2.838 -0.0424  0.1933 -0.3216
 9353TIP3    H149474   5.834   3.925   2.913  0.6442 -2.2163 -0.5638
 9353TIP3    H249475   5.973   3.972   2.877  0.6051 -1.9781 -0.4059
 9354TIP3   OH249476   3.602   6.121   2.491  0.1136  0.0905  0.1144
 9354TIP3    H149477   3.561   6.192   2.540 -0.7269  0.7387 -1.4914
 9354TIP3    H249478   3.680   6.161   2.452  0.9967 -0.5244  1.2174
 9355TIP3   OH249479   3.061   5.926  14.925 -0.0197  0.8161  0.7221
 9355TIP3    H149480   2.987   5.907  14.982 -1.1910 -0.1014 -1.0515
 9355TIP3    H249481   3.085   6.016  14.946 -2.6822  1.6957  0.1961
 9356TIP3   OH249482   1.715   2.254  16.040 -0.6098  0.0520 -0.6722
 9356TIP3    H149483   1.700   2.210  16.124  0.8743 -0.1898 -0.5249
 9356TIP3    H249484   1.715   2.347  16.061  1.0406 -0.0463 -0.1779
 9357TIP3   OH249485   4.414   1.985   0.976  0.0620  0.3673  0.4211
 9357TIP3    H149486   4.394   2.013   0.886 -0.5658 -0.6036  0.2552
 9357TIP3    H249487   4.403   1.890   0.974 -1.1142  0.4739  1.8302
 9358TIP3   OH249488   6.013   4.055  12.480 -0.2667  0.3739 -0.1505
 9358TIP3    H149489   6.048   4.126  12.427 -1.7383  0.6739 -0.7408
 9358TIP3    H249490   5.922   4.079  12.497 -0.1320 -0.2329  1.6277
 9359TIP3   OH249491   2.330   5.402   5.271 -0.4866 -0.2860 -0.0196
 9359TIP3    H149492   2.353   5.359   5.353  0.0548 -0.2072 -0.1286
 9359TIP3    H249493   2.249   5.360   5.243 -0.8223 -0.1222  0.6984
 9360TIP3   OH249494   1.392   3.152   4.655  0.1791  0.6255  0.8166
 9360TIP3    H149495   1.384   3.144   4.750 -2.2196  3.4848  0.9135
 9360TIP3    H249496   1.354   3.071   4.621  1.9257 -0.8574  2.2445
 9361TIP3   OH249497   0.375   3.653   4.844  0.0391  0.4266 -0.2969
 9361TIP3    H149498   0.312   3.715   4.880 -0.9938 -1.4618  1.2786
 9361TIP3    H249499   0.433   3.632   4.917 -1.3017 -2.4765  0.0411
 9362TIP3   OH249500   6.305   2.755   5.685 -0.1727  0.0602 -0.2083
 9362TIP3    H149501   6.303   2.735   5.591  1.9450 -0.0782 -0.2481
 9362TIP3    H249502   6.331   2.673   5.726  1.3705  0.7595  0.2600
 9363TIP3   OH249503   2.947   3.115  13.235  0.2160  0.4196 -0.1019
 9363TIP3    H149504   2.986   3.028  13.227  0.7722  0.7709 -1.3167
 9363TIP3    H249505   2.897   3.126  13.154 -1.0869  0.6269  0.7225
 9364TIP3   OH249506   2.718   4.750   1.837  0.2277 -0.0317  0.4068
 9364TIP3    H149507   2.793   4.696   1.860 -0.4391 -1.0362  0.2560
 9364TIP3    H249508   2.714   4.817   1.905  0.4379 -0.7943  1.1705
 9365TIP3   OH249509   1.844   4.714  13.787 -0.0541 -0.4715 -0.9538
 9365TIP3    H149510   1.918   4.653  13.790 -1.1227 -1.7151  0.5141
 9365TIP3    H249511   1.831   4.730  13.694  1.9262 -0.3884 -1.2512
 9366TIP3   OH249512   2.050   0.993   1.974  0.7167  0.4548  0.0955
 9366TIP3    H149513   2.120   1.046   2.011  0.8367 -1.5238  2.8460
 9366TIP3    H249514   1.977   1.003   2.036 -0.0419 -0.7431 -0.5781
 9367TIP3   OH249515   5.656   0.765  11.545  0.2532 -0.0499 -0.6638
 9367TIP3    H149516   5.592   0.753  11.615 -0.3164 -0.5039 -1.2507
 9367TIP3    H249517   5.722   0.824  11.582 -0.3206  0.1384  0.0661
 9368TIP3   OH249518   4.170   6.008   0.111  0.0972  0.0631 -0.0059
 9368TIP3    H149519   4.154   6.036   0.021 -2.2740 -0.3375  0.2583
 9368TIP3    H249520   4.238   5.941   0.104  0.0928  0.1998 -1.4639
 9369TIP3   OH249521   2.737   0.512   2.867 -0.3926 -0.1200 -0.5343
 9369TIP3    H149522   2.807   0.457   2.832  0.0635 -0.3357  0.7208
 9369TIP3    H249523   2.692   0.545   2.789  1.2430  0.2085 -1.3710
 9370TIP3   OH249524   5.385   3.257   4.347  0.4020  0.1385  0.0042
 9370TIP3    H149525   5.377   3.349   4.373 -0.8898 -0.2689  1.0986
 9370TIP3    H249526   5.466   3.253   4.297 -0.0749  2.0867 -0.9737
 9371TIP3   OH249527   2.585   1.844   1.958  0.6217 -0.8770  0.3712
 9371TIP3    H149528   2.603   1.937   1.941  2.0329 -0.9164  1.5454
 9371TIP3    H249529   2.647   1.798   1.901 -1.1622 -1.1435 -1.4049
 9372TIP3   OH249530   4.725   5.508   0.651 -0.6068  0.4743  0.1190
 9372TIP3    H149531   4.805   5.561   0.654 -0.7706  0.7553 -0.3865
 9372TIP3    H249532   4.664   5.561   0.599 -1.2029  0.3755  0.7112
 9373TIP3   OH249533   4.118   1.292   3.700  0.6468 -0.1773  0.1738
 9373TIP3    H149534   4.039   1.270   3.748  0.2465 -1.4020 -1.0275
 9373TIP3    H249535   4.091   1.360   3.639  0.3683 -1.0492 -0.6794
 9374TIP3   OH249536   4.028   6.595  13.092  0.1316  0.1373 -0.2457
 9374TIP3    H149537   3.970   6.585  13.016  0.7532 -0.7197 -0.6178
 9374TIP3    H249538   4.027   6.509  13.134  1.0633  0.1381 -0.2161
 9375TIP3   OH249539   6.187   2.592   5.010  0.0388  0.1737 -0.4709
 9375TIP3    H149540   6.247   2.524   4.979 -0.3572 -0.2961 -0.2233
 9375TIP3    H249541   6.235   2.635   5.081 -0.1386 -0.5990  0.1331
 9376TIP3   OH249542   5.724   3.687   6.063 -0.1874  0.7445 -0.0412
 9376TIP3    H149543   5.745   3.780   6.066 -1.0607  0.9740 -0.8844
 9376TIP3    H249544   5.680   3.675   5.979  2.0189 -0.8706 -1.0092
 9377TIP3   OH249545   0.642   0.479  13.931  0.9209 -0.6069 -0.2325
 9377TIP3    H149546   0.713   0.542  13.924  1.4004 -1.0136  0.8815
 9377TIP3    H249547   0.645   0.430  13.849  1.4039 -0.0728 -0.5325
 9378TIP3   OH249548   3.876   6.059  12.619  0.2265  0.3157 -0.4180
 9378TIP3    H149549   3.855   5.966  12.608  0.2744  0.2820 -0.2157
 9378TIP3    H249550   3.954   6.073  12.565 -0.1438  0.3777 -0.9440
 9379TIP3   OH249551   3.819   2.019  11.919 -0.6240 -0.4484 -0.1680
 9379TIP3    H149552   3.879   2.082  11.959 -1.6169  0.9694 -0.8416
 9379TIP3    H249553   3.855   2.003  11.832  1.3273 -3.2396  1.0935
 9380TIP3   OH249554   2.745   1.557   2.557  0.2073 -0.2069  0.2040
 9380TIP3    H149555   2.724   1.480   2.503 -0.4278 -0.7406  1.1948
 9380TIP3    H249556   2.805   1.608   2.503 -1.0891 -0.2894 -1.3756
 9381TIP3   OH249557   3.194   6.543  15.363  0.1294  0.2663  0.2872
 9381TIP3    H149558   3.132   6.527  15.434 -0.2670  2.6224  0.5429
 9381TIP3    H249559   3.181   6.636  15.342  2.0352  0.2276 -1.1415
 9382TIP3   OH249560   6.156   1.146  14.175 -0.4270 -0.3756 -0.0447
 9382TIP3    H149561   6.148   1.240  14.158  0.4284 -0.5143 -1.2207
 9382TIP3    H249562   6.070   1.121  14.208 -1.0693  0.5627 -0.9738
 9383TIP3   OH249563   5.922   3.550  10.305 -0.0060 -0.2845  0.1186
 9383TIP3    H149564   5.962   3.589  10.383 -0.1525  0.4563 -0.1723
 9383TIP3    H249565   5.918   3.456  10.325 -2.3626  0.1928  2.0322
 9384TIP3   OH249566   0.356   5.725   0.522  0.2651  0.0992  0.0459
 9384TIP3    H149567   0.307   5.643   0.535 -1.7385  0.9596 -1.8169
 9384TIP3    H249568   0.415   5.706   0.449 -0.4100  0.3890 -0.5817
 9385TIP3   OH249569   1.973   6.136  10.595 -0.9409 -0.5965  0.1055
 9385TIP3    H149570   2.025   6.083  10.535  0.4794  0.9185 -0.0317
 9385TIP3    H249571   2.019   6.131  10.679  0.1348  1.6947 -0.3049
 9386TIP3   OH249572   2.610   5.800   4.301 -0.2611  0.2536  0.3451
 9386TIP3    H149573   2.645   5.864   4.363 -3.9060  0.4766  2.3091
 9386TIP3    H249574   2.559   5.853   4.239 -1.1302 -0.4775  0.4237
 9387TIP3   OH249575   6.731   6.501   0.087  0.5845  0.1026 -0.0504
 9387TIP3    H149576   6.792   6.481   0.157  0.1967  1.2647  0.6346
 9387TIP3    H249577   6.644   6.487   0.126  0.3856 -0.1955 -0.5920
 9388TIP3   OH249578   1.694   4.896   2.444  0.2029  0.2983  0.2468
 9388TIP3    H149579   1.659   4.807   2.443 -0.0926  0.4189 -0.7542
 9388TIP3    H249580   1.736   4.906   2.359  0.0195  1.2080  0.2561
 9389TIP3   OH249581   0.744   4.367  15.316 -0.8180  0.3569  0.4393
 9389TIP3    H149582   0.773   4.283  15.280 -0.7449  0.7010 -0.3086
 9389TIP3    H249583   0.660   4.384  15.272 -0.4544  1.0527  0.0210
 9390TIP3   OH249584   0.138   3.494   4.763  0.5875 -0.3596  0.3348
 9390TIP3    H149585   0.217   3.539   4.794  0.9223  0.5530 -1.7471
 9390TIP3    H249586   0.082   3.489   4.840  1.3709  1.8994  1.1120
 9391TIP3   OH249587   2.214   5.224   5.458  0.3648 -0.0129 -0.7531
 9391TIP3    H149588   2.253   5.139   5.437  1.7555  0.1639  0.9615
 9391TIP3    H249589   2.286   5.274   5.497 -0.8362  1.3972 -0.3031
 9392TIP3   OH249590   3.555   1.970   1.885  0.3107  0.4207 -0.7326
 9392TIP3    H149591   3.555   1.923   1.801  0.9993  0.4340 -0.7454
 9392TIP3    H249592   3.554   2.062   1.861  2.7285  0.4608 -0.7709
 9393TIP3   OH249593   6.563   1.766   5.089  0.8041  0.1175  0.1599
 9393TIP3    H149594   6.644   1.716   5.076  0.0977 -1.3653  1.2659
 9393TIP3    H249595   6.501   1.701   5.123 -0.9757  1.1352 -1.0773
 9394TIP3   OH249596   1.614   2.966   2.656  0.7868  0.0390  0.0489
 9394TIP3    H149597   1.587   3.043   2.606  1.2561 -0.0578 -0.3532
 9394TIP3    H249598   1.533   2.932   2.694  0.5067  0.4184 -0.2108
 9395TIP3   OH249599   4.245   1.773  13.351  0.6345  0.1203 -0.2117
 9395TIP3    H149600   4.247   1.812  13.438 -3.5123  1.1469 -0.5035
 9395TIP3    H249601   4.245   1.848  13.291 -1.4636 -0.4058 -0.9180
 9396TIP3   OH249602   0.779   4.357  12.476 -0.1177 -0.0932 -0.2874
 9396TIP3    H149603   0.712   4.311  12.527  0.1345 -1.1770 -0.9227
 9396TIP3    H249604   0.731   4.425  12.429 -0.1285  1.9665  2.6157
 9397TIP3   OH249605   1.315   3.736   2.279 -0.6974 -0.3824 -0.1812
 9397TIP3    H149606   1.342   3.681   2.205  3.5196  2.3335 -0.8676
 9397TIP3    H249607   1.278   3.814   2.238 -1.2983 -0.2434  0.6367
 9398TIP3   OH249608   4.620   4.885   2.811  0.2965  0.1841  0.1297
 9398TIP3    H149609   4.541   4.913   2.857 -0.1627 -1.2971  0.2668
 9398TIP3    H249610   4.597   4.801   2.771  2.5089 -1.5236  2.2193
 9399TIP3   OH249611   1.808   3.701  13.037 -0.0766 -0.0038 -0.2371
 9399TIP3    H149612   1.745   3.719  12.968  0.4211 -0.5788 -0.8522
 9399TIP3    H249613   1.755   3.679  13.114 -0.6275  0.0218 -0.6080
 9400TIP3   OH249614   1.444   1.484   1.886  0.2019  0.0613 -0.2129
 9400TIP3    H149615   1.382   1.411   1.895  1.1849 -0.7205  0.2456
 9400TIP3    H249616   1.400   1.557   1.931 -0.5938 -0.3588 -0.2946
 9401TIP3   OH249617   5.591   1.106  14.204  0.4467  0.1219 -0.4803
 9401TIP3    H149618   5.599   1.074  14.114  0.9115 -0.3012 -0.2926
 9401TIP3    H249619   5.540   1.039  14.249  2.0834 -0.7468  0.1054
 9402TIP3   OH249620   2.121   5.459  13.544 -0.0821 -0.0532  0.1072
 9402TIP3    H149621   2.121   5.366  13.523  2.6597 -0.0442 -0.1731
 9402TIP3    H249622   2.102   5.502  13.460 -1.7999 -0.3646  0.3333
 9403TIP3   OH249623   3.109   5.496   0.674 -0.0653 -0.1555 -0.3386
 9403TIP3    H149624   3.038   5.533   0.726 -1.0594 -0.8588 -1.1850
 9403TIP3    H249625   3.070   5.422   0.628  1.5103 -1.3017  0.1055
 9404TIP3   OH249626   0.863   1.339   5.634 -0.0883  0.5262  0.3820
 9404TIP3    H149627   0.811   1.378   5.565  1.6311  0.7451 -0.8196
 9404TIP3    H249628   0.825   1.252   5.647 -0.5160  0.5475 -0.7238
 9405TIP3   OH249629   3.166   2.641  12.066  0.5275  0.3999 -0.5157
 9405TIP3    H149630   3.089   2.608  12.112  0.0937  0.3012 -1.2891
 9405TIP3    H249631   3.139   2.644  11.974  1.2149  1.0388 -0.7043
 9406TIP3   OH249632   0.829   2.243   0.732 -0.0294  0.1873  0.0271
 9406TIP3    H149633   0.912   2.207   0.764  0.0849  0.6022  0.1933
 9406TIP3    H249634   0.796   2.176   0.672  1.5905  1.0422 -1.8966
 9407TIP3   OH249635   4.844   6.654   4.942 -0.3762 -0.0211 -0.1729
 9407TIP3    H149636   4.763   6.630   4.896 -0.8672 -1.5262  1.4294
 9407TIP3    H249637   4.815   6.676   5.031  0.6234  2.3012 -0.4037
 9408TIP3   OH249638   1.399   5.247  12.414 -0.1256 -0.0474  0.2636
 9408TIP3    H149639   1.479   5.252  12.362  0.0317 -0.2295  0.4840
 9408TIP3    H249640   1.329   5.271  12.354 -0.1631 -2.0156 -0.5038
 9409TIP3   OH249641   6.564   3.723  11.198  0.3842 -0.1473  0.1265
 9409TIP3    H149642   6.637   3.695  11.253  0.7823  1.2433  0.3218
 9409TIP3    H249643   6.573   3.818  11.193 -0.7911 -0.0746 -0.7344
 9410TIP3   OH249644   5.005   4.630  11.830  0.0647 -0.2204  0.3779
 9410TIP3    H149645   4.961   4.624  11.914 -1.2443  1.1402 -0.1798
 9410TIP3    H249646   5.050   4.546  11.820 -0.1654 -0.5767  2.1979
 9411TIP3   OH249647   2.042   4.368   2.783  0.3749  0.1552 -0.2622
 9411TIP3    H149648   2.027   4.445   2.727 -2.5999  1.0464  1.6250
 9411TIP3    H249649   2.034   4.402   2.872  0.8636 -2.0313  0.6396
 9412TIP3   OH249650   4.702   4.444  11.599  0.2209  0.2580  0.4534
 9412TIP3    H149651   4.780   4.445  11.656  0.5184 -0.3112  0.0670
 9412TIP3    H249652   4.661   4.359  11.617 -0.3400  0.5763  0.6930
 9413TIP3   OH249653   6.440   0.753   4.479 -0.4516 -0.2827 -0.2373
 9413TIP3    H149654   6.411   0.662   4.486 -0.4698 -0.1989  0.8211
 9413TIP3    H249655   6.447   0.768   4.385 -0.4546 -1.3762 -0.4242
 9414TIP3   OH249656   3.054   0.363  14.795 -0.6140  0.0362 -0.1526
 9414TIP3    H149657   2.984   0.344  14.857 -0.8092  2.1882  0.3035
 9414TIP3    H249658   3.009   0.394  14.717 -0.2088  0.7740 -0.0985
 9415TIP3   OH249659   0.910   6.438  11.890 -0.2287  0.5654 -0.2520
 9415TIP3    H149660   0.826   6.413  11.852  0.6968 -0.2525 -1.8233
 9415TIP3    H249661   0.952   6.492  11.822  0.8162  0.3495  0.2009
 9416TIP3   OH249662   6.074   2.065   2.023  0.3532  0.6030  0.1858
 9416TIP3    H149663   6.108   2.140   1.973  0.2475  0.4269 -0.1491
 9416TIP3    H249664   6.028   2.012   1.958  1.3252 -0.2907  0.2331
 9417TIP3   OH249665   2.751   4.295   3.476 -0.1102  0.0193 -0.0669
 9417TIP3    H149666   2.798   4.212   3.487 -1.9039 -1.0663 -0.2165
 9417TIP3    H249667   2.786   4.332   3.395  1.9190  0.2517  0.9026
 9418TIP3   OH249668   0.324   3.947   2.016  0.0051  0.4097  0.1675
 9418TIP3    H149669   0.351   4.035   2.043  0.7393 -0.0614  0.9974
 9418TIP3    H249670   0.406   3.898   2.010 -0.6882 -1.2726  3.5452
 9419TIP3   OH249671   6.351   5.581  12.764 -0.4177  0.9691  0.6044
 9419TIP3    H149672   6.290   5.511  12.789  1.4299 -0.8660  0.0966
 9419TIP3    H249673   6.306   5.628  12.694 -1.7890  0.4662  1.1342
 9420TIP3   OH249674   4.647   2.325  15.008  0.2489 -0.3143  0.1386
 9420TIP3    H149675   4.724   2.338  15.063  0.3267  0.0770 -0.0649
 9420TIP3    H249676   4.674   2.352  14.921 -0.9506  2.5635  0.6089
 9421TIP3   OH249677   4.924   3.824   0.744  0.6331  0.0890 -0.1840
 9421TIP3    H149678   4.914   3.735   0.712 -0.8178  0.7719 -1.7086
 9421TIP3    H249679   4.836   3.861   0.742  0.9450  1.0560  1.9969
 9422TIP3   OH249680   4.296   3.988   3.653 -0.5846  0.2844 -0.2515
 9422TIP3    H149681   4.273   3.996   3.561 -0.3649 -1.2567 -0.4631
 9422TIP3    H249682   4.390   4.004   3.656 -0.6193  0.4922 -0.2665
 9423TIP3   OH249683   4.556   3.105  11.731 -0.0099  0.2233  0.0514
 9423TIP3    H149684   4.468   3.102  11.768  0.7056  0.7308  1.8524
 9423TIP3    H249685   4.577   3.013  11.712 -0.9142  0.1032 -0.3870
 9424TIP3   OH249686   2.453   4.166   4.339  0.2123  0.1228  0.2483
 9424TIP3    H149687   2.465   4.149   4.432 -0.6131  2.7904  0.8730
 9424TIP3    H249688   2.527   4.222   4.315 -0.4707  0.7846 -0.3203
 9425TIP3   OH249689   5.743   6.002   0.896  0.3965 -0.6524  0.5237
 9425TIP3    H149690   5.726   5.908   0.888 -3.2624 -0.0032 -0.2576
 9425TIP3    H249691   5.659   6.039   0.923  0.6593  2.8909 -3.1220
 9426TIP3   OH249692   0.889   6.013   3.258 -0.1497 -0.0235  0.2823
 9426TIP3    H149693   0.797   5.999   3.282  0.4914 -2.5449  1.4273
 9426TIP3    H249694   0.888   6.094   3.207 -3.3785 -1.2173 -1.7547
 9427TIP3   OH249695   1.453   4.936   2.297 -0.4250 -0.2671 -0.1065
 9427TIP3    H149696   1.530   4.961   2.349  0.2993 -1.4974 -0.5739
 9427TIP3    H249697   1.442   5.008   2.234 -1.1383  1.0949  1.5313
 9428TIP3   OH249698   5.127   5.751  15.355 -0.0896 -0.0730  0.2189
 9428TIP3    H149699   5.085   5.826  15.398 -0.6385 -0.3764  0.2138
 9428TIP3    H249700   5.148   5.691  15.427 -1.0905 -0.6210  0.0535
 9429TIP3   OH249701   4.239   2.665   5.380 -0.3194 -0.4043 -0.5355
 9429TIP3    H149702   4.213   2.757   5.383 -2.0395 -0.8506 -1.4164
 9429TIP3    H249703   4.238   2.643   5.287  1.0662 -1.0537 -0.4095
 9430TIP3   OH249704   2.699   3.449  11.466  0.8098 -0.5383 -0.4106
 9430TIP3    H149705   2.700   3.355  11.485  1.9757 -0.8120 -1.7309
 9430TIP3    H249706   2.676   3.454  11.373  1.2516  0.4504 -0.4720
 9431TIP3   OH249707   1.528   1.944  15.616 -0.2309 -0.0112  0.0191
 9431TIP3    H149708   1.494   1.886  15.549  0.0460 -0.4125  0.2234
 9431TIP3    H249709   1.623   1.938  15.607 -0.1987  0.5194 -0.0498
 9432TIP3   OH249710   2.364   4.953   1.910  1.0293 -0.5131 -0.3309
 9432TIP3    H149711   2.453   4.948   1.944  0.6938  2.2586  1.0616
 9432TIP3    H249712   2.314   4.894   1.966  1.9662 -2.2035 -1.2157
 9433TIP3   OH249713   0.651   1.881  15.883  0.4040  0.4227  0.0907
 9433TIP3    H149714   0.662   1.786  15.883 -0.3045  0.3166  1.6952
 9433TIP3    H249715   0.651   1.905  15.791  0.5996 -1.1314 -0.3351
 9434TIP3   OH249716   2.323   2.250  12.074 -0.5203  0.0471 -0.0550
 9434TIP3    H149717   2.393   2.240  12.139 -0.0016 -0.8900 -0.7513
 9434TIP3    H249718   2.315   2.345  12.062  1.7912  0.1494 -1.1682
 9435TIP3   OH249719   4.239   1.376   6.347  0.3385 -0.0310 -0.9860
 9435TIP3    H149720   4.209   1.367   6.438  3.3746  0.5291  0.1328
 9435TIP3    H249721   4.159   1.368   6.295 -1.5296 -0.0043  1.7414
 9436TIP3   OH249722   3.505   2.798  15.828 -0.1405 -0.3296  0.8122
 9436TIP3    H149723   3.566   2.792  15.902  1.0351  0.8085 -0.0226
 9436TIP3    H249724   3.425   2.834  15.866  0.3777  0.0368  1.5840
 9437TIP3   OH249725   2.646   4.740   1.351 -0.1505  0.2136  0.0115
 9437TIP3    H149726   2.638   4.825   1.307  0.2456  0.3268  0.1512
 9437TIP3    H249727   2.620   4.757   1.442  0.8267  0.4063  0.2723
 9438TIP3   OH249728   1.479   0.103  15.697  0.3239  0.2132  0.3812
 9438TIP3    H149729   1.391   0.120  15.664 -0.1857 -0.1785  1.5067
 9438TIP3    H249730   1.466   0.081  15.789  1.6793  1.0297  0.7898
 9439TIP3   OH249731   4.678   3.251  15.199  0.2087  0.4573 -0.1804
 9439TIP3    H149732   4.746   3.313  15.172  1.5351 -0.4516  1.0108
 9439TIP3    H249733   4.710   3.166  15.170 -0.2216 -0.0295  0.7572
 9440TIP3   OH249734   2.422   5.535  11.217  0.9782 -0.1515  0.4099
 9440TIP3    H149735   2.334   5.560  11.190  0.3619  0.2130  2.6682
 9440TIP3    H249736   2.421   5.439  11.216  0.4116 -0.1507  0.8690
 9441TIP3   OH249737   4.951   5.839   1.355 -0.1519 -0.2265 -0.4697
 9441TIP3    H149738   4.992   5.789   1.426 -1.1563 -3.3584 -2.0406
 9441TIP3    H249739   4.992   5.807   1.275 -1.2828  1.0531 -1.5889
 9442TIP3   OH249740   1.235   4.680  12.050 -0.1606 -0.1460 -0.6987
 9442TIP3    H149741   1.314   4.712  12.093  0.1841 -0.8054 -0.8379
 9442TIP3    H249742   1.163   4.721  12.098  0.2391 -0.3197  0.0494
 9443TIP3   OH249743   3.529   6.442  14.946 -0.0104  0.1766  0.1338
 9443TIP3    H149744   3.561   6.445  14.855  1.0723  0.8436  0.5290
 9443TIP3    H249745   3.455   6.502  14.947 -1.0377 -1.0409 -0.6875
 9444TIP3   OH249746   0.467   6.150   3.111 -0.1325 -0.0257 -0.4650
 9444TIP3    H149747   0.445   6.207   3.038 -0.6199 -0.4989 -0.6919
 9444TIP3    H249748   0.557   6.174   3.135 -0.6391  1.4522  0.0266
 9445TIP3   OH249749   1.927   4.047  12.115 -0.0702 -0.6081 -0.3446
 9445TIP3    H149750   1.966   3.975  12.066  0.0124 -0.4230 -0.5537
 9445TIP3    H249751   1.835   4.048  12.086  0.1907  0.0802 -1.1905
 9446TIP3   OH249752   5.005   3.293   2.176  0.0377  0.4661  0.1972
 9446TIP3    H149753   4.909   3.288   2.181  0.0626  0.0863  0.2438
 9446TIP3    H249754   5.036   3.238   2.247  0.2683  2.1969  1.4638
 9447TIP3   OH249755   1.689   6.440  12.251 -0.0073  0.2130  0.0098
 9447TIP3    H149756   1.638   6.515  12.219  0.9453  0.0855 -1.9229
 9447TIP3    H249757   1.695   6.453  12.345 -0.4265  2.2276 -0.2167
 9448TIP3   OH249758   2.724   3.062  16.467  0.3357 -0.3349 -0.2617
 9448TIP3    H149759   2.660   3.117  16.512  0.4214 -0.0788 -0.4527
 9448TIP3    H249760   2.806   3.111  16.474  0.4461 -0.5184 -0.2844
 9449TIP3   OH249761   4.445   0.328   0.949  0.4636  0.8350 -0.0127
 9449TIP3    H149762   4.501   0.251   0.940  0.8310  0.6137  3.5648
 9449TIP3    H249763   4.373   0.298   1.004  0.0188  2.7777  0.4843
 9450TIP3   OH249764   0.057   2.144   1.948  0.2352 -0.1818 -0.2434
 9450TIP3    H149765  -0.020   2.171   1.999  0.5056  1.3140 -0.6154
 9450TIP3    H249766   0.020   2.094   1.875 -0.3000 -0.5190  0.2533
 9451TIP3   OH249767   3.599   3.571   3.780 -0.2910  0.5612 -0.5282
 9451TIP3    H149768   3.588   3.495   3.724  0.1347 -0.6789  1.0399
 9451TIP3    H249769   3.602   3.646   3.720 -0.9221 -0.6379 -2.0518
 9452TIP3   OH249770   4.975   0.995  15.665  0.9618 -0.2112  0.5698
 9452TIP3    H149771   5.058   0.978  15.620 -0.4680 -0.6717 -1.9254
 9452TIP3    H249772   4.921   0.919  15.645 -1.8049  2.3215 -1.9416
 9453TIP3   OH249773   3.772   2.892   5.023  0.6256  1.1095 -0.2324
 9453TIP3    H149774   3.821   2.973   5.006 -1.1348  1.5453 -3.4192
 9453TIP3    H249775   3.691   2.922   5.064  0.3252  0.8872 -0.6683
 9454TIP3   OH249776   3.253   3.504  11.672 -0.0224 -0.5447  0.3580
 9454TIP3    H149777   3.292   3.509  11.585 -1.0620 -0.9127 -0.1444
 9454TIP3    H249778   3.315   3.548  11.729  0.2050  0.5814 -0.7389
 9455TIP3   OH249779   6.032   5.304   3.905 -0.0460  0.4044  0.5015
 9455TIP3    H149780   6.120   5.342   3.914  0.3334 -0.5658  0.8531
 9455TIP3    H249781   5.984   5.338   3.980  0.5629 -0.5631  1.3270
 9456TIP3   OH249782   5.381   3.473   0.038 -0.3435  0.0045 -0.1647
 9456TIP3    H149783   5.360   3.515  -0.045  1.7546 -0.1850 -0.8161
 9456TIP3    H249784   5.300   3.429   0.064 -0.9984  0.0076 -2.1350
 9457TIP3   OH249785   3.141   1.884  12.711 -0.6719 -0.1787  0.2662
 9457TIP3    H149786   3.059   1.928  12.735 -0.7389 -1.4368  2.6049
 9457TIP3    H249787   3.208   1.952  12.717 -1.1617  0.2375  1.1025
 9458TIP3   OH249788   0.281   3.006   1.400 -0.0129  0.0171  0.2405
 9458TIP3    H149789   0.190   3.037   1.400  0.0225  0.1961 -2.0250
 9458TIP3    H249790   0.327   3.068   1.458 -1.1620  0.4383  0.7179
 9459TIP3   OH249791   2.740   6.194   4.568 -0.0641 -0.0868  0.2634
 9459TIP3    H149792   2.673   6.175   4.634 -0.3558  0.5793  0.1636
 9459TIP3    H249793   2.722   6.284   4.541  0.5848 -0.0654 -0.1048
 9460TIP3   OH249794   6.670   4.272  10.982  0.2875  0.1159  0.1681
 9460TIP3    H149795   6.626   4.332  10.921  0.9099  1.2660  0.8394
 9460TIP3    H249796   6.599   4.225  11.025 -0.2832  1.4892  0.7588
 9461TIP3   OH249797   4.088   5.326  13.505  0.1654 -0.5995  0.0633
 9461TIP3    H149798   4.149   5.255  13.484  0.5823  0.3553 -2.0802
 9461TIP3    H249799   4.143   5.394  13.545  0.4952  0.1890 -1.7052
 9462TIP3   OH249800   4.845   3.214   0.045  0.1292 -0.5236  0.1684
 9462TIP3    H149801   4.792   3.215  -0.034  0.3335  1.5630  0.0388
 9462TIP3    H249802   4.935   3.210   0.014  0.3396  2.6470  0.1614
 9463TIP3   OH249803   5.545   2.648  14.941  0.0964 -0.1008 -0.2560
 9463TIP3    H149804   5.547   2.660  14.846  0.3341 -1.2346 -0.4023
 9463TIP3    H249805   5.486   2.716  14.973  0.6369  0.7935 -1.1368
 9464TIP3   OH249806   5.196   0.902  15.534 -0.0883 -0.0074 -0.8725
 9464TIP3    H149807   5.271   0.952  15.566 -0.8913  0.9530 -0.4603
 9464TIP3    H249808   5.197   0.914  15.439  0.6692 -0.5438 -0.9311
 9465TIP3   OH249809   2.569   4.615   4.227 -0.1777 -0.1115 -0.1143
 9465TIP3    H149810   2.536   4.697   4.264  2.1430  0.3582  1.0362
 9465TIP3    H249811   2.519   4.603   4.147 -3.0703  0.5350  1.5464
 9466TIP3   OH249812   3.103   3.188  14.137 -0.3493  0.0837  0.0323
 9466TIP3    H149813   3.092   3.283  14.144 -1.9624 -0.2111  1.8175
 9466TIP3    H249814   3.016   3.155  14.116 -0.3257 -1.1950  1.8277
 9467TIP3   OH249815   0.461   0.825   4.402  0.3695 -0.8238 -0.1847
 9467TIP3    H149816   0.485   0.739   4.438  0.7074 -0.9353 -0.6658
 9467TIP3    H249817   0.440   0.807   4.310  1.7210 -0.1818 -0.6285
 9468TIP3   OH249818   0.774   2.220   2.066  0.4529  0.0057  1.0371
 9468TIP3    H149819   0.708   2.151   2.061 -0.9973  1.4295  0.2513
 9468TIP3    H249820   0.729   2.294   2.107  2.0579  0.4300  2.0925
 9469TIP3   OH249821   0.591   3.505   6.760 -0.6003 -0.2122  0.2580
 9469TIP3    H149822   0.682   3.475   6.768 -0.3140  0.1169 -1.4760
 9469TIP3    H249823   0.550   3.440   6.703 -1.1443  0.2778  0.0885
 9470TIP3   OH249824   2.875   5.089  11.882  0.0653  0.1272 -0.2900
 9470TIP3    H149825   2.878   4.998  11.853 -0.4816  0.1570 -0.4506
 9470TIP3    H249826   2.872   5.084  11.977  1.5259  0.0192 -0.2311
 9471TIP3   OH249827   5.902   3.152  10.935 -0.0460  0.1177  0.0384
 9471TIP3    H149828   5.924   3.208  10.861 -0.1645  0.7342  0.4615
 9471TIP3    H249829   5.971   3.086  10.938 -0.6403 -0.5839 -1.2960
 9472TIP3   OH249830   0.533   3.584   2.750 -0.0490 -0.2448 -0.0089
 9472TIP3    H149831   0.560   3.495   2.727  2.5182  0.6484 -0.6249
 9472TIP3    H249832   0.528   3.629   2.666  0.7860  0.7490  0.4711
 9473TIP3   OH249833   5.833   3.300   0.493 -0.3235  0.4874 -0.3587
 9473TIP3    H149834   5.908   3.245   0.513 -1.9108 -1.5089  0.3385
 9473TIP3    H249835   5.802   3.269   0.408  0.9011  2.7527 -1.6649
 9474TIP3   OH249836   4.783   6.404   5.470 -0.7253 -0.1736 -0.0640
 9474TIP3    H149837   4.733   6.412   5.389 -2.0286  1.9447  0.9023
 9474TIP3    H249838   4.717   6.393   5.538  0.1754  1.4271  1.0923
 9475TIP3   OH249839   1.372   4.535  13.608  0.2684 -0.2612 -0.0197
 9475TIP3    H149840   1.391   4.539  13.514 -1.3354 -1.9530 -0.4451
 9475TIP3    H249841   1.339   4.622  13.630  1.7941  0.5139 -0.7538
 9476TIP3   OH249842   5.777   1.344  12.535 -0.0092 -0.7513  0.9136
 9476TIP3    H149843   5.696   1.383  12.568 -0.6141 -0.3856 -0.9059
 9476TIP3    H249844   5.763   1.337  12.440  1.8140 -1.3412  0.6648
 9477TIP3   OH249845   0.245   6.462   0.134 -0.1885 -0.2199  0.5474
 9477TIP3    H149846   0.247   6.531   0.069  0.7877  0.1724  0.9795
 9477TIP3    H249847   0.265   6.506   0.217 -0.4329 -0.8682  0.9591
 9478TIP3   OH249848   4.422   0.919   2.332  0.6014  0.3341  0.7721
 9478TIP3    H149849   4.366   0.991   2.303  0.6209  0.9496  2.2142
 9478TIP3    H249850   4.511   0.956   2.333  0.8830 -0.3033 -0.4179
 9479TIP3   OH249851   4.933   2.200  12.497  0.0922  0.1801  0.1471
 9479TIP3    H149852   5.003   2.229  12.438 -0.9634  2.0975 -0.1875
 9479TIP3    H249853   4.906   2.115  12.463  0.0252  0.9227 -1.6864
 9480TIP3   OH249854   3.829   1.861  16.456 -0.0318 -0.6407  0.6289
 9480TIP3    H149855   3.760   1.864  16.390  0.3646 -2.5717  0.1042
 9480TIP3    H249856   3.907   1.833  16.408  0.5897 -0.6729  1.6469
 9481TIP3   OH249857   4.857   1.979   5.727  0.0127  0.2478  0.1077
 9481TIP3    H149858   4.838   1.989   5.820 -1.7871  1.6019 -0.3741
 9481TIP3    H249859   4.942   1.934   5.724  0.5064  0.9776  2.3898
 9482TIP3   OH249860   1.457   4.186   2.104 -0.0064  0.3263  0.2271
 9482TIP3    H149861   1.520   4.229   2.162  1.6337 -0.9588 -0.5704
 9482TIP3    H249862   1.465   4.232   2.021  1.7941 -1.4744 -0.6457
 9483TIP3   OH249863   4.111   6.079  15.099  0.0244  0.1432  0.0485
 9483TIP3    H149864   4.183   6.117  15.048  1.1865 -1.1122  0.7205
 9483TIP3    H249865   4.147   5.998  15.135 -0.8912  0.7728  2.5161
 9484TIP3   OH249866   4.949   5.304   3.875  0.4969 -0.6390 -0.2783
 9484TIP3    H149867   4.900   5.299   3.957 -0.2834  0.0902 -0.6995
 9484TIP3    H249868   4.990   5.218   3.867  0.3139 -0.8264  0.7081
 9485TIP3   OH249869   2.109   4.121   2.862 -0.0594  0.6009 -0.0724
 9485TIP3    H149870   2.087   4.208   2.829  0.9969  0.5823 -0.8459
 9485TIP3    H249871   2.035   4.066   2.834 -0.6578  1.2115  0.2882
 9486TIP3   OH249872   4.727   1.420  14.929  0.7889 -0.1767  0.1439
 9486TIP3    H149873   4.720   1.370  15.010  2.2384  1.4795  1.3477
 9486TIP3    H249874   4.741   1.510  14.958 -2.0421  1.0002 -1.9544
 9487TIP3   OH249875   4.265   6.718  11.888 -0.3137  0.4714  0.4374
 9487TIP3    H149876   4.259   6.758  11.801 -0.1046 -2.6704 -1.0989
 9487TIP3    H249877   4.188   6.662  11.894  0.8705 -1.1009  1.3450
 9488TIP3   OH249878   4.693   3.073   4.974  0.2578  0.8797 -0.3291
 9488TIP3    H149879   4.778   3.029   4.976  0.1774  0.7466  1.5445
 9488TIP3    H249880   4.638   3.022   5.034 -0.7764  1.6563 -0.6025
 9489TIP3   OH249881   2.419   4.255   1.819  0.1374 -0.3550 -0.2282
 9489TIP3    H149882   2.391   4.310   1.891 -1.2517 -0.1999 -0.8726
 9489TIP3    H249883   2.342   4.247   1.763  1.5708  0.7011 -2.4202
 9490TIP3   OH249884   2.225   5.601   6.489  0.2290  0.5919  0.8232
 9490TIP3    H149885   2.247   5.541   6.559 -1.1061  1.4588  2.0257
 9490TIP3    H249886   2.191   5.545   6.419  1.0165 -0.2206  1.0882
 9491TIP3   OH249887   5.515   5.546  13.228 -0.8008  0.2239  0.3350
 9491TIP3    H149888   5.423   5.529  13.245 -0.8037  0.3636  0.4630
 9491TIP3    H249889   5.517   5.596  13.146 -0.7339 -1.2206 -0.5693
 9492TIP3   OH249890   3.637   3.969  15.583 -0.0476 -0.4625 -0.2403
 9492TIP3    H149891   3.573   4.028  15.542 -0.1005  0.3277  0.9582
 9492TIP3    H249892   3.690   3.938  15.510 -0.1986  0.8558 -0.9361
 9493TIP3   OH249893   5.348   5.606  12.397  0.1790 -0.3664  0.4662
 9493TIP3    H149894   5.319   5.676  12.455  0.8173 -0.0232  0.3807
 9493TIP3    H249895   5.367   5.650  12.314  0.6062 -0.6377  0.4205
 9494TIP3   OH249896   6.585   4.077  13.227  0.1289 -0.2014 -0.5216
 9494TIP3    H149897   6.601   3.989  13.263  1.8983  0.7683  1.1771
 9494TIP3    H249898   6.636   4.078  13.146  0.6155 -0.5322 -0.2248
 9495TIP3   OH249899   5.313   3.697  14.339  0.0246 -0.2958 -0.8110
 9495TIP3    H149900   5.322   3.789  14.367 -1.6911 -0.4137  0.1616
 9495TIP3    H249901   5.262   3.701  14.258 -0.2394 -0.4133 -0.6499
 9496TIP3   OH249902   4.007   0.118   2.463 -0.2076  0.2785 -0.1700
 9496TIP3    H149903   4.060   0.149   2.537  0.1162 -0.7385  0.0371
 9496TIP3    H249904   4.038   0.168   2.388 -0.4355  1.2177  0.3486
 9497TIP3   OH249905   3.468   3.254  11.161  0.1869  0.0684 -0.3852
 9497TIP3    H149906   3.378   3.258  11.194 -0.5026 -0.4530 -2.1512
 9497TIP3    H249907   3.473   3.170  11.116  0.9688  0.9329 -1.9386
 9498TIP3   OH249908   5.814   5.806   4.778  0.1692 -0.2567 -0.5356
 9498TIP3    H149909   5.886   5.753   4.745 -1.5780 -1.6049 -2.3497
 9498TIP3    H249910   5.790   5.765   4.861  1.7692  0.4850  0.3021
 9499TIP3   OH249911   4.129   1.213  11.983  0.0191  0.8315  0.0756
 9499TIP3    H149912   4.058   1.260  12.027  0.4583  1.3415  0.2540
 9499TIP3    H249913   4.146   1.137  12.038  1.3003  2.0378  1.4152
 9500TIP3   OH249914   2.536   6.222  10.215 -0.2223 -0.1992  0.1261
 9500TIP3    H149915   2.553   6.250  10.125 -0.8242 -0.2331 -0.0009
 9500TIP3    H249916   2.623   6.208  10.253  0.1190  1.7298  0.1564
 9501TIP3   OH249917   5.157   4.722   2.687  0.3856 -0.2621 -0.8895
 9501TIP3    H149918   5.075   4.695   2.647  0.9387 -2.6971 -0.4706
 9501TIP3    H249919   5.152   4.818   2.691 -2.3462 -0.3698 -0.9939
 9502TIP3   OH249920   0.473   1.904   0.702 -0.5246 -0.0078  0.0311
 9502TIP3    H149921   0.546   1.943   0.750 -0.6488  0.5031 -0.1843
 9502TIP3    H249922   0.513   1.858   0.628 -0.3870 -0.1463  0.1934
 9503TIP3   OH249923   4.605   6.105   1.296 -0.1084  0.1088 -0.2690
 9503TIP3    H149924   4.592   6.080   1.204  0.7289  0.3424 -0.4537
 9503TIP3    H249925   4.653   6.031   1.334 -1.0096 -0.2697  0.1387
 9504TIP3   OH249926   2.055   3.566   4.274  0.1293  0.0485  0.2045
 9504TIP3    H149927   2.096   3.520   4.347 -0.3415  0.6571  0.8638
 9504TIP3    H249928   2.124   3.573   4.208  0.3239 -1.1997  0.2774
 9505TIP3   OH249929   6.185   4.675  14.975  0.2119 -0.2433 -0.4066
 9505TIP3    H149930   6.102   4.628  14.963  0.5687 -0.6995 -1.1613
 9505TIP3    H249931   6.161   4.767  14.976 -0.5800 -0.4642  1.7368
 9506TIP3   OH249932   0.678   6.648  17.152  0.3099  0.2515  0.0874
 9506TIP3    H149933   0.759   6.686  17.118 -0.3328  0.9018 -0.7314
 9506TIP3    H249934   0.620   6.644  17.077  0.4686 -2.7184  0.0653
 9507TIP3   OH249935   6.254   3.269   3.378 -0.3672 -0.1051  0.5942
 9507TIP3    H149936   6.258   3.284   3.284 -2.4872 -1.3079  0.2950
 9507TIP3    H249937   6.334   3.310   3.412 -1.3707  3.5696 -1.2498
 9508TIP3   OH249938   5.753   0.750   2.561 -0.1825 -0.1310 -0.4620
 9508TIP3    H149939   5.789   0.668   2.527  0.3089 -0.4489  0.7832
 9508TIP3    H249940   5.820   0.815   2.540 -0.7868  0.0536 -1.8763
 9509TIP3   OH249941   4.261   3.833  14.631  0.6922  0.4600  0.2278
 9509TIP3    H149942   4.203   3.899  14.668 -1.4347  0.9920 -3.7791
 9509TIP3    H249943   4.335   3.882  14.595  0.1400  0.4685 -0.9060
 9510TIP3   OH249944   1.211   3.663   4.134 -0.5763  0.0536 -0.3993
 9510TIP3    H149945   1.291   3.676   4.186 -0.5704 -1.3819 -0.0183
 9510TIP3    H249946   1.242   3.652   4.044 -0.4492  0.8535 -0.4517
 9511TIP3   OH249947   0.957   4.480   1.123  0.0664  0.4516 -0.3113
 9511TIP3    H149948   0.966   4.518   1.036  1.1763  1.7859  0.3706
 9511TIP3    H249949   0.922   4.551   1.177 -3.9148 -1.3391 -0.3809
 9512TIP3   OH249950   2.130   5.055  17.182 -0.0387 -0.0456  0.2134
 9512TIP3    H149951   2.128   4.975  17.129 -1.0477  0.0155  0.1448
 9512TIP3    H249952   2.064   5.040  17.250  0.7744  0.1516  1.0511
 9513TIP3   OH249953   2.181   0.557  14.081 -0.4084  0.5860 -0.6579
 9513TIP3    H149954   2.174   0.640  14.033  1.8040  0.9381 -0.4085
 9513TIP3    H249955   2.205   0.493  14.014  1.4956  0.8528 -0.2489
 9514TIP3   OH249956   1.811   3.746   2.893 -0.5111  0.1868 -0.1405
 9514TIP3    H149957   1.753   3.821   2.903 -2.9735 -1.8668  1.7725
 9514TIP3    H249958   1.754   3.676   2.860  1.2400 -1.4064  0.1324
 9515TIP3   OH249959   1.544   4.728  15.849 -0.4087 -0.3749 -0.3766
 9515TIP3    H149960   1.480   4.752  15.917 -1.0082 -1.8165 -0.4027
 9515TIP3    H249961   1.551   4.806  15.795  1.9955  1.7277  2.7541
 9516TIP3   OH249962   6.090   0.287   5.544  0.2362 -0.2142  0.5933
 9516TIP3    H149963   6.013   0.322   5.588  0.0202 -0.6233  0.5394
 9516TIP3    H249964   6.056   0.243   5.466  0.7170  1.7768 -0.8153
 9517TIP3   OH249965   6.479   2.318  11.166  0.1498  0.2391 -0.0872
 9517TIP3    H149966   6.478   2.414  11.172 -2.2670  0.1810  1.1107
 9517TIP3    H249967   6.433   2.299  11.085 -1.7726  0.0612  1.0121
 9518TIP3   OH249968   1.344   5.600  13.919 -0.2420  0.0898 -0.2396
 9518TIP3    H149969   1.308   5.594  14.008 -1.1356  0.1754 -0.5922
 9518TIP3    H249970   1.348   5.510  13.889 -0.1323  0.0770 -0.1867
 9519TIP3   OH249971   1.464   1.565  14.461  0.3650 -0.6135  0.0368
 9519TIP3    H149972   1.540   1.523  14.421  0.2228 -1.2287  0.4154
 9519TIP3    H249973   1.488   1.578  14.552  0.3790  0.0609 -0.0625
 9520TIP3   OH249974   3.931   4.783   6.107 -0.0565 -0.4033 -0.6011
 9520TIP3    H149975   3.870   4.735   6.051 -1.1199  1.7014 -1.3041
 9520TIP3    H249976   3.896   4.871   6.111  0.6310 -0.2142  2.5070
 9521TIP3   OH249977   5.804   2.738   2.906 -0.0086  0.1937 -0.5705
 9521TIP3    H149978   5.770   2.705   2.823  1.3622  0.6806 -1.3451
 9521TIP3    H249979   5.732   2.788   2.944 -0.2725  0.9245 -2.0159
 9522TIP3   OH249980   5.985   3.542   5.918  0.1661  0.2291  0.0340
 9522TIP3    H149981   5.980   3.629   5.958  0.7965  0.0548  0.4965
 9522TIP3    H249982   5.894   3.516   5.907 -0.0618  1.5965 -1.5266
 9523TIP3   OH249983   6.592   5.015   5.166 -0.0148 -0.2621 -0.3519
 9523TIP3    H149984   6.503   4.997   5.135  0.0841  1.4863 -1.7563
 9523TIP3    H249985   6.623   4.931   5.199 -0.6873 -1.9455 -3.7101
 9524TIP3   OH249986   3.683   0.802  16.690 -0.0979 -0.0017  0.0557
 9524TIP3    H149987   3.736   0.752  16.752 -0.3443 -0.9017 -0.4557
 9524TIP3    H249988   3.652   0.738  16.627 -0.0890  0.8644 -0.8398
 9525TIP3   OH249989   5.627   1.434  12.263  0.2719  0.1867 -0.4055
 9525TIP3    H149990   5.543   1.411  12.222  0.3601 -0.0585 -0.4554
 9525TIP3    H249991   5.632   1.529  12.256 -0.5066  0.3046  0.5960
 9526TIP3   OH249992   0.016   2.045  16.071  0.0463 -0.5050  0.3877
 9526TIP3    H149993  -0.077   2.032  16.088 -0.0268  0.1846  0.5490
 9526TIP3    H249994   0.058   2.034  16.156 -0.1795  1.6830  0.8246
 9527TIP3   OH249995   6.558   4.801  11.356 -0.1568  0.0141  0.4430
 9527TIP3    H149996   6.589   4.799  11.266 -2.5238 -1.2038 -0.3826
 9527TIP3    H249997   6.524   4.890  11.368  1.5846  0.6683  0.6605
 9528TIP3   OH249998   4.318   1.777  15.047 -0.5194  0.2954 -0.2669
 9528TIP3    H149999   4.264   1.853  15.027 -1.3775  0.3713  2.1768
 9528TIP3    H250000   4.262   1.702  15.026 -0.4040  0.3515 -0.7790
 9529TIP3   OH250001   6.472   3.682  17.063 -0.3293  0.0896  0.4374
 9529TIP3    H150002   6.512   3.596  17.079  0.2590  0.4159  0.7454
 9529TIP3    H250003   6.393   3.681  17.117 -1.5212 -1.1025 -1.2600
 9530TIP3   OH250004   3.713   0.943  13.256 -0.2576  0.5207  0.2330
 9530TIP3    H150005   3.738   0.850  13.259 -1.0422  0.3067  0.3752
 9530TIP3    H250006   3.675   0.959  13.342 -1.4037  0.6063 -0.2856
 9531TIP3   OH250007   4.283   5.706  12.525  0.2735  0.0488  0.1913
 9531TIP3    H150008   4.316   5.748  12.446  1.2007 -2.1265 -0.6047
 9531TIP3    H250009   4.350   5.724  12.592  1.4215 -1.4577 -0.5418
 9532TIP3   OH250010   4.636   6.198   1.591  0.7738 -0.0562 -0.3552
 9532TIP3    H150011   4.732   6.193   1.591  0.8127  0.5193 -1.7491
 9532TIP3    H250012   4.608   6.117   1.550  0.6497 -0.3221  0.2480
 9533TIP3   OH250013   3.604   3.557   4.493  0.4525  0.5520  0.2613
 9533TIP3    H150014   3.614   3.578   4.585  0.0029 -2.2345  0.9917
 9533TIP3    H250015   3.573   3.639   4.453  1.1625  1.9357  2.4544
 9534TIP3   OH250016   6.348   3.396   5.367 -0.5736  0.8440  0.1607
 9534TIP3    H150017   6.442   3.384   5.360 -0.9129 -2.1884  0.2440
 9534TIP3    H250018   6.327   3.374   5.458 -1.5978 -0.3091 -0.3483
 9535TIP3   OH250019   0.976   3.081   2.371  0.2517  0.4372  0.1517
 9535TIP3    H150020   0.970   3.093   2.466  1.0840 -0.3562  0.3170
 9535TIP3    H250021   0.943   2.992   2.356  2.4175 -0.3808  0.0029
 9536TIP3   OH250022   2.493   1.908   0.439 -0.1806  0.1166 -0.3872
 9536TIP3    H150023   2.457   1.829   0.400 -1.5732  1.0196 -1.0130
 9536TIP3    H250024   2.507   1.886   0.531 -0.6002 -0.8400 -0.5508
 9537TIP3   OH250025   4.189   5.328   2.813  0.3292 -0.1399 -0.1149
 9537TIP3    H150026   4.116   5.381   2.781  1.1534  0.7332 -0.5475
 9537TIP3    H250027   4.198   5.258   2.749  0.0090 -0.1334 -0.1688
 9538TIP3   OH250028   4.683   5.735  16.389  0.6831  0.1356 -0.1439
 9538TIP3    H150029   4.691   5.824  16.355  0.6101  0.8384  1.6452
 9538TIP3    H250030   4.768   5.716  16.427  0.7020 -0.5688 -0.5325
 9539TIP3   OH250031   5.980   3.807   3.374  0.0188 -0.4174  0.0283
 9539TIP3    H150032   6.036   3.885   3.381  2.0280 -1.4440 -3.4988
 9539TIP3    H250033   6.036   3.734   3.399 -0.3951 -1.2424 -1.4098
 9540TIP3   OH250034   2.601   0.049   4.965  0.1168 -0.3856 -0.3078
 9540TIP3    H150035   2.660   0.074   5.037  0.4226 -0.0100 -0.6876
 9540TIP3    H250036   2.532   0.115   4.967 -0.9736 -1.5219  0.9223
 9541TIP3   OH250037   1.348   5.601   2.048  0.3188  0.1313  0.2685
 9541TIP3    H150038   1.399   5.613   2.128  0.4905 -1.3270  0.3967
 9541TIP3    H250039   1.277   5.664   2.055  1.2517  1.1329  0.8098
 9542TIP3   OH250040   1.913   5.385  15.011 -0.0160  0.0207 -0.1479
 9542TIP3    H150041   1.932   5.469  15.053  0.3168  0.3941 -1.0458
 9542TIP3    H250042   1.915   5.404  14.917  0.0551 -0.9905 -0.3545
 9543TIP3   OH250043   4.398   2.962  12.659  0.4968 -0.0534  0.3291
 9543TIP3    H150044   4.350   3.029  12.706  1.2886  2.0669 -1.7941
 9543TIP3    H250045   4.489   2.973  12.687  0.6801 -0.0091 -0.2815
 9544TIP3   OH250046   3.593   4.546  17.037  0.4282 -0.1124 -0.0847
 9544TIP3    H150047   3.670   4.534  17.092  0.2308  0.9330  0.4332
 9544TIP3    H250048   3.552   4.626  17.069  0.2322  0.4485 -1.6697
 9545TIP3   OH250049   6.523   4.242  16.662 -0.1537  0.0536  0.1799
 9545TIP3    H150050   6.504   4.157  16.620 -2.5766  0.6633 -0.0297
 9545TIP3    H250051   6.502   4.228  16.754 -1.6558  0.7403 -0.0498
 9546TIP3   OH250052   4.256   6.316  13.370 -0.5395 -0.1334 -0.1663
 9546TIP3    H150053   4.185   6.252  13.362 -1.3135  0.9688 -2.6371
 9546TIP3    H250054   4.266   6.329  13.465  0.5813 -4.8556  0.4910
 9547TIP3   OH250055   4.265   1.248  11.617  0.4594 -0.1038  0.6518
 9547TIP3    H150056   4.327   1.245  11.690  1.0840  1.9305  0.2310
 9547TIP3    H250057   4.317   1.221  11.541  0.9180  1.8653  0.2516
 9548TIP3   OH250058   1.488   1.721   5.988 -0.2693  0.7535  0.3996
 9548TIP3    H150059   1.486   1.816   5.995  0.5217  0.7558  0.6751
 9548TIP3    H250060   1.582   1.699   5.985 -0.4613  0.0581 -0.6994
 9549TIP3   OH250061   0.128   6.487  16.657  0.6311 -0.3604 -0.1889
 9549TIP3    H150062   0.114   6.563  16.714  0.5257  0.3091 -1.0953
 9549TIP3    H250063   0.218   6.497  16.626  0.4472 -0.3411 -0.7107
 9550TIP3   OH250064   3.503   2.745  13.873  0.2545 -0.6335 -0.9817
 9550TIP3    H150065   3.534   2.825  13.831 -0.1728  0.6193  1.0123
 9550TIP3    H250066   3.546   2.744  13.958 -0.5764 -1.9575 -0.5595
 9551TIP3   OH250067   2.598   1.138   1.496 -0.2662 -0.6503  0.4408
 9551TIP3    H150068   2.625   1.128   1.588 -0.5157  1.0446  0.7157
 9551TIP3    H250069   2.676   1.169   1.451 -0.6269  0.3124  0.4541
 9552TIP3   OH250070   0.585   1.942   6.051 -0.0796  0.6495  0.6449
 9552TIP3    H150071   0.633   2.017   6.085  0.4645  0.9730 -0.8068
 9552TIP3    H250072   0.644   1.903   5.987 -1.2645  0.3300 -0.2773
 9553TIP3   OH250073   2.095   2.814  15.365 -0.0918  0.0037 -0.2252
 9553TIP3    H150074   2.166   2.879  15.368  2.4944 -2.7814  0.6424
 9553TIP3    H250075   2.117   2.751  15.433 -2.7569 -1.6231 -0.8069
 9554TIP3   OH250076   6.001   1.432  13.360  0.4664  0.3020  0.4083
 9554TIP3    H150077   6.015   1.400  13.271 -2.6222  1.2485 -0.4943
 9554TIP3    H250078   6.010   1.527  13.353  1.0551  0.3140  1.2808
 9555TIP3   OH250079   5.399   5.514  15.420 -0.0659 -0.2976  0.0943
 9555TIP3    H150080   5.355   5.567  15.486 -0.9962 -0.4745 -0.3819
 9555TIP3    H250081   5.333   5.451  15.391  0.9087 -1.4844  0.3844
 9556TIP3   OH250082   3.007   3.566  12.585  0.6077  0.0451  0.1344
 9556TIP3    H150083   3.068   3.575  12.658  2.2341 -0.8646 -1.0775
 9556TIP3    H250084   2.986   3.472  12.582  2.5933 -0.3744 -2.1365
 9557TIP3   OH250085   0.700   0.820  16.332 -0.2274 -0.0157  0.4040
 9557TIP3    H150086   0.750   0.738  16.335  0.3491  0.2588 -1.1491
 9557TIP3    H250087   0.665   0.824  16.243 -0.4353  1.3241  0.5283
 9558TIP3   OH250088   3.338   6.312   2.951  0.0512 -0.2315 -0.7067
 9558TIP3    H150089   3.410   6.346   3.005  0.2370 -0.7226 -0.6444
 9558TIP3    H250090   3.328   6.378   2.882 -1.4416  1.3563  0.9726
 9559TIP3   OH250091   1.001   3.748  12.053 -0.5452  0.5073 -0.1937
 9559TIP3    H150092   0.953   3.827  12.078 -0.5507  1.0358 -1.8464
 9559TIP3    H250093   1.086   3.758  12.096 -1.2105  0.4750  1.1832
 9560TIP3   OH250094   1.552   0.464  16.265  0.3123  0.5529 -0.6523
 9560TIP3    H150095   1.595   0.454  16.180  0.0827  0.6260 -0.7799
 9560TIP3    H250096   1.527   0.375  16.290  2.6300  0.2219  0.5322
 9561TIP3   OH250097   6.153   0.332   4.378  0.7824  0.6514  0.1900
 9561TIP3    H150098   6.187   0.245   4.401 -1.2552  0.0544  1.0638
 9561TIP3    H250099   6.144   0.329   4.282  2.4024  0.5416  0.0343
 9562TIP3   OH250100   5.559   4.750   1.538  0.1992 -0.2243  0.1780
 9562TIP3    H150101   5.539   4.709   1.453  1.9064 -0.9641  0.1114
 9562TIP3    H250102   5.565   4.677   1.599  1.0032  0.1269  0.5265
 9563TIP3   OH250103   6.170   4.124   2.051  0.0436  0.2821  0.0475
 9563TIP3    H150104   6.178   4.128   1.956 -0.5048  1.2461  0.0306
 9563TIP3    H250105   6.255   4.153   2.084  0.2653 -0.1455 -0.1498
 9564TIP3   OH250106   5.002   0.019   4.533  0.1779 -0.3130  0.4105
 9564TIP3    H150107   5.020  -0.075   4.530  1.5930 -0.0691  0.7811
 9564TIP3    H250108   5.088   0.060   4.547 -0.5302  0.9791  1.1566
 9565TIP3   OH250109   0.180   4.516   2.648 -0.2305 -0.3021 -0.2209
 9565TIP3    H150110   0.178   4.592   2.707  0.8040 -0.3397 -0.1327
 9565TIP3    H250111   0.088   4.490   2.641 -0.4523  0.1644  0.7774
 9566TIP3   OH250112   6.322   6.350   4.228 -0.4512 -0.1502 -0.2202
 9566TIP3    H150113   6.334   6.435   4.186 -0.5725 -0.2225 -0.4020
 9566TIP3    H250114   6.327   6.369   4.322  0.2391 -0.0529 -0.2739
 9567TIP3   OH250115   3.839   0.705   1.581 -0.2254 -0.6190  0.4263
 9567TIP3    H150116   3.747   0.722   1.559  0.0807  0.7391  0.1823
 9567TIP3    H250117   3.886   0.783   1.552  0.8228 -0.7059  1.8428
 9568TIP3   OH250118   2.560   5.050   2.690 -0.1632  0.2478  0.5361
 9568TIP3    H150119   2.487   5.028   2.633  0.1473 -0.7141  0.5030
 9568TIP3    H250120   2.554   4.987   2.762 -0.3901  1.2712  1.4234
 9569TIP3   OH250121   3.285   4.450   1.635  0.2171  0.0346  0.2729
 9569TIP3    H150122   3.372   4.431   1.670  0.4890  1.2034  0.2623
 9569TIP3    H250123   3.302   4.497   1.553 -0.4194 -1.3699 -0.6906
 9570TIP3   OH250124   4.837   0.752  15.572  0.0851 -0.2426  0.2482
 9570TIP3    H150125   4.795   0.784  15.493  0.3260  0.8264  0.5442
 9570TIP3    H250126   4.865   0.663  15.550  0.6873  0.2545 -1.0693
 9571TIP3   OH250127   0.127   1.196  11.905  0.9222  0.2757  0.2725
 9571TIP3    H150128   0.068   1.184  11.980  0.8737  1.9094  0.5133
 9571TIP3    H250129   0.069   1.213  11.831  0.9400 -2.0414 -0.3012
 9572TIP3   OH250130   6.572   1.409  16.090 -0.2118 -0.3824 -0.0178
 9572TIP3    H150131   6.575   1.335  16.150  1.6905 -0.9629 -0.8039
 9572TIP3    H250132   6.623   1.380  16.014 -1.1137  0.9895 -1.1738
 9573TIP3   OH250133   2.478   6.747   3.700  0.2680 -0.0367  0.1897
 9573TIP3    H150134   2.567   6.780   3.683  0.6877 -1.6663 -0.9685
 9573TIP3    H250135   2.483   6.655   3.675 -0.9513 -0.8925  3.0161
 9574TIP3   OH250136   5.238   1.972   5.035 -0.0342 -0.4113 -0.5235
 9574TIP3    H150137   5.146   1.964   5.009 -0.4398  2.4091 -0.1069
 9574TIP3    H250138   5.248   1.908   5.106 -1.8796 -0.2830 -0.1128
 9575TIP3   OH250139   2.281   4.277  12.618 -0.0843 -0.0049  0.1255
 9575TIP3    H150140   2.339   4.296  12.691 -0.1660 -0.3808  0.2900
 9575TIP3    H250141   2.207   4.231  12.657  0.9920 -2.3737 -0.5062
 9576TIP3   OH250142   4.033   6.717  16.465 -0.3279 -0.1899 -0.0690
 9576TIP3    H150143   3.991   6.636  16.497 -0.7930  0.4333  0.9403
 9576TIP3    H250144   4.104   6.733  16.527 -0.5271  0.4166  0.0080
 9577TIP3   OH250145   1.244   6.067   4.334  0.1051 -0.2239 -0.0405
 9577TIP3    H150146   1.253   6.028   4.421  0.7231 -0.1003 -0.0451
 9577TIP3    H250147   1.234   6.161   4.351 -0.0999 -0.2349 -0.0921
 9578TIP3   OH250148   3.231   2.257   1.531  0.2898  0.1129 -0.2634
 9578TIP3    H150149   3.265   2.168   1.534 -0.2138 -0.0506  0.6345
 9578TIP3    H250150   3.150   2.254   1.582 -0.5592  0.7272 -1.5406
 9579TIP3   OH250151   1.395   2.239  15.516  0.1660 -0.8732 -0.6876
 9579TIP3    H150152   1.395   2.171  15.583 -0.2078 -0.8820 -0.6998
 9579TIP3    H250153   1.373   2.194  15.435 -0.8295 -0.6133 -0.5705
 9580TIP3   OH250154   1.868   3.010  11.654  0.0856  0.1363 -0.5912
 9580TIP3    H150155   1.901   2.998  11.565 -1.8632 -0.3753 -1.2665
 9580TIP3    H250156   1.846   3.103  11.660 -0.3771  0.0455 -0.8613
 9581TIP3   OH250157   3.674   2.654  16.515 -0.1740  0.2932  0.0298
 9581TIP3    H150158   3.697   2.716  16.584 -1.5241  2.9983 -1.8513
 9581TIP3    H250159   3.580   2.641  16.525 -0.1812 -0.1553 -0.6124
 9582TIP3   OH250160   1.697   6.338   2.837 -0.2005  0.1829  0.6125
 9582TIP3    H150161   1.754   6.298   2.771 -1.0919  2.1541 -1.4539
 9582TIP3    H250162   1.620   6.282   2.838  0.8211 -1.2289  1.7809
 9583TIP3   OH250163   4.493   4.254   3.531 -0.9172  0.5914 -0.0121
 9583TIP3    H150164   4.541   4.290   3.457  0.2349  0.2045  0.5195
 9583TIP3    H250165   4.401   4.271   3.512 -0.5589  1.4130 -1.0266
 9584TIP3   OH250166   1.205   2.724  11.526  0.3822  0.0260 -0.1132
 9584TIP3    H150167   1.274   2.688  11.470 -0.0715 -0.6670 -0.2348
 9584TIP3    H250168   1.157   2.647  11.557 -0.3808  0.5072 -0.0785
 9585TIP3   OH250169   4.445   3.755   4.496  0.4227 -0.5609  0.1255
 9585TIP3    H150170   4.490   3.753   4.581  1.5495  0.6347 -0.4165
 9585TIP3    H250171   4.452   3.846   4.468 -1.0358 -0.6892 -0.6814
 9586TIP3   OH250172   6.256   1.074  11.968 -0.0608 -0.7412 -0.0529
 9586TIP3    H150173   6.173   1.034  11.993  1.5403 -3.0115  1.8760
 9586TIP3    H250174   6.268   1.144  12.032 -0.9209  0.1927 -0.9062
 9587TIP3   OH250175   3.541   4.393   1.717  0.2603 -0.1411  0.3333
 9587TIP3    H150176   3.515   4.442   1.796 -1.9526  0.3636 -0.6540
 9587TIP3    H250177   3.618   4.439   1.684 -0.6978  1.6060  0.4567
 9588TIP3   OH250178   3.242   5.042  15.741 -0.2896  0.3549 -0.3663
 9588TIP3    H150179   3.286   5.004  15.665 -2.2085  0.9678 -1.8223
 9588TIP3    H250180   3.163   4.988  15.752  0.5312 -0.4504  1.9274
 9589TIP3   OH250181   6.416   3.318  10.741  0.2417 -0.2687  0.0988
 9589TIP3    H150182   6.437   3.310  10.648 -2.0576  2.1691 -0.6914
 9589TIP3    H250183   6.354   3.246  10.758 -0.5070  0.1901 -0.6523
 9590TIP3   OH250184   2.325   6.667  11.184  0.4149 -0.2948  0.0260
 9590TIP3    H150185   2.242   6.619  11.179  1.5405 -2.4672  1.1859
 9590TIP3    H250186   2.354   6.673  11.093 -1.3533  1.1726 -0.4787
 9591TIP3   OH250187   4.018   4.649  16.574  0.1532 -0.0842  0.0146
 9591TIP3    H150188   3.952   4.583  16.596  0.5051 -0.4631 -0.0525
 9591TIP3    H250189   4.048   4.682  16.659 -0.5078  0.4791  0.0321
 9592TIP3   OH250190   4.957   5.791   4.323  0.0649 -0.0226 -0.5039
 9592TIP3    H150191   4.964   5.725   4.392  0.0472 -1.0951 -1.5118
 9592TIP3    H250192   4.909   5.747   4.252 -1.4418  1.6061 -0.5428
 9593TIP3   OH250193   5.174   2.109   5.717 -0.7338 -0.8656  0.1091
 9593TIP3    H150194   5.252   2.060   5.739  0.7125  0.5445 -1.7159
 9593TIP3    H250195   5.134   2.131   5.802  1.6310 -0.3561  1.1211
 9594TIP3   OH250196   1.684   2.516   2.087  0.0149 -0.0884  0.0855
 9594TIP3    H150197   1.703   2.601   2.048 -0.8135 -0.1471 -0.4794
 9594TIP3    H250198   1.650   2.536   2.174  0.9600  0.0973  0.4091
 9595TIP3   OH250199   4.408   1.960   4.059  0.0827  0.3384  0.2658
 9595TIP3    H150200   4.369   1.895   4.001 -0.3297  1.6865 -1.0377
 9595TIP3    H250201   4.334   2.000   4.104  0.4477 -1.0491  2.1232
 9596TIP3   OH250202   4.996   3.585  14.503  0.2987 -0.1212  0.3995
 9596TIP3    H150203   5.029   3.674  14.511  1.9227 -0.7326  0.6252
 9596TIP3    H250204   4.924   3.580  14.566  1.8891  0.2457  2.2724
 9597TIP3   OH250205   2.123   3.281  10.613  0.2215 -0.7195 -0.0676
 9597TIP3    H150206   2.054   3.223  10.647 -0.7026 -0.4194 -1.3680
 9597TIP3    H250207   2.089   3.311  10.529  3.0052 -2.5578 -1.9449
 9598TIP3   OH250208   2.681   5.936   5.239 -0.0831 -0.0476  0.8850
 9598TIP3    H150209   2.711   5.862   5.185  0.9392  0.5213  0.6753
 9598TIP3    H250210   2.705   5.911   5.328  0.4268  0.1081  0.7940
 9599TIP3   OH250211   5.048   5.529  16.312 -0.7436 -0.5909 -0.2344
 9599TIP3    H150212   5.138   5.498  16.324 -0.1707  1.0283 -0.3082
 9599TIP3    H250213   5.019   5.488  16.231  0.6277  0.4668 -1.2691
 9600TIP3   OH250214   3.677   3.634  16.872  0.5475 -0.5513 -0.0874
 9600TIP3    H150215   3.608   3.649  16.936 -0.6943  1.2380 -1.7802
 9600TIP3    H250216   3.723   3.719  16.866 -1.4445  0.3673 -3.9160
 9601TIP3   OH250217   1.227   6.562  13.568 -0.2053  0.0855 -0.5610
 9601TIP3    H150218   1.213   6.559  13.663 -0.9674  1.2929 -0.6294
 9601TIP3    H250219   1.309   6.612  13.558 -0.5103  0.5863 -0.5695
 9602TIP3   OH250220   3.931   1.359  13.789  0.3547  0.1730 -0.0229
 9602TIP3    H150221   3.973   1.276  13.770 -0.0323  0.0885 -0.5145
 9602TIP3    H250222   3.927   1.362  13.885  0.4782 -0.3187 -0.0005
 9603TIP3   OH250223   4.482   5.042  12.793  0.1833  0.1694 -0.4091
 9603TIP3    H150224   4.487   4.951  12.824  1.7160 -0.3711 -2.2151
 9603TIP3    H250225   4.571   5.075  12.800  0.2564  0.5213 -2.7917
 9604TIP3   OH250226   6.093   4.506  11.417 -0.2170 -0.1754 -0.0890
 9604TIP3    H150227   6.038   4.429  11.427  1.2650 -1.4924 -1.8264
 9604TIP3    H250228   6.136   4.516  11.503 -2.2489  0.1945  0.9015
 9605TIP3   OH250229   4.606   6.120  15.830  0.1167  0.3305 -0.3848
 9605TIP3    H150230   4.547   6.153  15.897  1.2613 -0.5470  1.0993
 9605TIP3    H250231   4.562   6.042  15.795  0.5950 -0.6141  1.0669
 9606TIP3   OH250232   5.900   1.729  13.366 -0.4582  0.1265  0.4983
 9606TIP3    H150233   5.828   1.791  13.359 -1.4885 -1.0588  0.4716
 9606TIP3    H250234   5.872   1.667  13.433  1.3401  0.6991  1.8460
 9607TIP3   OH250235   1.941   3.839  15.104  0.0569 -0.1075 -0.9655
 9607TIP3    H150236   1.894   3.778  15.048 -2.8120  1.5213 -0.4302
 9607TIP3    H250237   1.987   3.896  15.043 -0.4002 -0.3837 -1.5780
 9608TIP3   OH250238   2.849   1.115  14.728  0.3735 -0.4939 -0.4455
 9608TIP3    H150239   2.754   1.125  14.734  0.5778  0.9264  0.5898
 9608TIP3    H250240   2.876   1.178  14.662  0.6724 -0.4054 -0.2403
 9609TIP3   OH250241   0.649   0.695   2.430  0.1841 -0.2632  0.4355
 9609TIP3    H150242   0.705   0.741   2.492  0.3165  1.7375 -1.1385
 9609TIP3    H250243   0.674   0.729   2.344 -1.1075 -1.8200 -0.5990
 9610TIP3   OH250244   2.772   6.638  15.687 -0.3846  0.0955  0.3247
 9610TIP3    H150245   2.862   6.624  15.719 -0.9072 -0.5771  1.5200
 9610TIP3    H250246   2.728   6.682  15.759 -1.8312 -2.2503  0.9118
 9611TIP3   OH250247   5.862   1.409   6.123 -0.6986 -0.5455 -0.3367
 9611TIP3    H150248   5.782   1.424   6.073 -2.3608 -1.8395  1.8935
 9611TIP3    H250249   5.848   1.454   6.206  1.3540  0.1454 -0.3220
 9612TIP3   OH250250   3.209   0.797   2.582  0.5264  0.2402 -0.1322
 9612TIP3    H150251   3.140   0.766   2.640 -0.8425  2.1558 -0.6914
 9612TIP3    H250252   3.271   0.724   2.577 -0.3729 -0.7139  2.0552
 9613TIP3   OH250253   4.516   0.934  11.993 -0.5154  0.6184  0.1899
 9613TIP3    H150254   4.502   0.953  12.086 -1.1104  1.2043 -0.0163
 9613TIP3    H250255   4.478   1.009  11.947 -1.0976 -0.1360 -0.5635
 9614TIP3   OH250256   4.197   1.824   0.117  0.0001  0.0506  0.1678
 9614TIP3    H150257   4.133   1.894   0.108  0.6591  0.6035 -0.2834
 9614TIP3    H250258   4.169   1.756   0.055 -3.7070 -2.4923  4.2797
 9615TIP3   OH250259   2.943   2.386  13.978 -0.2134  0.0928  0.3280
 9615TIP3    H150260   2.997   2.359  13.904  1.1829 -1.3547  1.8418
 9615TIP3    H250261   2.900   2.306  14.008 -0.5739  0.6077  1.2458
 9616TIP3   OH250262   3.040   2.444   2.707  0.6542  0.2000 -0.4929
 9616TIP3    H150263   3.044   2.391   2.786 -0.6286 -0.3455 -0.7945
 9616TIP3    H250264   3.086   2.392   2.641  1.3062  0.4458 -0.2426
 9617TIP3   OH250265   5.032   2.242  16.485 -0.3073 -0.2467 -0.0207
 9617TIP3    H150266   5.049   2.336  16.486  1.2680 -0.5109  0.1700
 9617TIP3    H250267   5.109   2.204  16.529 -1.1449 -1.5825  0.3118
 9618TIP3   OH250268   5.227   4.445   6.197  0.0301 -0.0511 -0.3005
 9618TIP3    H150269   5.236   4.529   6.241  1.7829 -0.4223  0.0765
 9618TIP3    H250270   5.191   4.467   6.111 -0.8687  0.9341  0.3107
 9619TIP3   OH250271   3.835   0.760  16.063 -0.3909 -0.1007  0.4820
 9619TIP3    H150272   3.740   0.770  16.060 -0.1103  2.2559 -1.8907
 9619TIP3    H250273   3.863   0.824  16.129 -0.2433  1.3267 -0.9265
 9620TIP3   OH250274   4.624   6.415  14.616  0.8783  0.4949  0.2514
 9620TIP3    H150275   4.681   6.412  14.539 -0.0884  0.5344 -0.4889
 9620TIP3    H250276   4.641   6.502  14.654  0.4192  1.0054 -0.6746
 9621TIP3   OH250277   6.574   6.179   0.677  0.2175 -0.2446  0.3443
 9621TIP3    H150278   6.547   6.098   0.720 -0.2257  0.6309  1.7655
 9621TIP3    H250279   6.670   6.180   0.686  0.2290 -0.6397  0.2714
 9622TIP3   OH250280   3.020   5.879   1.546 -0.3356  0.0295 -0.2455
 9622TIP3    H150281   2.930   5.907   1.561  1.0599  3.3161  2.7953
 9622TIP3    H250282   3.020   5.844   1.457 -4.9179 -1.5685  0.2782
 9623TIP3   OH250283   1.571   3.334  11.376  0.7291  0.3411 -0.4027
 9623TIP3    H150284   1.622   3.332  11.295 -1.0155  1.9655 -1.5873
 9623TIP3    H250285   1.560   3.242  11.400  0.8819 -0.1736 -2.2552
 9624TIP3   OH250286   1.726   4.974   0.685  0.1245 -0.0828  0.3459
 9624TIP3    H150287   1.643   4.936   0.712  1.1380 -2.3834  0.3010
 9624TIP3    H250288   1.738   4.945   0.595  1.0883  0.0112  0.4339
 9625TIP3   OH250289   2.583   3.262   5.836 -0.3961 -0.0891  0.2448
 9625TIP3    H150290   2.646   3.208   5.788 -0.6473 -1.4969  1.4721
 9625TIP3    H250291   2.592   3.234   5.927 -1.4832  1.0069  0.6932
 9626TIP3   OH250292   0.750   0.850  12.382 -0.0777  0.3850  0.4437
 9626TIP3    H150293   0.758   0.813  12.470  0.9364 -2.3234 -0.7379
 9626TIP3    H250294   0.709   0.780  12.331  0.0063  1.6685 -1.4126
 9627TIP3   OH250295   1.494   5.530   1.113  0.3341  0.0283 -0.5284
 9627TIP3    H150296   1.420   5.469   1.112  0.8349 -0.5692 -1.7008
 9627TIP3    H250297   1.466   5.604   1.060  0.2078  0.2555 -0.1487
 9628TIP3   OH250298   6.058   2.089   2.285 -0.2172 -0.1038  0.0375
 9628TIP3    H150299   6.109   2.170   2.285 -2.0143  1.0822 -0.6329
 9628TIP3    H250300   6.056   2.062   2.193  0.8640 -1.2333  0.3425
 9629TIP3   OH250301   0.413   4.251   5.084  0.2301  0.1758 -0.7574
 9629TIP3    H150302   0.413   4.261   4.989  0.9923  2.0907 -0.5809
 9629TIP3    H250303   0.461   4.328   5.116 -1.1607  0.2509  1.2264
 9630TIP3   OH250304   5.262   5.459  16.104 -0.8420  0.4847  0.0690
 9630TIP3    H150305   5.273   5.377  16.152  1.5782  1.2947  0.9708
 9630TIP3    H250306   5.259   5.434  16.012  2.4039 -0.4527  0.1625
 9631TIP3   OH250307   5.672   6.557   2.393 -0.0246 -0.0766  0.5374
 9631TIP3    H150308   5.676   6.630   2.455 -0.7693  0.9647 -0.6205
 9631TIP3    H250309   5.710   6.591   2.313  1.3440 -1.5642  0.5187
 9632TIP3   OH250310   2.817   4.262   0.129  0.4612 -0.2764  0.2114
 9632TIP3    H150311   2.874   4.195   0.165  0.3200  0.1821  1.3125
 9632TIP3    H250312   2.809   4.327   0.199  1.3813  1.3655 -1.1654
 9633TIP3   OH250313   0.517   6.263   2.240  0.6226  0.6007 -0.0286
 9633TIP3    H150314   0.593   6.292   2.191  0.6744  0.4358 -0.0461
 9633TIP3    H250315   0.448   6.325   2.216 -0.1490 -1.1463 -2.5162
 9634TIP3   OH250316   4.295   2.082  14.352 -0.0078 -0.7392 -0.2582
 9634TIP3    H150317   4.355   2.137  14.403 -0.2673 -0.7449  0.0523
 9634TIP3    H250318   4.249   2.030  14.417  1.3474 -2.4670 -0.6265
 9635TIP3   OH250319   1.711   1.179   4.442  0.0392 -0.5972 -0.5319
 9635TIP3    H150320   1.663   1.234   4.503 -1.5845 -1.0312 -1.3967
 9635TIP3    H250321   1.802   1.210   4.448 -0.5335  0.9724  0.2873
 9636TIP3   OH250322   3.792   3.033  17.154  0.7464  0.3857 -0.0814
 9636TIP3    H150323   3.717   3.005  17.102  0.2477  1.9053 -0.2119
 9636TIP3    H250324   3.842   3.091  17.095  0.9906  0.9037  0.6167
 9637TIP3   OH250325   3.101   3.462  14.107 -0.2216 -0.1825  0.9273
 9637TIP3    H150326   3.063   3.536  14.155  1.1278  1.1420  0.0093
 9637TIP3    H250327   3.112   3.496  14.018 -2.6918 -2.5868 -0.3642
 9638TIP3   OH250328   2.392   0.732   1.278 -0.1191  0.0765  0.4090
 9638TIP3    H150329   2.350   0.677   1.345 -1.8037  1.2425  0.3282
 9638TIP3    H250330   2.467   0.770   1.323 -1.5124  1.2203  1.7911
 9639TIP3   OH250331   5.402   1.798   3.353 -0.5480 -0.0144  0.5508
 9639TIP3    H150332   5.412   1.877   3.301  0.8854 -0.6056 -0.0758
 9639TIP3    H250333   5.362   1.829   3.435 -1.5175  1.1062 -0.3294
 9640TIP3   OH250334   6.562   0.313   5.740 -0.9461  0.3093 -0.0123
 9640TIP3    H150335   6.571   0.324   5.646  0.5523  1.6310  0.2607
 9640TIP3    H250336   6.647   0.339   5.776 -1.5684  0.0528  1.7270
 9641TIP3   OH250337   0.308   2.105  14.230  0.4303 -0.4545 -0.0995
 9641TIP3    H150338   0.386   2.053  14.250  1.1131 -0.2919 -2.1999
 9641TIP3    H250339   0.240   2.070  14.287  1.9415 -0.8291  1.5295
 9642TIP3   OH250340   3.654   6.290  12.047  0.2059 -0.2159  0.0794
 9642TIP3    H150341   3.575   6.236  12.045 -0.1328  0.2771  0.0395
 9642TIP3    H250342   3.627   6.374  12.009  0.8635 -0.1934 -0.3384
 9643TIP3   OH250343   4.885   2.967   5.436 -0.0408 -0.1769 -0.1743
 9643TIP3    H150344   4.880   2.945   5.529  2.0062 -1.8800 -0.4238
 9643TIP3    H250345   4.866   2.885   5.391  1.3875  0.0458 -1.2163
 9644TIP3   OH250346   5.603   2.038   4.302  0.0719  0.5205  0.1368
 9644TIP3    H150347   5.516   2.040   4.343  0.2737  2.9097  0.5162
 9644TIP3    H250348   5.634   1.948   4.315 -1.4228  0.2416  1.9500
 9645TIP3   OH250349   6.245   4.861   3.613 -0.3952 -0.0284  0.3420
 9645TIP3    H150350   6.174   4.924   3.600  0.3273  0.7363  0.0405
 9645TIP3    H250351   6.309   4.883   3.545  0.7193  0.1487  1.4276
 9646TIP3   OH250352   3.044   0.977  12.679  0.6948  1.2133  0.6707
 9646TIP3    H150353   3.030   1.033  12.602  2.6929  2.2566  1.0380
 9646TIP3    H250354   3.085   1.034  12.743 -0.3383  0.1693  2.3082
 9647TIP3   OH250355   6.344   4.504   0.630 -0.5900  0.1679 -0.3043
 9647TIP3    H150356   6.258   4.543   0.611 -0.0626  1.7692  0.4749
 9647TIP3    H250357   6.395   4.577   0.666  1.2115 -0.6975 -1.0760
 9648TIP3   OH250358   4.426   2.242  14.530  0.1519 -0.6125 -0.2573
 9648TIP3    H150359   4.463   2.325  14.500 -0.3163  0.6029  2.3784
 9648TIP3    H250360   4.333   2.261  14.541 -0.2437 -1.9617 -1.1100
 9649TIP3   OH250361   4.400   4.670  16.249 -0.1941  0.3756  0.3500
 9649TIP3    H150362   4.317   4.631  16.276  0.2005 -0.9401 -0.2655
 9649TIP3    H250363   4.383   4.764  16.245 -0.9775  0.3585  2.5869
 9650TIP3   OH250364   2.081   3.374   5.211  0.1501 -0.2842  0.2423
 9650TIP3    H150365   2.169   3.373   5.173 -0.5618  0.5689 -1.4970
 9650TIP3    H250366   2.084   3.444   5.276  0.6789 -0.0800 -0.0006
 9651TIP3   OH250367   3.450   6.257  14.557  0.2602  0.4355  0.2367
 9651TIP3    H150368   3.530   6.309  14.553  1.0350 -0.8927 -3.0338
 9651TIP3    H250369   3.380   6.322  14.570  1.4754  2.0542 -0.9988
 9652TIP3   OH250370   2.114   6.527   1.834 -0.1015 -0.2304 -0.2005
 9652TIP3    H150371   2.153   6.571   1.758 -1.0916 -0.4196 -0.8198
 9652TIP3    H250372   2.067   6.596   1.881 -0.2717 -0.2984 -0.2703
 9653TIP3   OH250373   5.277   3.532   1.758 -0.2358 -0.4843 -0.1150
 9653TIP3    H150374   5.348   3.540   1.694 -0.5262 -0.5881 -0.4551
 9653TIP3    H250375   5.241   3.620   1.765  1.2082 -0.0052  1.5615
 9654TIP3   OH250376   6.355   3.178   3.678 -0.0292 -0.5290  0.3296
 9654TIP3    H150377   6.262   3.170   3.654 -0.3404  2.9525  0.0701
 9654TIP3    H250378   6.373   3.101   3.732 -2.9670 -1.4349  0.1017
 9655TIP3   OH250379   6.023   6.282   3.415  0.4117 -0.6107 -0.3829
 9655TIP3    H150380   6.077   6.212   3.453  0.0104 -0.8902 -0.3145
 9655TIP3    H250381   5.956   6.299   3.482 -0.1663 -0.9463 -0.8617
 9656TIP3   OH250382   2.903   1.314  10.899 -0.5101 -0.2294 -0.0311
 9656TIP3    H150383   2.851   1.391  10.877  0.4014 -0.0532 -1.6391
 9656TIP3    H250384   2.854   1.240  10.864 -1.7022 -0.4865  2.0621
 9657TIP3   OH250385   2.085   6.694  14.885 -0.0680 -0.1923  0.6173
 9657TIP3    H150386   2.045   6.689  14.798 -2.0741  2.0197  1.3699
 9657TIP3    H250387   2.141   6.616  14.890 -0.1119 -0.4959 -2.5390
 9658TIP3   OH250388   4.416   2.245   3.290  0.8382  0.4561  0.4175
 9658TIP3    H150389   4.335   2.256   3.340  1.0523 -0.2129  0.9162
 9658TIP3    H250390   4.482   2.223   3.356  0.5410 -3.3212 -0.4590
 9659TIP3   OH250391   2.138   1.223   1.123  0.9923  0.0181 -0.2407
 9659TIP3    H150392   2.051   1.225   1.165  1.3288 -0.6181  0.5108
 9659TIP3    H250393   2.170   1.313   1.132 -1.4131  1.4277 -4.5151
 9660TIP3   OH250394   5.431   4.504  13.028  0.3019 -0.0153 -0.3751
 9660TIP3    H150395   5.361   4.446  12.999  1.5441 -1.7915  0.0549
 9660TIP3    H250396   5.474   4.532  12.947 -2.3517  3.0397 -0.8058
 9661TIP3   OH250397   2.479   4.922  11.611 -0.7205 -0.2596 -0.7858
 9661TIP3    H150398   2.506   4.875  11.690 -3.3684 -1.5903 -0.6246
 9661TIP3    H250399   2.385   4.934  11.621 -0.8598  0.7932 -3.1018
 9662TIP3   OH250400   4.361   5.575  14.198 -0.7500 -0.3310  0.0526
 9662TIP3    H150401   4.423   5.637  14.237 -0.2731 -0.7530 -0.0334
 9662TIP3    H250402   4.357   5.600  14.106 -1.5120  0.3627  0.2698
 9663TIP3   OH250403   1.478   3.604   1.635  0.2412 -0.2056  0.1522
 9663TIP3    H150404   1.516   3.536   1.579  2.0802 -0.0896  1.2194
 9663TIP3    H250405   1.499   3.686   1.591 -0.4321 -0.2210 -0.2142
 9664TIP3   OH250406   2.683   2.920  14.737 -0.1362 -0.2652  0.5231
 9664TIP3    H150407   2.648   2.950  14.821  0.0694 -1.6274  1.1053
 9664TIP3    H250408   2.609   2.876  14.694  0.8114 -3.0676  1.7167
 9665TIP3   OH250409   6.161   2.772  11.372 -0.2075  0.6412 -0.1456
 9665TIP3    H150410   6.229   2.740  11.313  0.2064  2.2924 -0.6106
 9665TIP3    H250411   6.085   2.787  11.315  0.5275  3.2813 -0.5245
 9666TIP3   OH250412   6.523   6.290   1.209 -0.9117  0.4732 -0.6214
 9666TIP3    H150413   6.484   6.212   1.251  0.9772  0.1534  0.5855
 9666TIP3    H250414   6.448   6.339   1.176 -2.2258 -1.1414 -0.1038
 9667TIP3   OH250415   1.837   0.462   3.438  0.3021  0.1339 -0.5048
 9667TIP3    H150416   1.784   0.396   3.482  0.8037  0.2901  0.3493
 9667TIP3    H250417   1.882   0.415   3.369 -1.0695  0.0304 -1.3463
 9668TIP3   OH250418   4.237   5.295   0.265 -0.7775 -0.3503  0.5138
 9668TIP3    H150419   4.285   5.234   0.320  0.9060  0.5727  0.1037
 9668TIP3    H250420   4.227   5.373   0.319 -0.6253 -0.0601  0.1289
 9669TIP3   OH250421   4.098   3.846   3.798 -0.2514 -0.0498 -0.3569
 9669TIP3    H150422   4.181   3.876   3.762 -0.6440  0.3532 -0.9429
 9669TIP3    H250423   4.061   3.923   3.842  0.9110 -0.9124  2.2597
 9670TIP3   OH250424   1.120   1.994   5.472 -0.1576 -0.3360 -0.1713
 9670TIP3    H150425   1.181   2.053   5.516 -0.4873 -0.5218  0.5344
 9670TIP3    H250426   1.040   2.045   5.463  0.0653 -0.1254 -1.0123
 9671TIP3   OH250427   0.323   1.837  13.222 -0.1693 -0.5389 -0.1781
 9671TIP3    H150428   0.390   1.893  13.183  0.5337 -0.9738  0.3837
 9671TIP3    H250429   0.244   1.854  13.171  0.0773  0.8328 -0.1119
 9672TIP3   OH250430   0.809   4.379   2.119 -0.0456 -0.1878 -0.7329
 9672TIP3    H150431   0.723   4.416   2.139  0.7982  2.1171 -1.1382
 9672TIP3    H250432   0.857   4.452   2.078  2.5810 -0.9659  0.8519
 9673TIP3   OH250433   6.373   2.696  16.186 -0.3847  0.7651  0.6189
 9673TIP3    H150434   6.279   2.683  16.172 -0.2573  0.8950 -0.4584
 9673TIP3    H250435   6.391   2.782  16.147 -0.0233  1.2506  1.8474
 9674TIP3   OH250436   5.985   6.361  13.909 -0.8020 -0.2578 -0.6185
 9674TIP3    H150437   6.028   6.370  13.824 -2.0935  0.6532 -1.1934
 9674TIP3    H250438   5.916   6.295  13.895  0.3738 -1.7148  0.2958
 9675TIP3   OH250439   5.379   2.695   1.595 -0.1554  0.2017 -0.1896
 9675TIP3    H150440   5.315   2.758   1.628 -0.0640  0.0926  0.1923
 9675TIP3    H250441   5.447   2.749   1.555 -0.7759  0.3031 -1.1374
 9676TIP3   OH250442   0.669   5.180   1.862  0.3298  0.0064 -0.1922
 9676TIP3    H150443   0.584   5.166   1.905  1.1003 -1.3907  0.9179
 9676TIP3    H250444   0.669   5.273   1.839 -1.3073  0.1284  0.2228
 9677TIP3   OH250445   2.054   5.330   0.647  0.6026  0.4814 -0.1514
 9677TIP3    H150446   2.148   5.347   0.661  0.8508 -1.4497  0.6940
 9677TIP3    H250447   2.010   5.386   0.712  1.1607  1.5031 -0.6477
 9678TIP3   OH250448   0.126   2.474   2.351 -0.7842  0.4228 -0.5338
 9678TIP3    H150449   0.119   2.507   2.441  1.4798  0.6202 -0.4017
 9678TIP3    H250450   0.148   2.381   2.361  0.8916  0.7586 -0.8320
 9679TIP3   OH250451   0.557   1.893  16.437  0.0752 -0.3809  0.5364
 9679TIP3    H150452   0.632   1.907  16.380  1.4057  0.7831  2.4947
 9679TIP3    H250453   0.581   1.816  16.489 -1.0036 -1.2672 -0.2608
 9680TIP3   OH250454   1.525   0.683   3.300  0.0268  0.0132  0.7695
 9680TIP3    H150455   1.597   0.633   3.262  1.2450  1.1684  1.5150
 9680TIP3    H250456   1.558   0.711   3.386 -1.8434 -0.6749  1.7529
 9681TIP3   OH250457   5.791   6.497   4.166 -0.2571 -0.5317  0.0390
 9681TIP3    H150458   5.870   6.494   4.220 -0.3040 -0.0889  0.1354
 9681TIP3    H250459   5.753   6.583   4.183 -1.2866 -1.1103  0.7405
 9682TIP3   OH250460   4.016   3.984  14.651 -0.6113  0.3256  0.5090
 9682TIP3    H150461   3.955   3.955  14.720 -1.0009 -3.0420 -1.1970
 9682TIP3    H250462   3.959   4.022  14.584 -0.5905 -0.2608  0.1605
 9683TIP3   OH250463   4.187   3.203  16.426  0.3767 -0.2572 -0.5586
 9683TIP3    H150464   4.211   3.176  16.514  0.6355  1.4258 -0.1031
 9683TIP3    H250465   4.151   3.124  16.386  0.2834 -1.0381  1.0305
 9684TIP3   OH250466   2.208   5.771   3.640  0.4333  0.0892 -0.0497
 9684TIP3    H150467   2.202   5.841   3.706 -0.7308  1.6403 -1.7564
 9684TIP3    H250468   2.302   5.751   3.636  0.4900 -0.2453  2.2762
 9685TIP3   OH250469   4.633   4.960   5.403  0.0135 -0.1937  0.3725
 9685TIP3    H150470   4.721   4.929   5.381 -1.2846 -1.8638 -2.7066
 9685TIP3    H250471   4.608   4.908   5.480  1.4874 -0.0699  0.9549
 9686TIP3   OH250472   6.560   0.615   0.314 -0.3540 -0.8486  0.4232
 9686TIP3    H150473   6.552   0.631   0.408  0.8801  1.2576  0.2121
 9686TIP3    H250474   6.582   0.522   0.307  3.0243 -0.2752  2.4375
 9687TIP3   OH250475   0.859   6.662   2.359 -0.1154 -0.2830  0.3585
 9687TIP3    H150476   0.953   6.680   2.351  0.0834 -1.2677  0.3945
 9687TIP3    H250477   0.854   6.588   2.420 -0.9228 -0.1119  0.5018
 9688TIP3   OH250478   2.081   2.424   1.831 -0.8873  0.0447 -0.1000
 9688TIP3    H150479   2.018   2.358   1.801  0.7097 -1.2971 -0.5694
 9688TIP3    H250480   2.075   2.421   1.927 -0.7210 -0.8922 -0.1155
 9689TIP3   OH250481   1.762   4.862  13.158  0.1155 -0.3112 -0.0277
 9689TIP3    H150482   1.730   4.929  13.099 -1.5490 -0.4511  0.6709
 9689TIP3    H250483   1.800   4.911  13.232 -1.4055 -0.1116  0.6438
 9690TIP3   OH250484   4.032   4.221  11.882  0.2819 -0.2655  0.1434
 9690TIP3    H150485   4.041   4.315  11.869 -0.2149 -0.2734 -0.2756
 9690TIP3    H250486   4.058   4.206  11.973  0.2938  0.2855  0.2294
 9691TIP3   OH250487   3.939   0.757   2.367 -0.3833 -0.5121 -0.0106
 9691TIP3    H150488   4.034   0.759   2.358 -0.2204 -0.0451  1.5939
 9691TIP3    H250489   3.915   0.666   2.349  0.3954 -0.6716 -0.2437
 9692TIP3   OH250490   2.411   5.250  11.199 -0.0960  0.3343 -0.2059
 9692TIP3    H150491   2.497   5.231  11.162  0.3249 -0.9701  1.4097
 9692TIP3    H250492   2.349   5.225  11.130  0.6908 -1.8840 -0.1347
 9693TIP3   OH250493   1.535   3.641   3.256 -0.3789 -0.0207  0.2606
 9693TIP3    H150494   1.592   3.641   3.333  0.3528  2.2017 -0.2295
 9693TIP3    H250495   1.584   3.593   3.190  0.5652  1.1662  0.0963
 9694TIP3   OH250496   3.520   3.652   4.947 -0.0166  0.5214  0.1260
 9694TIP3    H150497   3.598   3.602   4.968  1.0137  0.7549 -2.9510
 9694TIP3    H250498   3.452   3.585   4.931  0.2550  0.2316  0.1908
 9695TIP3   OH250499   6.266   1.997  15.430 -0.2900 -0.0203  0.6198
 9695TIP3    H150500   6.279   1.946  15.510 -2.2568 -1.2622  0.1698
 9695TIP3    H250501   6.194   2.056  15.450 -1.3309 -0.8999 -0.4842
 9696TIP3   OH250502   2.955   0.669   0.467  0.0817  0.2983 -0.1864
 9696TIP3    H150503   2.918   0.700   0.385  0.7651  1.2370 -0.1433
 9696TIP3    H250504   3.014   0.598   0.442  2.0453  2.0758 -0.7535
 9697TIP3   OH250505   4.998   0.743   2.337  0.1033  0.2327  0.3156
 9697TIP3    H150506   5.033   0.816   2.388  0.9988 -0.4512  0.6895
 9697TIP3    H250507   4.926   0.782   2.287  1.6155  1.7531 -0.7625
 9698TIP3   OH250508   0.551   2.241   5.825  0.1156 -0.1803 -0.3377
 9698TIP3    H150509   0.551   2.331   5.856  0.1480 -0.2071 -0.2596
 9698TIP3    H250510   0.592   2.244   5.739 -3.4253  0.5156 -2.1059
 9699TIP3   OH250511   3.647   5.360  15.546 -0.3358  1.0075  0.1817
 9699TIP3    H150512   3.613   5.388  15.631 -0.3047  2.1603 -0.1679
 9699TIP3    H250513   3.734   5.324  15.565 -0.4899  0.9057  0.6885
 9700TIP3   OH250514   1.372   1.982  11.575  0.4652 -0.1286 -0.6389
 9700TIP3    H150515   1.408   1.910  11.627 -0.2698 -0.4378 -0.5471
 9700TIP3    H250516   1.401   2.061  11.620  1.2021 -0.3748 -0.6895
 9701TIP3   OH250517   0.540   0.235   0.303 -0.0369 -0.6009  0.3565
 9701TIP3    H150518   0.474   0.184   0.255 -0.6589  0.6541 -0.1305
 9701TIP3    H250519   0.556   0.184   0.382  0.7169 -2.5002 -0.9774
 9702TIP3   OH250520   2.498   3.799   1.275  0.2529 -0.3955  0.1290
 9702TIP3    H150521   2.499   3.887   1.238 -1.4685 -0.8853 -1.1498
 9702TIP3    H250522   2.499   3.813   1.370 -0.0303  1.0079 -0.0637
 9703TIP3   OH250523   1.996   3.432   1.050  0.2728  0.0977 -0.3553
 9703TIP3    H150524   2.073   3.399   1.097  0.1420  2.5501  1.7648
 9703TIP3    H250525   2.020   3.522   1.027 -0.5927 -0.3099 -3.0050
 9704TIP3   OH250526   0.016   4.716  12.081 -0.4265  0.1881 -0.2196
 9704TIP3    H150527  -0.013   4.648  12.019  0.0150  0.3919 -0.6511
 9704TIP3    H250528   0.034   4.792  12.026 -0.6336  0.5649  0.2327
 9705TIP3   OH250529   1.154   6.161   3.113  0.2924 -0.2921 -0.0726
 9705TIP3    H150530   1.231   6.116   3.148  1.0721 -1.3435 -3.0085
 9705TIP3    H250531   1.183   6.250   3.097  0.3154 -0.1699  0.6062
 9706TIP3   OH250532   4.851   0.960  13.039 -0.4703 -0.5459  0.3236
 9706TIP3    H150533   4.910   0.893  13.005 -0.7251  0.5002 -2.3450
 9706TIP3    H250534   4.765   0.937  13.004 -0.6078  0.9934 -0.4167
 9707TIP3   OH250535   1.141   0.567  15.004 -0.9425  0.1887 -0.4871
 9707TIP3    H150536   1.139   0.573  15.099  0.0661  1.1531 -0.5168
 9707TIP3    H250537   1.232   0.582  14.981 -0.8898 -1.5218 -1.5236
 9708TIP3   OH250538   0.389   5.530   3.079  0.5758 -0.1838 -0.0906
 9708TIP3    H150539   0.371   5.566   2.992  0.4328  0.5707  0.2417
 9708TIP3    H250540   0.484   5.528   3.085  0.6364  2.3924  0.7620
 9709TIP3   OH250541   5.605   2.108   1.142  0.2514  0.2801 -0.0805
 9709TIP3    H150542   5.612   2.202   1.159  1.0019  0.0363  1.0871
 9709TIP3    H250543   5.556   2.075   1.218 -2.4821  0.1084 -1.8556
 9710TIP3   OH250544   2.177   5.982   2.617  0.6436 -0.2572  0.2133
 9710TIP3    H150545   2.189   5.894   2.653  1.7278  0.5758  1.9643
 9710TIP3    H250546   2.125   6.027   2.683  1.1458  0.7857 -0.1013
 9711TIP3   OH250547   0.260   4.169   0.774  0.5671  0.1250 -0.2738
 9711TIP3    H150548   0.290   4.248   0.819 -1.0184  0.7920 -0.3647
 9711TIP3    H250549   0.296   4.176   0.686  0.0428  0.9748 -0.4196
 9712TIP3   OH250550   5.210   2.758  14.686  0.0121  0.6872  0.3797
 9712TIP3    H150551   5.263   2.685  14.720 -0.6995  0.1768  0.4081
 9712TIP3    H250552   5.123   2.743  14.723 -0.9016 -0.1261 -2.0369
 9713TIP3   OH250553   0.016   0.389   3.456  0.3104 -0.3643  0.8791
 9713TIP3    H150554   0.105   0.356   3.464  0.3858 -0.0333  1.5105
 9713TIP3    H250555  -0.010   0.409   3.546 -0.0492  0.4426  0.6029
 9714TIP3   OH250556   4.224   1.738  15.602 -0.0436 -0.3093  0.2588
 9714TIP3    H150557   4.231   1.708  15.693  1.7524 -1.2747 -0.1796
 9714TIP3    H250558   4.312   1.727  15.566 -0.3857  1.4931 -1.1732
 9715TIP3   OH250559   6.002   5.225  14.106  0.1581 -0.6018 -0.4691
 9715TIP3    H150560   6.067   5.267  14.163  0.9410 -0.4762 -1.4301
 9715TIP3    H250561   5.945   5.296  14.079  0.2066 -0.5355 -0.3996
 9716TIP3   OH250562   6.321   4.527   4.434  0.2316 -0.3522  0.7875
 9716TIP3    H150563   6.280   4.558   4.514  0.7841  1.4974  0.3790
 9716TIP3    H250564   6.304   4.595   4.369  0.2868 -1.5489 -0.5258
 9717TIP3   OH250565   4.429   3.161   5.972 -0.3703 -0.3518 -0.0857
 9717TIP3    H150566   4.349   3.145   5.922  0.6931  0.9754 -2.2959
 9717TIP3    H250567   4.397   3.191   6.058 -2.2220 -2.9464  0.1860
 9718TIP3   OH250568   6.132   1.029  11.000  0.6934  0.4898 -0.6065
 9718TIP3    H150569   6.088   1.109  10.973 -0.6487 -0.0540 -0.0547
 9718TIP3    H250570   6.207   1.022  10.941  0.1270  1.4997 -1.4560
 9719TIP3   OH250571   2.629   3.800   2.899 -0.6826  0.3712 -0.7067
 9719TIP3    H150572   2.592   3.712   2.898 -0.7670  0.4114 -1.1290
 9719TIP3    H250573   2.563   3.854   2.944  0.7388 -0.3784  2.4617
 9720TIP3   OH250574   5.913   4.459  12.450 -0.8442 -0.2606  0.2145
 9720TIP3    H150575   5.929   4.508  12.530 -0.7570  1.7176 -1.0009
 9720TIP3    H250576   5.977   4.492  12.387 -1.2401 -1.4204 -0.8364
 9721TIP3   OH250577   2.751   5.301   4.508 -0.3185  1.1814  0.2304
 9721TIP3    H150578   2.814   5.231   4.526 -0.2765  0.4515 -2.4882
 9721TIP3    H250579   2.667   5.266   4.539  0.4766  1.9378  3.3608
 9722TIP3   OH250580   2.250   1.679   1.023  0.6555 -0.2922 -0.1552
 9722TIP3    H150581   2.276   1.706   1.111  1.9588 -1.9200 -0.0193
 9722TIP3    H250582   2.231   1.761   0.977  0.2843  0.5903  1.5284
 9723TIP3   OH250583   0.587   1.659  15.006  0.5767  0.3437 -0.0930
 9723TIP3    H150584   0.561   1.634  15.095  0.6823  0.9119  0.0931
 9723TIP3    H250585   0.682   1.655  15.006  0.6839  2.4637  0.4371
 9724TIP3   OH250586   0.663   6.620  15.253 -0.1949  0.3346 -0.2978
 9724TIP3    H150587   0.662   6.531  15.220 -0.2598  1.2779 -2.9719
 9724TIP3    H250588   0.571   6.647  15.252 -0.3230 -0.0038  1.7522
 9725TIP3   OH250589   0.628   0.284  12.459  0.0209 -0.2735  0.7443
 9725TIP3    H150590   0.566   0.353  12.482  1.1993  0.9502  0.3246
 9725TIP3    H250591   0.586   0.237  12.386 -0.1823  0.8906  0.0963
 9726TIP3   OH250592   2.826   2.977  14.045 -0.0022 -0.6837  0.0221
 9726TIP3    H150593   2.899   2.967  13.983 -0.4922  1.6199 -0.9910
 9726TIP3    H250594   2.849   2.921  14.118  3.5978  1.1588  0.4294
 9727TIP3   OH250595   2.188   4.222  15.661  0.2765 -0.1453  0.4262
 9727TIP3    H150596   2.206   4.289  15.595  0.1492  0.7074  1.2537
 9727TIP3    H250597   2.227   4.256  15.741  0.0960 -1.0088  0.8810
 9728TIP3   OH250598   1.929   2.926   3.731  0.5557  0.2715  0.5320
 9728TIP3    H150599   2.004   2.977   3.703  1.3848 -0.1532  1.9343
 9728TIP3    H250600   1.862   2.991   3.753 -0.0843  0.6222 -2.2434
 9729TIP3   OH250601   6.762   5.417  13.035 -0.1782 -0.2997 -1.0159
 9729TIP3    H150602   6.725   5.394  13.121 -1.3513  0.8712 -1.2036
 9729TIP3    H250603   6.822   5.345  13.016  2.2243  0.7747  2.0492
 9730TIP3   OH250604   1.442   3.576  13.438  0.5487  0.4022  0.0398
 9730TIP3    H150605   1.440   3.497  13.385  1.9854  1.4817 -1.6868
 9730TIP3    H250606   1.511   3.561  13.502  2.0496  0.9064 -1.4125
 9731TIP3   OH250607   1.727   4.310  12.417 -0.2634  0.1472  0.7591
 9731TIP3    H150608   1.674   4.231  12.426 -1.3076  0.7284 -0.3039
 9731TIP3    H250609   1.796   4.299  12.483 -0.5267 -1.5421  0.7810
 9732TIP3   OH250610   2.661   1.296  12.328  0.4311  0.0908 -0.1277
 9732TIP3    H150611   2.723   1.367  12.312 -0.1098  0.5371 -0.2501
 9732TIP3    H250612   2.702   1.219  12.288  0.1140  0.7360 -1.7319
 9733TIP3   OH250613   2.067   2.299   5.620  0.3544  0.2022  0.2558
 9733TIP3    H150614   2.046   2.362   5.689 -0.0599 -0.1442  0.4439
 9733TIP3    H250615   2.151   2.330   5.585  0.7215  0.1944  1.1162
 9734TIP3   OH250616   3.886   4.464   4.786 -0.0150 -0.0478  0.9090
 9734TIP3    H150617   3.873   4.559   4.794 -0.9257 -0.1096  0.2790
 9734TIP3    H250618   3.881   4.448   4.692 -0.6519 -0.8342  1.0808
 9735TIP3   OH250619   0.643   1.741  10.569 -0.1335  0.0725  0.1659
 9735TIP3    H150620   0.667   1.825  10.609 -1.5925 -0.0253  1.2774
 9735TIP3    H250621   0.709   1.679  10.599  1.5972  1.0249 -1.5419
 9736TIP3   OH250622   3.018   0.315   5.870 -0.1904 -0.0606 -0.7235
 9736TIP3    H150623   2.974   0.263   5.803  0.4091  1.6274 -2.4818
 9736TIP3    H250624   3.040   0.398   5.826  0.8624  0.8072  1.3474
 9737TIP3   OH250625   4.650   5.875   5.010  0.2687  0.2502 -0.0679
 9737TIP3    H150626   4.711   5.946   5.032  0.7314  0.0367 -0.6649
 9737TIP3    H250627   4.632   5.833   5.094  1.0917  0.1959  0.0870
 9738TIP3   OH250628   6.541   6.203  14.207  0.2922 -0.5327  0.2133
 9738TIP3    H150629   6.464   6.257  14.225  0.2777 -0.5523  0.2123
 9738TIP3    H250630   6.592   6.255  14.144  0.1621 -0.6270  0.0318
 9739TIP3   OH250631   1.826   0.631  12.454  0.4941  0.8771 -0.0087
 9739TIP3    H150632   1.785   0.575  12.520 -0.3463  2.0909  0.5156
 9739TIP3    H250633   1.817   0.582  12.372 -0.4444  0.3394  0.4039
 9740TIP3   OH250634   3.915   3.349  11.542  0.0424  0.0514 -0.0658
 9740TIP3    H150635   3.888   3.423  11.486  1.2759  0.6226  0.0862
 9740TIP3    H250636   3.872   3.273  11.503 -0.7701  0.7573 -0.5750
 9741TIP3   OH250637   2.384   0.786   5.635 -0.1797  0.3461 -0.6811
 9741TIP3    H150638   2.290   0.805   5.640  0.0783  1.6510 -0.3806
 9741TIP3    H250639   2.397   0.747   5.549 -1.0791 -0.3058 -0.5176
 9742TIP3   OH250640   1.788   2.960   5.617 -0.2343  0.1029 -0.1682
 9742TIP3    H150641   1.782   2.947   5.712 -2.0794 -1.9539 -0.5458
 9742TIP3    H250642   1.859   2.903   5.589  0.0925  0.4650 -0.0913
 9743TIP3   OH250643   5.630   0.346   1.180 -0.2356  0.1828 -0.0637
 9743TIP3    H150644   5.545   0.306   1.197 -0.7084  1.1587 -0.1173
 9743TIP3    H250645   5.683   0.323   1.257  0.5443 -3.3186 -1.5338
 9744TIP3   OH250646   5.346   3.635  17.020  0.1068  0.2180 -0.0312
 9744TIP3    H150647   5.351   3.719  16.976 -0.9661 -0.0098 -0.6266
 9744TIP3    H250648   5.253   3.612  17.017  0.4908 -1.3474 -0.5749
 9745TIP3   OH250649   6.652   6.431   0.991  0.3945 -0.2132 -0.1311
 9745TIP3    H150650   6.606   6.446   0.908  0.4592 -1.1653 -0.3441
 9745TIP3    H250651   6.583   6.409   1.053  0.4071 -0.1271 -0.0871
 9746TIP3   OH250652   5.900   2.545  13.984  0.0131  0.1398 -0.2712
 9746TIP3    H150653   5.848   2.542  13.904 -0.7166 -0.8853  0.2218
 9746TIP3    H250654   5.840   2.514  14.052  1.0940 -0.5165  0.3989
 9747TIP3   OH250655   6.252   5.214  12.766  0.5102 -0.3744  0.0788
 9747TIP3    H150656   6.326   5.197  12.823  0.5722 -1.5360 -0.3306
 9747TIP3    H250657   6.205   5.285  12.808  2.9617  1.7742 -0.6817
 9748TIP3   OH250658   4.678   4.973  13.178  0.3776  0.0898 -0.2671
 9748TIP3    H150659   4.737   5.014  13.115  1.3463  0.6791  1.0096
 9748TIP3    H250660   4.600   5.029  13.178  0.6722  0.4950 -0.4030
 9749TIP3   OH250661   4.006   0.494  12.710  0.5975 -0.4765  0.4007
 9749TIP3    H150662   3.974   0.417  12.756  0.4726 -0.0992  0.9529
 9749TIP3    H250663   4.055   0.459  12.636 -2.2102 -1.0482 -1.2475
 9750TIP3   OH250664   0.265   0.387  13.368 -0.1888 -0.0862  0.3144
 9750TIP3    H150665   0.338   0.340  13.410 -0.4249 -0.2764  0.5123
 9750TIP3    H250666   0.191   0.327  13.377 -1.1517  1.4354  2.9355
 9751TIP3   OH250667   4.822   5.881   5.273  0.1872  0.3396  0.1051
 9751TIP3    H150668   4.833   5.794   5.310  2.5813  1.6615  2.6488
 9751TIP3    H250669   4.906   5.901   5.231 -1.2158  0.4025 -2.7951
 9752TIP3   OH250670   3.022   3.045   1.544  0.4792 -0.2327 -0.0209
 9752TIP3    H150671   2.987   2.958   1.563 -1.4185  0.4489 -0.2160
 9752TIP3    H250672   3.060   3.037   1.457 -0.7793 -0.5921 -0.5593
 9753TIP3   OH250673   3.755   6.277  15.876 -0.2375 -0.3703 -0.0455
 9753TIP3    H150674   3.684   6.317  15.826  1.6244  0.9738 -1.7219
 9753TIP3    H250675   3.790   6.348  15.930  0.1421 -0.8895  0.4010
 9754TIP3   OH250676   5.229   4.292  17.194  0.5539  0.0227 -0.5411
 9754TIP3    H150677   5.307   4.236  17.187  0.2544 -0.1817 -2.2384
 9754TIP3    H250678   5.227   4.317  17.287  2.8522  0.3209 -0.5421
 9755TIP3   OH250679   3.592   4.021   6.593  0.1134 -0.5224  0.2656
 9755TIP3    H150680   3.600   3.930   6.622 -1.5732 -1.1917 -1.2811
 9755TIP3    H250681   3.500   4.031   6.569  0.5920  1.1616 -0.9976
 9756TIP3   OH250682   1.805   6.585  16.579  0.2293  0.3220  0.2789
 9756TIP3    H150683   1.745   6.510  16.574  0.6806  0.0086 -0.4995
 9756TIP3    H250684   1.858   6.568  16.657  0.8915 -0.5985 -0.3566
 9757TIP3   OH250685   2.021   1.340   3.397 -0.0833  0.3549  0.3100
 9757TIP3    H150686   2.082   1.281   3.440 -2.7046 -0.8785  2.4627
 9757TIP3    H250687   1.987   1.291   3.322  0.5375  0.5652 -0.1186
 9758TIP3   OH250688   3.512   5.472   5.593 -0.0234  0.0412 -0.8462
 9758TIP3    H150689   3.430   5.499   5.553 -0.9814 -0.3141  0.8402
 9758TIP3    H250690   3.514   5.518   5.677 -0.0918 -2.5202  0.6024
 9759TIP3   OH250691   4.814   4.550  12.987 -0.0250  1.0000  0.2079
 9759TIP3    H150692   4.723   4.522  12.976  0.3744 -0.7979  1.3747
 9759TIP3    H250693   4.819   4.582  13.077  0.8809 -0.4508  0.6877
 9760TIP3   OH250694   5.525   1.538  14.338 -1.0812  0.2677 -0.2930
 9760TIP3    H150695   5.451   1.510  14.391 -0.1546 -1.2913  0.2270
 9760TIP3    H250696   5.521   1.633  14.338 -1.8263  0.2471  1.5320
 9761TIP3   OH250697   2.104   1.446  11.043 -0.6611 -0.5044  0.6983
 9761TIP3    H150698   2.144   1.526  11.009 -0.2017 -0.7122  0.7466
 9761TIP3    H250699   2.075   1.398  10.966  3.2778 -2.5255  0.3261
 9762TIP3   OH250700   3.429   2.213  11.168  0.4907 -0.1266 -0.1470
 9762TIP3    H150701   3.487   2.274  11.122  1.4489 -0.6642  0.3383
 9762TIP3    H250702   3.428   2.135  11.113 -0.7901  0.3324 -0.8004
 9763TIP3   OH250703   2.879   0.558  16.458 -0.0919 -0.1074 -0.2275
 9763TIP3    H150704   2.894   0.618  16.531 -1.7389 -0.2372  0.2337
 9763TIP3    H250705   2.899   0.610  16.380  2.1044 -0.0974  0.2970
 9764TIP3   OH250706   4.123   2.308   0.594  0.7829  0.1261  0.0145
 9764TIP3    H150707   4.043   2.338   0.637  0.1280 -0.9235 -0.4580
 9764TIP3    H250708   4.194   2.357   0.636  0.2069 -1.1564  2.5256
 9765TIP3   OH250709   0.442   2.554  10.731 -0.0928 -0.1822 -0.3673
 9765TIP3    H150710   0.490   2.636  10.732 -0.3321 -0.0356  1.4812
 9765TIP3    H250711   0.509   2.487  10.745  0.0467 -0.2787 -1.4603
 9766TIP3   OH250712   0.282   6.039  12.944 -0.1687  0.5137 -0.6704
 9766TIP3    H150713   0.210   6.101  12.936 -1.3493 -0.8829 -1.1527
 9766TIP3    H250714   0.241   5.960  12.979  1.0756 -0.4023 -1.2660
 9767TIP3   OH250715   6.068   1.682  13.856  0.3075  0.0976 -0.3970
 9767TIP3    H150716   6.023   1.632  13.925 -1.7138  1.2580 -0.8551
 9767TIP3    H250717   6.048   1.634  13.775 -0.0184  0.5427 -0.5838
 9768TIP3   OH250718   0.571   1.356   3.354 -0.3751 -0.4978 -0.2633
 9768TIP3    H150719   0.506   1.289   3.376 -1.2981  0.9309  1.5777
 9768TIP3    H250720   0.521   1.438   3.351  1.0993  0.4382 -0.1827
 9769TIP3   OH250721   4.999   5.020  13.257  0.8455 -0.1015  0.4806
 9769TIP3    H150722   5.007   4.968  13.177  2.6048  0.6141  0.1775
 9769TIP3    H250723   4.943   4.967  13.314  0.2903 -1.0135 -0.8849
 9770TIP3   OH250724   6.772   4.716  12.358 -0.0152 -0.0294 -0.1546
 9770TIP3    H150725   6.713   4.646  12.387  0.9218 -0.7027  0.1573
 9770TIP3    H250726   6.792   4.693  12.267  1.8131 -1.2544  0.5223
 9771TIP3   OH250727   4.092   1.134  16.981  0.4978  0.0534  0.3629
 9771TIP3    H150728   4.063   1.062  17.036 -0.8572 -0.1022 -0.5268
 9771TIP3    H250729   4.011   1.176  16.952  1.1460 -0.1777 -1.9101
 9772TIP3   OH250730   4.786   4.919   2.612  0.1044 -0.4467 -0.0893
 9772TIP3    H150731   4.817   5.010   2.608  0.4965 -0.6307 -1.4962
 9772TIP3    H250732   4.724   4.919   2.685 -2.6579  1.8636 -2.2662
 9773TIP3   OH250733   4.676   2.480   4.767 -0.5902 -0.0427 -0.6790
 9773TIP3    H150734   4.683   2.407   4.828 -1.6612  0.0707 -0.4110
 9773TIP3    H250735   4.693   2.558   4.820 -1.0422  0.0207 -0.6293
 9774TIP3   OH250736   4.232   3.608   4.434  0.0171  0.3776 -0.5266
 9774TIP3    H150737   4.311   3.661   4.438 -0.4567  0.9459  1.7575
 9774TIP3    H250738   4.262   3.523   4.402  1.4794  0.6857 -0.0087
 9775TIP3   OH250739   6.100   2.236  11.153 -0.1687 -0.0423  0.3384
 9775TIP3    H150740   6.026   2.177  11.145 -0.9801  1.0072  0.0811
 9775TIP3    H250741   6.162   2.207  11.086 -1.9268  1.3842 -1.9559
 9776TIP3   OH250742   0.905   6.441  16.645  0.2062 -0.2714  0.2343
 9776TIP3    H150743   0.960   6.363  16.644  0.0819 -0.4281  2.5960
 9776TIP3    H250744   0.965   6.514  16.661  0.2704  0.0925 -1.5646
 9777TIP3   OH250745   3.060   2.596  14.098 -0.1447  0.5575  0.1513
 9777TIP3    H150746   2.996   2.555  14.040 -1.0276  0.4427  1.2072
 9777TIP3    H250747   3.014   2.672  14.134  0.2426  0.3610  1.0633
 9778TIP3   OH250748   6.577   2.522   1.304  0.2514  0.1439 -0.1113
 9778TIP3    H150749   6.630   2.477   1.370 -1.5785  0.0020  1.2848
 9778TIP3    H250750   6.629   2.599   1.281  1.3519 -0.3224  0.7658
 9779TIP3   OH250751   1.064   1.297  11.928 -0.1759 -0.0954 -0.2968
 9779TIP3    H150752   1.044   1.263  12.015  0.5621  0.6271  0.1554
 9779TIP3    H250753   1.111   1.379  11.944  0.4089 -0.2194 -1.3718
 9780TIP3   OH250754   1.107   6.337   4.751  0.7471  0.1052 -0.0981
 9780TIP3    H150755   1.032   6.392   4.732  0.6755  0.1858  0.4023
 9780TIP3    H250756   1.071   6.267   4.806  0.7817 -0.5907 -0.9482
 9781TIP3   OH250757   6.344   5.901  15.360 -0.0396 -0.2258  0.4681
 9781TIP3    H150758   6.290   5.845  15.415 -0.3003 -0.6536 -0.2306
 9781TIP3    H250759   6.389   5.842  15.301 -0.7015  0.3365 -0.6114
 9782TIP3   OH250760   6.758   6.596  10.890  0.0168 -0.0141  0.8444
 9782TIP3    H150761   6.847   6.630  10.896  0.4202 -1.0766  0.9714
 9782TIP3    H250762   6.759   6.517  10.944 -1.4456  0.8528  2.1876
 9783TIP3   OH250763   4.128   3.615  13.953 -0.4362 -0.1340  0.3585
 9783TIP3    H150764   4.156   3.542  14.008 -1.7970 -0.9444  0.0045
 9783TIP3    H250765   4.033   3.616  13.962 -0.4407  1.4443  0.1618
 9784TIP3   OH250766   5.368   6.734   4.234 -0.5388  0.3816  0.5289
 9784TIP3    H150767   5.405   6.821   4.248 -0.9238  0.5523  0.5030
 9784TIP3    H250768   5.274   6.745   4.247 -0.4782 -0.2501  1.5779
 9785TIP3   OH250769   1.433   5.256   3.776  0.0827  0.0744  0.1696
 9785TIP3    H150770   1.442   5.178   3.831 -0.1433  0.5704  0.9294
 9785TIP3    H250771   1.421   5.328   3.839  0.5702  0.7601 -0.5067
 9786TIP3   OH250772   4.286   5.790  16.353  0.4703 -0.1837 -0.1346
 9786TIP3    H150773   4.370   5.746  16.343 -0.7735 -3.5468  3.0763
 9786TIP3    H250774   4.287   5.823  16.443 -2.3770 -2.0455  0.6416
 9787TIP3   OH250775   0.227   0.499  14.085 -0.0528 -0.5137 -0.0748
 9787TIP3    H150776   0.178   0.486  14.003 -1.6354  0.9605  0.6129
 9787TIP3    H250777   0.160   0.518  14.150  1.1365 -2.4331  1.7655
 9788TIP3   OH250778   1.282   0.961  11.181  0.0721 -0.3457  0.1264
 9788TIP3    H150779   1.211   0.908  11.145 -0.5727 -0.1824  1.1285
 9788TIP3    H250780   1.288   1.037  11.123  0.3129 -1.0133 -0.7208
 9789TIP3   OH250781   6.548   4.622   1.362 -0.0567  0.4125  0.4342
 9789TIP3    H150782   6.470   4.570   1.383 -0.7690  0.2038 -2.4206
 9789TIP3    H250783   6.617   4.557   1.349 -0.5483  0.2344 -1.5011
 9790TIP3   OH250784   2.141   2.362  15.120 -0.2394 -0.2131  0.6359
 9790TIP3    H150785   2.143   2.409  15.203  0.5926  1.5179 -0.3565
 9790TIP3    H250786   2.059   2.390  15.079 -0.0062 -0.0683  0.2757
 9791TIP3   OH250787   0.988   1.459   1.605 -0.0346 -0.1062  0.1127
 9791TIP3    H150788   1.071   1.468   1.653 -0.3057  0.5453  0.4739
 9791TIP3    H250789   1.000   1.511   1.526  0.0893 -0.4393 -0.0864
 9792TIP3   OH250790   6.372   5.679  17.031  0.1045  0.8412  0.2265
 9792TIP3    H150791   6.459   5.717  17.023  0.2604  0.5826  0.7300
 9792TIP3    H250792   6.366   5.649  17.121  0.0070 -0.3899 -0.1777
 9793TIP3   OH250793   2.044   1.904   4.431 -0.8363  0.2603 -0.0953
 9793TIP3    H150794   2.077   1.907   4.521 -0.0763 -3.2788 -0.1855
 9793TIP3    H250795   1.987   1.981   4.424 -0.7161  0.7501  3.3100
 9794TIP3   OH250796   4.751   1.404   0.159 -0.0453 -0.1809  0.1764
 9794TIP3    H150797   4.813   1.389   0.230  0.8387 -1.2559 -0.7976
 9794TIP3    H250798   4.698   1.324   0.155 -0.7008  0.2430  0.2161
 9795TIP3   OH250799   2.580   1.547  16.651 -0.3683 -0.1266 -0.4639
 9795TIP3    H150800   2.597   1.596  16.732 -0.9196  0.2326 -0.5598
 9795TIP3    H250801   2.658   1.560  16.598  0.0331 -0.4374  0.0482
 9796TIP3   OH250802   1.362   4.445  15.555  0.0737 -0.1086  0.2861
 9796TIP3    H150803   1.438   4.504  15.552  0.8832 -1.1794 -0.7026
 9796TIP3    H250804   1.292   4.494  15.512  1.0951 -0.3355 -1.6706
 9797TIP3   OH250805   3.157   5.606  12.215  0.4362 -0.0962  0.2726
 9797TIP3    H150806   3.194   5.627  12.301  0.2499  1.3477  0.0011
 9797TIP3    H250807   3.233   5.579  12.163  1.0840  2.4459 -0.1530
 9798TIP3   OH250808   1.235   6.559   2.825 -0.2276  0.1916  0.1513
 9798TIP3    H150809   1.328   6.569   2.843 -0.4057  0.4105  0.9499
 9798TIP3    H250810   1.231   6.527   2.734  0.5966  0.7132 -0.0706
 9799TIP3   OH250811   5.194   3.862  15.379  0.5778 -0.0727  0.2284
 9799TIP3    H150812   5.119   3.862  15.438 -0.9668  0.6858 -1.6775
 9799TIP3    H250813   5.264   3.902  15.431 -1.1050  1.8302  1.1301
 9800TIP3   OH250814   6.726   3.759  11.876  0.2898 -0.2514  0.3685
 9800TIP3    H150815   6.730   3.749  11.971  0.8511  1.3373  0.5347
 9800TIP3    H250816   6.643   3.804  11.860 -0.1259 -1.1225  0.0372
 9801TIP3   OH250817   1.505   4.749  14.306 -0.2595 -0.7780  0.0436
 9801TIP3    H150818   1.423   4.793  14.329  0.1479  1.0733 -1.8237
 9801TIP3    H250819   1.482   4.690  14.234 -0.1787 -1.1165  0.2957
 9802TIP3   OH250820   1.470   4.910   4.702  0.4827 -0.2428 -0.0403
 9802TIP3    H150821   1.469   4.992   4.653  0.4451  0.4709  1.1335
 9802TIP3    H250822   1.534   4.924   4.772  0.1746 -1.0679  0.4226
 9803TIP3   OH250823   4.264   1.882  15.352  0.2290  0.2421  0.0722
 9803TIP3    H150824   4.200   1.891  15.422 -0.0503 -0.4205 -0.0925
 9803TIP3    H250825   4.299   1.794  15.363 -1.0586 -0.5251 -1.6509
 9804TIP3   OH250826   4.767   3.075   2.147  0.1531 -0.6396 -0.1566
 9804TIP3    H150827   4.730   3.078   2.236  3.3272  2.7113  1.1938
 9804TIP3    H250828   4.753   3.164   2.113  3.9670 -0.2090 -0.7890
 9805TIP3   OH250829   1.918   3.409  16.227 -0.1644  0.1833 -0.4687
 9805TIP3    H150830   1.844   3.462  16.255  0.1488  1.1625 -1.4491
 9805TIP3    H250831   1.917   3.415  16.132  0.7844 -0.3378 -0.5191
 9806TIP3   OH250832   0.072   5.190  16.266 -0.0203 -0.0489 -0.3355
 9806TIP3    H150833   0.041   5.111  16.222 -1.7391  1.7225 -2.3924
 9806TIP3    H250834   0.005   5.210  16.331 -1.4041  1.6615 -2.2261
 9807TIP3   OH250835   0.628   3.947   2.649  0.0555  0.0422 -0.7320
 9807TIP3    H150836   0.582   3.896   2.582  1.4408 -1.3237 -0.6517
 9807TIP3    H250837   0.716   3.960   2.614  0.5499  0.0177  0.4659
 9808TIP3   OH250838   5.067   1.378  13.932  0.5592  0.4043  0.0745
 9808TIP3    H150839   5.091   1.318  13.862  0.2770 -0.5601  0.7946
 9808TIP3    H250840   4.989   1.423  13.900  0.8353  0.4622 -0.5119
 9809TIP3   OH250841   0.627   6.556   3.145  0.1973  0.2098 -0.0857
 9809TIP3    H150842   0.715   6.542   3.179  0.8553 -0.6182 -2.0751
 9809TIP3    H250843   0.618   6.651   3.141  0.2573  0.3171  1.9560
 9810TIP3   OH250844   3.636   5.765   2.641 -0.2466 -0.8721  0.3627
 9810TIP3    H150845   3.561   5.736   2.589  0.9241 -1.6467 -0.9199
 9810TIP3    H250846   3.597   5.815   2.713 -1.8673  0.9286 -1.6801
 9811TIP3   OH250847   4.308   0.344   6.234 -0.6109  0.5581 -0.0957
 9811TIP3    H150848   4.242   0.334   6.165 -3.9915  0.8348  2.9511
 9811TIP3    H250849   4.307   0.437   6.255 -0.1192  0.3709  0.7751
 9812TIP3   OH250850   0.061   4.484  15.869 -0.1874 -0.1175 -0.4019
 9812TIP3    H150851  -0.033   4.487  15.887 -0.1568 -3.0113  0.5308
 9812TIP3    H250852   0.074   4.400  15.824  1.5686  1.4763 -3.0201
 9813TIP3   OH250853   6.074   0.585  15.503  0.1190  0.1587  0.5845
 9813TIP3    H150854   5.985   0.549  15.495  0.9032 -2.0852  1.5706
 9813TIP3    H250855   6.074   0.632  15.586  0.4501 -1.7003  1.6648
 9814TIP3   OH250856   5.607   1.629   1.816  0.0519  0.1598  0.4100
 9814TIP3    H150857   5.520   1.641   1.778 -0.7176 -2.2725  1.2735
 9814TIP3    H250858   5.591   1.622   1.910  1.0471 -1.2644  0.4944
 9815TIP3   OH250859   1.025   0.119   2.054  0.5913 -0.6707  0.2352
 9815TIP3    H150860   1.051   0.132   1.963 -0.4109  0.0313  0.0353
 9815TIP3    H250861   1.016   0.024   2.063  0.0105 -0.7047 -0.6078
 9816TIP3   OH250862   4.016   4.585  13.357 -0.1691 -0.2723 -0.0243
 9816TIP3    H150863   4.002   4.607  13.449 -0.4876  0.7719 -0.3135
 9816TIP3    H250864   4.079   4.650  13.326  0.6444 -1.1898 -0.3121
 9817TIP3   OH250865   4.550   6.616   4.377  0.0609 -0.4855 -0.5070
 9817TIP3    H150866   4.501   6.674   4.435  0.1838 -1.8239  0.9657
 9817TIP3    H250867   4.488   6.546   4.355  0.6384 -1.0421 -0.3728
 9818TIP3   OH250868   2.431   1.529  13.584 -0.1051 -0.0009 -0.2888
 9818TIP3    H150869   2.496   1.587  13.623 -1.5390  0.4514  1.5200
 9818TIP3    H250870   2.351   1.581  13.581 -1.0049 -1.3440 -0.1636
 9819TIP3   OH250871   2.485   5.546  15.993 -0.2755  0.1936  0.3991
 9819TIP3    H150872   2.543   5.513  16.061  0.9649  0.4527 -0.5285
 9819TIP3    H250873   2.467   5.637  16.019  2.3207  1.1454 -0.9774
 9820TIP3   OH250874   3.741   1.840  15.401  0.5014 -0.1733 -0.0116
 9820TIP3    H150875   3.684   1.897  15.453 -0.3393 -1.0796  0.0765
 9820TIP3    H250876   3.698   1.835  15.316 -0.2348 -1.9033  0.4601
 9821TIP3   OH250877   4.511   6.277  11.400  0.5449  0.0271 -0.0880
 9821TIP3    H150878   4.499   6.183  11.414  1.6881 -0.1815 -0.4876
 9821TIP3    H250879   4.538   6.284  11.308 -1.3606  0.9094 -0.6101
 9822TIP3   OH250880   1.205   0.297   6.530  0.5032 -0.0157 -0.0759
 9822TIP3    H150881   1.268   0.274   6.462  1.3242  0.3709  0.5457
 9822TIP3    H250882   1.154   0.217   6.544  0.5602 -0.1963 -0.8978
 9823TIP3   OH250883   5.976   1.752   5.283 -0.4735  0.0476  0.0730
 9823TIP3    H150884   6.067   1.732   5.305 -0.3397 -1.8882 -2.0248
 9823TIP3    H250885   5.982   1.815   5.211 -0.7631 -0.9983 -0.8788
 9824TIP3   OH250886   3.417   5.476   3.654  0.4057  0.1132 -0.2918
 9824TIP3    H150887   3.494   5.436   3.613  0.8848  0.5105  0.2126
 9824TIP3    H250888   3.449   5.560   3.687  0.1537 -0.3951  1.2891
 9825TIP3   OH250889   1.440   2.452   0.244  0.2107 -0.2310 -0.4057
 9825TIP3    H150890   1.530   2.419   0.240  0.1139 -0.3705 -1.6291
 9825TIP3    H250891   1.431   2.487   0.333  0.9483 -1.6830  0.2537
 9826TIP3   OH250892   2.741   1.815   3.117 -0.2078  0.9265 -0.3138
 9826TIP3    H150893   2.688   1.750   3.163  1.2774  0.1501  0.3470
 9826TIP3    H250894   2.681   1.887   3.098 -1.8066 -0.5026 -0.7767
 9827TIP3   OH250895   3.572   1.007  11.416  0.4115  0.9092  0.4709
 9827TIP3    H150896   3.513   0.993  11.490 -1.2394 -0.5926 -1.0645
 9827TIP3    H250897   3.568   1.101  11.399  0.0453  1.1160  1.6747
 9828TIP3   OH250898   0.138   1.974  16.506  0.4106 -0.3370  0.2118
 9828TIP3    H150899   0.063   1.916  16.493  0.3075 -0.1702  0.0636
 9828TIP3    H250900   0.198   1.953  16.435  0.7120 -0.7993  0.6078
 9829TIP3   OH250901   6.569   4.472  15.851  0.5294 -0.0134 -0.2218
 9829TIP3    H150902   6.484   4.444  15.818  0.4703 -0.2848  0.1482
 9829TIP3    H250903   6.549   4.524  15.929  0.7327 -0.7448  0.3248
 9830TIP3   OH250904   5.930   5.375  11.623 -0.1342 -0.3193 -0.4230
 9830TIP3    H150905   5.990   5.306  11.653  0.4097  0.7220  0.9283
 9830TIP3    H250906   5.875   5.331  11.558  2.0302 -1.3140 -1.6552
 9831TIP3   OH250907   3.426   1.768   5.541  0.8059 -0.0193 -0.2531
 9831TIP3    H150908   3.488   1.772   5.614 -0.2696 -0.4531  0.6910
 9831TIP3    H250909   3.340   1.782   5.582  0.2125 -0.1088 -1.4592
 9832TIP3   OH250910   2.234   0.830   2.323 -0.5658 -0.0951 -0.2059
 9832TIP3    H150911   2.242   0.789   2.237  0.4995  1.8032 -1.0456
 9832TIP3    H250912   2.314   0.804   2.369 -1.7693 -2.2485  0.7546
 9833TIP3   OH250913   3.909   2.742  11.544  0.3239 -0.0914  0.1282
 9833TIP3    H150914   3.873   2.708  11.462  1.3581  2.1288 -1.3255
 9833TIP3    H250915   3.834   2.781  11.589 -0.0970 -0.5451 -0.1755
 9834TIP3   OH250916   4.500   5.680  13.581  0.1669  0.2567  0.0790
 9834TIP3    H150917   4.511   5.766  13.539  0.6104 -1.0702 -2.6262
 9834TIP3    H250918   4.446   5.630  13.520  2.1788 -2.2864  0.2997
 9835TIP3   OH250919   1.741   5.818   4.459 -0.0437  0.3646  0.2761
 9835TIP3    H150920   1.761   5.840   4.550  1.7041 -0.8049  0.2095
 9835TIP3    H250921   1.814   5.854   4.409  0.1371 -0.9161 -0.4065
 9836TIP3   OH250922   5.815   4.228  12.544  0.2088 -0.2324 -0.0034
 9836TIP3    H150923   5.860   4.303  12.503 -1.2724  0.6451 -0.0440
 9836TIP3    H250924   5.728   4.228  12.505 -1.0240  0.2364  2.6618
 9837TIP3   OH250925   0.870   1.329   2.050  0.4687 -0.2055  0.1443
 9837TIP3    H150926   0.966   1.324   2.054  0.5119 -0.1065 -0.6302
 9837TIP3    H250927   0.849   1.300   1.962 -0.3716 -2.3152  1.0116
 9838TIP3   OH250928   1.821   4.795  11.888  0.2896  0.3651  0.0073
 9838TIP3    H150929   1.769   4.870  11.915 -0.0966  0.7582 -1.7601
 9838TIP3    H250930   1.817   4.796  11.793  1.7395 -0.8725 -0.0887
 9839TIP3   OH250931   0.298   3.846  13.160  0.2626 -0.1966  0.3975
 9839TIP3    H150932   0.261   3.835  13.072 -1.5088 -0.2572  1.1166
 9839TIP3    H250933   0.368   3.909  13.149  1.0627 -1.3492 -1.3267
 9840TIP3   OH250934   4.430   2.812  11.657  0.1312  0.3818  0.3771
 9840TIP3    H150935   4.344   2.775  11.678 -0.8058  3.1922  1.8019
 9840TIP3    H250936   4.492   2.759  11.707 -0.7401 -1.6659 -0.6530
 9841TIP3   OH250937   1.269   1.092   0.526 -0.5497  0.2870 -0.2134
 9841TIP3    H150938   1.311   1.096   0.440 -0.8325 -0.2432 -0.3748
 9841TIP3    H250939   1.281   1.002   0.554 -0.5528  0.4344  0.2593
 9842TIP3   OH250940   4.925   4.673   2.303 -0.0009  0.5663 -0.3453
 9842TIP3    H150941   4.918   4.595   2.247 -2.0366  0.5172 -0.0493
 9842TIP3    H250942   4.902   4.746   2.246  2.3248  1.0250 -0.7344
 9843TIP3   OH250943   4.497   6.489   3.098 -0.8575  0.5892 -0.4100
 9843TIP3    H150944   4.451   6.415   3.137  0.8611 -0.0360  0.4917
 9843TIP3    H250945   4.490   6.474   3.004 -1.4649 -0.1230 -0.2588
 9844TIP3   OH250946   1.831   4.498  16.384 -0.7458 -1.0095  0.1724
 9844TIP3    H150947   1.761   4.520  16.323  0.9066  0.7037 -1.1885
 9844TIP3    H250948   1.790   4.501  16.470 -2.1055  1.0839 -0.5195
 9845TIP3   OH250949   1.410   2.952  12.044 -0.1409 -0.0119 -1.1610
 9845TIP3    H150950   1.414   2.901  11.963 -2.0247  1.7401 -2.4196
 9845TIP3    H250951   1.358   3.029  12.021 -0.2613  0.7853  1.5886
 9846TIP3   OH250952   6.216   2.824   1.781  0.0048  0.1170 -0.1257
 9846TIP3    H150953   6.194   2.862   1.866  0.8249 -0.5740  0.4053
 9846TIP3    H250954   6.185   2.734   1.785  0.2167  0.0241 -0.4958
 9847TIP3   OH250955   0.977   4.311  16.112  0.2662  0.1864  0.3594
 9847TIP3    H150956   1.008   4.399  16.135  2.3209 -0.4331  0.0360
 9847TIP3    H250957   1.002   4.300  16.021 -0.9054 -0.3575  0.1023
 9848TIP3   OH250958   3.626   4.735   1.534 -0.6775  0.0972 -0.3252
 9848TIP3    H150959   3.678   4.688   1.469 -1.2862 -0.0214 -0.7307
 9848TIP3    H250960   3.596   4.814   1.488  0.8842  1.2211  0.5522
 9849TIP3   OH250961   4.400   5.966  16.678 -0.2205 -0.0099  0.0014
 9849TIP3    H150962   4.347   5.998  16.605  0.0644 -0.4024 -0.3808
 9849TIP3    H250963   4.458   5.901  16.639 -0.5637 -0.7533  0.7081
 9850TIP3   OH250964   4.248   1.749   3.632  0.1093  0.1271  0.4722
 9850TIP3    H150965   4.256   1.792   3.546 -3.4861  0.9866  0.4614
 9850TIP3    H250966   4.221   1.659   3.611 -0.8645  0.3648  0.6582
 9851TIP3   OH250967   2.998   3.258   4.703 -0.0943 -0.2888 -0.3399
 9851TIP3    H150968   2.948   3.306   4.769  4.1020  1.4991  1.7059
 9851TIP3    H250969   3.004   3.320   4.629 -1.2738 -0.7245 -0.8239
 9852TIP3   OH250970   5.280   2.261  12.534  0.1678  0.0774 -0.3876
 9852TIP3    H150971   5.362   2.295  12.571 -0.5964  1.3371  0.1819
 9852TIP3    H250972   5.281   2.168  12.555  0.6417  0.4230  1.1626
 9853TIP3   OH250973   6.660   5.750   4.359 -0.6780  0.2127  0.3611
 9853TIP3    H150974   6.620   5.735   4.273 -0.0925 -1.8032  0.3943
 9853TIP3    H250975   6.754   5.738   4.344 -0.6508 -1.0866  1.4431
 9854TIP3   OH250976   3.773   1.161   1.294  0.0160 -0.2468 -0.0797
 9854TIP3    H150977   3.844   1.218   1.326 -0.0026 -0.8093  1.0030
 9854TIP3    H250978   3.789   1.078   1.338  0.1531 -1.1495 -1.8039
 9855TIP3   OH250979   4.466   1.491   2.363  0.4141  0.1902 -0.5873
 9855TIP3    H150980   4.371   1.487   2.365  0.3316  2.2611  0.8291
 9855TIP3    H250981   4.486   1.577   2.326  1.7214  0.4027  0.5753
 9856TIP3   OH250982   1.714   5.688   3.020  0.1507 -0.2258  0.7420
 9856TIP3    H150983   1.735   5.596   3.033 -0.2044 -0.4169 -0.0076
 9856TIP3    H250984   1.774   5.735   3.078  0.7821 -0.9002  0.6368
 9857TIP3   OH250985   1.291   6.670   5.313  0.3331 -0.5501 -0.1114
 9857TIP3    H150986   1.343   6.703   5.387 -1.5760 -0.8162  1.3886
 9857TIP3    H250987   1.233   6.605   5.352 -0.8011 -0.6016 -1.8338
 9858TIP3   OH250988   2.581   3.123   4.193  0.1844 -0.4978 -0.1594
 9858TIP3    H150989   2.667   3.139   4.233 -0.7609  1.7764  1.0388
 9858TIP3    H250990   2.541   3.057   4.249  1.3230 -1.9655 -1.0262
 9859TIP3   OH250991   1.859   2.348  12.706  0.0515  0.3286 -0.7218
 9859TIP3    H150992   1.920   2.405  12.752 -0.3385 -0.1167  0.3584
 9859TIP3    H250993   1.819   2.404  12.639 -0.9634  1.5713  0.8819
 9860TIP3   OH250994   3.244   1.792   3.474  0.2583  0.2536  0.9174
 9860TIP3    H150995   3.245   1.705   3.514  1.9311  0.4475  1.3481
 9860TIP3    H250996   3.152   1.811   3.459 -0.2808 -0.5397  3.1383
 9861TIP3   OH250997   4.593   1.795  16.583  0.2926  0.1900 -0.1154
 9861TIP3    H150998   4.538   1.717  16.574 -0.3854  0.8380 -1.7292
 9861TIP3    H250999   4.635   1.804  16.497  0.6875  1.3706  0.1959
 9862TIP3   OH251000   6.254   3.495   1.034 -0.0297 -0.2669 -0.4375
 9862TIP3    H151001   6.333   3.443   1.049  0.7773  0.8135 -0.8300
 9862TIP3    H251002   6.285   3.571   0.985 -1.1314  0.7441  0.4132
 9863TIP3   OH251003   0.207   0.282  14.363 -0.4615 -0.0542 -0.0019
 9863TIP3    H151004   0.297   0.276  14.331 -0.3417  0.3262  0.2598
 9863TIP3    H251005   0.159   0.218  14.311  0.4204 -1.9891  1.4632
 9864TIP3   OH251006   3.489   5.404  16.218 -0.2660 -0.3537 -0.4874
 9864TIP3    H151007   3.537   5.343  16.162  0.0581  0.1207 -0.7232
 9864TIP3    H251008   3.555   5.440  16.277 -0.1161  1.0848 -1.5018
 9865TIP3   OH251009   0.374   1.844  15.985 -0.5360 -0.4027 -0.0793
 9865TIP3    H151010   0.462   1.866  15.954  0.0006 -1.8630  0.3580
 9865TIP3    H251011   0.386   1.766  16.039 -1.9748 -0.0410  0.7999
 9866TIP3   OH251012   2.919   3.434   1.721 -0.6047  0.6233 -0.0755
 9866TIP3    H151013   2.883   3.357   1.764  0.7101 -0.8780 -1.5886
 9866TIP3    H251014   2.956   3.487   1.792  2.2665 -2.1887  0.6473
 9867TIP3   OH251015   0.669   0.290   5.755 -0.1666  0.0291  0.1332
 9867TIP3    H151016   0.645   0.260   5.667  0.6370  0.8468 -0.3639
 9867TIP3    H251017   0.653   0.384   5.754 -1.8205 -0.2175  1.4220
 9868TIP3   OH251018   3.627   4.444  15.854  0.3697 -0.6835 -0.0507
 9868TIP3    H151019   3.703   4.423  15.908  1.5237 -0.1175 -1.4050
 9868TIP3    H251020   3.581   4.361  15.843  0.5718 -0.9570  1.1097
 9869TIP3   OH251021   4.482   3.727  14.820 -0.5057  0.0255  0.8341
 9869TIP3    H151022   4.470   3.633  14.817 -2.8742  0.2981  0.7334
 9869TIP3    H251023   4.490   3.754  14.728  0.2510 -0.0717  0.8673
 9870TIP3   OH251024   1.720   4.463  11.020  0.7953  0.4174 -0.3682
 9870TIP3    H151025   1.644   4.413  10.989  1.1434 -0.8847  0.8183
 9870TIP3    H251026   1.791   4.436  10.961  0.5495  0.9566 -0.9164
 9871TIP3   OH251027   1.553   2.823  14.093 -0.7592 -0.6490 -0.2079
 9871TIP3    H151028   1.568   2.857  14.182 -2.0498  0.2084 -0.2926
 9871TIP3    H251029   1.461   2.845  14.076 -0.3009 -0.1408 -2.0512
 9872TIP3   OH251030   0.670   4.260   1.222 -0.2170 -0.4772 -1.0483
 9872TIP3    H151031   0.661   4.190   1.287  1.3629  1.3799  1.2765
 9872TIP3    H251032   0.741   4.231   1.164  1.6323 -0.0951  0.9450
 9873TIP3   OH251033   4.269   3.747  13.117 -0.5779 -0.2163  0.3120
 9873TIP3    H151034   4.308   3.745  13.205 -2.2206 -0.6707  1.0441
 9873TIP3    H251035   4.234   3.659  13.105  1.4474 -0.7922 -1.6600
 9874TIP3   OH251036   1.882   4.300  14.392 -0.0626 -0.2194 -0.0466
 9874TIP3    H151037   1.883   4.338  14.305  1.2098  0.2396  0.1551
 9874TIP3    H251038   1.825   4.223  14.384 -0.7286  0.3728 -1.0316
 9875TIP3   OH251039   0.297   3.684  14.005  0.4512  0.3309 -0.4559
 9875TIP3    H151040   0.329   3.773  13.995  1.9401 -0.1967 -0.4647
 9875TIP3    H251041   0.236   3.672  13.933 -2.1294  2.3498  1.2634
 9876TIP3   OH251042   4.199   0.775  12.542 -0.3498  0.4770  0.0049
 9876TIP3    H151043   4.289   0.775  12.511 -0.3607 -2.4489 -0.2001
 9876TIP3    H251044   4.190   0.692  12.589 -3.7274 -0.7146 -2.4941
 9877TIP3   OH251045   3.979   0.613   0.761  0.3188  0.0721  0.6485
 9877TIP3    H151046   3.983   0.652   0.674  1.2984  2.5124  1.7340
 9877TIP3    H251047   3.890   0.576   0.767 -0.2086  1.0552 -0.8901
 9878TIP3   OH251048   3.345   4.255   3.393  0.0246  0.3707  0.1727
 9878TIP3    H151049   3.337   4.251   3.488  3.1617  0.4921  0.4883
 9878TIP3    H251050   3.372   4.346   3.376  0.2041  0.1436 -0.7609
 9879TIP3   OH251051   6.416   0.682  11.418 -0.8599 -0.0021 -0.2686
 9879TIP3    H151052   6.414   0.777  11.408 -0.6445 -0.0526 -0.8269
 9879TIP3    H251053   6.456   0.651  11.337 -0.6058 -0.5461  0.0632
 9880TIP3   OH251054   0.921   3.402  14.239 -0.1065  0.2253  0.3087
 9880TIP3    H151055   0.933   3.376  14.330 -0.8903  0.6295  0.5329
 9880TIP3    H251056   0.934   3.321  14.189  1.5079  0.2363  0.6712
 9881TIP3   OH251057   1.602   5.640  15.694  0.3698  0.0959 -0.4351
 9881TIP3    H151058   1.648   5.664  15.775  0.2251  0.0479 -0.3377
 9881TIP3    H251059   1.511   5.666  15.710  0.2440 -0.3730 -0.3886
 9882TIP3   OH251060   2.213   4.651  14.884 -0.4257 -0.3859 -0.1211
 9882TIP3    H151061   2.152   4.627  14.953  0.7069 -1.1313  0.6349
 9882TIP3    H251062   2.264   4.723  14.922 -0.7882  0.2100 -0.7376
 9883TIP3   OH251063   5.327   3.259   5.908  0.3706 -0.2363 -0.5073
 9883TIP3    H151064   5.275   3.266   5.827 -1.6850  0.4345  0.8420
 9883TIP3    H251065   5.311   3.341   5.954  0.4851 -1.1531  1.1975
 9884TIP3   OH251066   6.665   2.926  15.762 -0.4120 -0.5557  0.5415
 9884TIP3    H151067   6.708   2.985  15.700 -0.8826  1.3045  1.9257
 9884TIP3    H251068   6.736   2.872  15.797  0.0614 -0.6703 -0.5769
 9885TIP3   OH251069   0.453   2.059   1.834  0.9080 -0.1847  0.4122
 9885TIP3    H151070   0.391   2.010   1.887  0.3172  0.4076  0.2794
 9885TIP3    H251071   0.491   2.123   1.895 -0.3085  0.9898 -0.0170
 9886TIP3   OH251072   1.126   1.430   2.899  0.0056 -0.1556  0.4102
 9886TIP3    H151073   1.034   1.408   2.914 -0.1692  0.0243 -0.3899
 9886TIP3    H251074   1.147   1.392   2.814 -0.1911  2.3320 -0.8173
 9887TIP3   OH251075   1.538   6.637   4.162  0.4610 -0.7408  0.1660
 9887TIP3    H151076   1.519   6.568   4.098 -0.8594  0.0645 -0.3306
 9887TIP3    H251077   1.494   6.608   4.242 -3.1849  1.1955 -1.0253
 9888TIP3   OH251078   4.255   6.694  12.569  0.2893  0.7526 -0.1870
 9888TIP3    H151079   4.299   6.688  12.654  0.5458 -0.3925 -0.3920
 9888TIP3    H251080   4.311   6.643  12.510 -0.0768  1.2446 -0.9716
 9889TIP3   OH251081   6.745   1.293   2.700 -0.3671  0.0605  0.2839
 9889TIP3    H151082   6.714   1.347   2.627  1.7798  1.0109  0.0487
 9889TIP3    H251083   6.766   1.356   2.769 -2.2009 -0.8214  1.6819
 9890TIP3   OH251084   5.179   6.468  11.430 -0.5183 -0.0720  0.1433
 9890TIP3    H151085   5.098   6.495  11.387  0.2963  1.4463 -0.4641
 9890TIP3    H251086   5.176   6.372  11.429 -2.2571 -0.0252  0.0582
 9891TIP3   OH251087   4.272   5.489  10.247  0.7474 -0.1355 -0.6668
 9891TIP3    H151088   4.315   5.564  10.206 -0.8602  1.1772  0.0217
 9891TIP3    H251089   4.189   5.523  10.280  1.0008 -1.6730  1.6857
 9892TIP3   OH251090   4.539   3.627   5.000  0.2743 -0.1046 -0.1157
 9892TIP3    H151091   4.505   3.706   5.042  2.4728  0.4225  0.7346
 9892TIP3    H251092   4.492   3.555   5.044  1.5672  0.5109  2.3884
 9893TIP3   OH251093   0.862   2.239  16.744 -0.1110  0.1781 -0.2577
 9893TIP3    H151094   0.928   2.306  16.762  0.6979 -0.6238 -0.1958
 9893TIP3    H251095   0.810   2.234  16.825  0.9096 -0.4753  0.3734
 9894TIP3   OH251096   4.112   1.102  14.624  0.3158 -0.0730  0.6531
 9894TIP3    H151097   4.066   1.021  14.644  1.5155 -1.2915 -1.4043
 9894TIP3    H251098   4.043   1.162  14.594 -0.3112 -0.9651  0.3052
 9895TIP3   OH251099   0.812   2.773  11.196 -0.0410 -0.0695  0.5195
 9895TIP3    H151100   0.892   2.794  11.243  0.8595  1.7202 -1.7370
 9895TIP3    H251101   0.836   2.776  11.104 -2.2032 -1.6535 -0.1501
 9896TIP3   OH251102   0.013   4.542  10.733 -0.4679 -0.2504 -1.1771
 9896TIP3    H151103   0.063   4.514  10.810  1.0097 -1.7472 -2.6277
 9896TIP3    H251104  -0.050   4.606  10.767 -1.1464 -2.2877  1.5719
 9897TIP3   OH251105   0.301   3.341   0.628 -0.2987  0.1191 -0.7765
 9897TIP3    H151106   0.219   3.296   0.606 -0.8938  0.4346  0.7081
 9897TIP3    H251107   0.357   3.273   0.664 -0.4004  0.1550 -0.5502
 9898TIP3   OH251108   5.289   2.919   1.105 -0.8936  0.8009 -0.2474
 9898TIP3    H151109   5.196   2.934   1.093 -0.4960  1.0864 -3.4078
 9898TIP3    H251110   5.310   2.845   1.048  0.5799 -0.1486  1.4634
 9899TIP3   OH251111   5.492   0.880  13.288 -0.5225  0.4504  0.3527
 9899TIP3    H151112   5.399   0.896  13.269 -0.7708 -0.5311  0.6922
 9899TIP3    H251113   5.524   0.964  13.321 -1.7872  0.2763  2.1208
 9900TIP3   OH251114   2.961   2.640   4.030 -0.7515 -0.6717  0.0202
 9900TIP3    H151115   2.887   2.590   4.062 -1.4963 -0.1236 -0.8145
 9900TIP3    H251116   2.968   2.616   3.937 -2.1932  2.0398 -0.8361
 9901TIP3   OH251117   0.049   2.640   1.839  0.3439 -0.5924 -0.7275
 9901TIP3    H151118   0.065   2.719   1.787  2.4294 -1.1686 -1.0145
 9901TIP3    H251119   0.074   2.568   1.782 -2.1168 -1.5367 -0.6852
 9902TIP3   OH251120   1.144   0.331  13.719  0.5040 -0.4805 -0.2994
 9902TIP3    H151121   1.095   0.307  13.640 -1.8763  0.0139  0.9786
 9902TIP3    H251122   1.148   0.426  13.717 -2.7073 -0.2002  1.8979
 9903TIP3   OH251123   6.069   2.024   0.327 -0.4113  0.8311 -0.0231
 9903TIP3    H151124   6.010   2.086   0.285  0.1250  0.9531 -0.6064
 9903TIP3    H251125   6.149   2.074   0.344 -0.9883  1.0782  2.1334
 9904TIP3   OH251126   2.934   2.196   0.533 -0.0198  0.3879 -0.2943
 9904TIP3    H151127   2.962   2.147   0.610 -0.6819 -0.5953 -0.6729
 9904TIP3    H251128   2.995   2.170   0.464  0.2736  0.8931 -0.2235
 9905TIP3   OH251129   0.638   5.480  14.570 -0.0939  0.2158 -0.1368
 9905TIP3    H151130   0.591   5.453  14.492  1.8208 -2.7317 -0.3361
 9905TIP3    H251131   0.632   5.405  14.629  1.0908  1.2447  1.3300
 9906TIP3   OH251132   1.450   1.978  13.537  0.2833  0.6723 -0.4437
 9906TIP3    H151133   1.384   2.042  13.510 -2.0705 -0.9687  1.2105
 9906TIP3    H251134   1.516   2.030  13.582 -0.2897  2.2683 -1.4027
 9907TIP3   OH251135   1.572   2.796  12.884 -0.6713 -0.4917 -0.4314
 9907TIP3    H151136   1.515   2.798  12.807  0.7158 -0.3634 -1.4756
 9907TIP3    H251137   1.534   2.861  12.943 -1.4531 -0.2048 -1.2335
 9908TIP3   OH251138   5.549   6.347  16.964  0.4318 -0.8396 -0.2903
 9908TIP3    H151139   5.579   6.376  17.050  0.7830 -0.4600 -0.5422
 9908TIP3    H251140   5.615   6.284  16.935  1.3635  0.5194 -1.1452
 9909TIP3   OH251141   2.770   3.220   1.827  0.3856  0.2524 -0.0631
 9909TIP3    H151142   2.740   3.129   1.831  1.4930 -0.0631  3.2249
 9909TIP3    H251143   2.703   3.266   1.778 -0.4245 -2.2543 -1.3920
 9910TIP3   OH251144   5.735   4.686   2.854 -0.0429 -0.3154  0.0878
 9910TIP3    H151145   5.657   4.631   2.859  0.4499 -1.1367 -1.1307
 9910TIP3    H251146   5.780   4.671   2.936  0.2985 -2.0674 -0.3997
 9911TIP3   OH251147   2.000   0.253  14.738 -0.1450  0.0715  0.4115
 9911TIP3    H151148   1.918   0.231  14.695  0.4727 -1.1268 -0.1722
 9911TIP3    H251149   1.973   0.289  14.822 -1.2789 -0.2321  0.1938
 9912TIP3   OH251150   2.575   5.300  13.046 -0.0880 -0.7233  0.3164
 9912TIP3    H151151   2.657   5.275  13.088  0.0887 -1.8041 -0.6321
 9912TIP3    H251152   2.509   5.242  13.084 -0.1638 -0.7823  0.0999
 9913TIP3   OH251153   5.900   0.642  14.410 -0.8266 -0.1845  0.0099
 9913TIP3    H151154   5.855   0.582  14.351 -1.4988  0.7608 -0.4479
 9913TIP3    H251155   5.863   0.624  14.497 -1.4648 -0.0171 -0.2264
 9914TIP3   OH251156   2.698   3.467  12.299  0.2897 -0.1499 -0.8142
 9914TIP3    H151157   2.731   3.378  12.311  0.2617 -0.0683 -0.1052
 9914TIP3    H251158   2.706   3.483  12.205  0.0475 -0.9915 -0.9776
 9915TIP3   OH251159   3.495   5.691  14.979  0.3927 -0.0106 -0.5945
 9915TIP3    H151160   3.437   5.746  15.032 -0.1580 -0.1712 -1.0246
 9915TIP3    H251161   3.437   5.650  14.915  0.8852 -0.6637 -0.6304
 9916TIP3   OH251162   5.495   0.476  15.245 -0.1178 -0.0376 -0.3986
 9916TIP3    H151163   5.431   0.459  15.314  1.1479 -1.1111  0.5554
 9916TIP3    H251164   5.568   0.416  15.265  0.3193 -0.2908 -2.5953
 9917TIP3   OH251165   6.172   1.522  16.292  0.3472  1.2542 -0.5634
 9917TIP3    H151166   6.092   1.546  16.338 -0.8344  1.3793 -2.6472
 9917TIP3    H251167   6.202   1.442  16.336 -1.1456  0.9593 -0.0768
 9918TIP3   OH251168   5.784   1.968  14.780  0.0024  0.4119  0.6218
 9918TIP3    H151169   5.777   1.904  14.710 -1.1878 -0.5240  1.5619
 9918TIP3    H251170   5.720   2.035  14.759  0.1936  0.5267  0.4091
 9919TIP3   OH251171   6.196   3.031  15.162  0.3301  0.5990 -0.0266
 9919TIP3    H151172   6.183   2.943  15.127 -0.2155  0.8538 -0.4778
 9919TIP3    H251173   6.125   3.042  15.226 -1.0897  1.6017 -1.7311
 9920TIP3   OH251174   3.375   5.965  14.851  0.0035  0.4707 -0.1037
 9920TIP3    H151175   3.324   5.919  14.919  0.0248  1.6155  0.7038
 9920TIP3    H251176   3.446   6.007  14.899  1.3624 -0.5944 -1.1519
 9921TIP3   OH251177   1.800   5.777  12.874  0.6048  0.4537  0.2909
 9921TIP3    H151178   1.713   5.816  12.885 -0.4257 -1.2592 -1.3732
 9921TIP3    H251179   1.857   5.851  12.854 -0.8869  1.3931 -0.6144
 9922TIP3   OH251180   3.432   3.700  14.239 -0.1144  0.0409 -0.0405
 9922TIP3    H151181   3.480   3.776  14.205  2.2929 -1.2327  0.4196
 9922TIP3    H251182   3.497   3.648  14.285 -1.1281 -3.5943 -2.4334
 9923TIP3   OH251183   2.521   2.566  15.988  0.1518 -0.5051  0.4498
 9923TIP3    H151184   2.512   2.660  15.975 -1.1250 -0.7400 -0.4370
 9923TIP3    H251185   2.569   2.536  15.911  0.3652 -0.6124  0.6240
 9924TIP3   OH251186   2.959   6.434  12.809  0.5776  0.3944  0.2376
 9924TIP3    H151187   3.023   6.505  12.800  1.5229 -0.0829  2.7495
 9924TIP3    H251188   2.884   6.476  12.852 -0.9189  0.9812 -2.8052
 9925TIP3   OH251189   1.639   2.673   0.053 -0.0131 -0.0047  0.1042
 9925TIP3    H151190   1.553   2.635   0.036  1.0154 -1.0482 -3.1649
 9925TIP3    H251191   1.699   2.598   0.052  1.2718  1.0139 -0.2117
 9926TIP3   OH251192   4.972   2.618  12.751  0.2286 -0.5759 -0.4975
 9926TIP3    H151193   4.933   2.633  12.837 -0.9907 -1.0604 -0.9553
 9926TIP3    H251194   5.066   2.627  12.765  0.0020 -0.1381  0.7790
 9927TIP3   OH251195   2.646   6.014  13.226 -0.0034  0.0206  0.0595
 9927TIP3    H151196   2.717   6.020  13.290 -0.3014  1.8790  0.2456
 9927TIP3    H251197   2.596   5.937  13.253  1.3835 -0.7351  0.5073
 9928TIP3   OH251198   0.099   2.128   4.734 -0.1856 -0.3436  1.0992
 9928TIP3    H151199   0.190   2.104   4.749  0.0927  1.3379  2.3252
 9928TIP3    H251200   0.100   2.224   4.730 -1.3137 -0.3982 -2.9821
 9929TIP3   OH251201   4.387   2.467  10.941  0.0239 -0.4709  0.3896
 9929TIP3    H151202   4.430   2.405  10.999  0.6734  0.6171  1.0869
 9929TIP3    H251203   4.402   2.552  10.981 -2.4038 -0.0136  0.4079
 9930TIP3   OH251204   1.140   4.114   5.368  0.3470  0.1880 -0.0068
 9930TIP3    H151205   1.175   4.156   5.448 -1.9039 -1.7429  2.0682
 9930TIP3    H251206   1.195   4.037   5.357  0.6004  0.4066 -0.2719
 9931TIP3   OH251207   5.435   1.086  11.059 -0.1507 -0.0268  0.2072
 9931TIP3    H151208   5.475   1.173  11.072 -0.0202 -0.0222 -0.2238
 9931TIP3    H251209   5.402   1.062  11.146 -0.4726  0.5947  0.2612
 9932TIP3   OH251210   0.982   3.623   1.427  0.0292  0.5885  0.0206
 9932TIP3    H151211   0.952   3.579   1.507 -1.5594  1.0459 -0.3069
 9932TIP3    H251212   1.078   3.620   1.433 -0.0646 -0.6026  1.2610
 9933TIP3   OH251213   5.007   4.698   4.523 -0.0484  0.8237  0.9628
 9933TIP3    H151214   5.029   4.700   4.430  0.3484  1.0015  1.0619
 9933TIP3    H251215   4.972   4.785   4.542 -2.0594  0.1585  0.5144
 9934TIP3   OH251216   4.693   2.955   5.902 -0.2762 -0.2369  0.3561
 9934TIP3    H151217   4.726   2.890   5.963  0.0859 -1.2088 -0.8515
 9934TIP3    H251218   4.606   2.977   5.934 -0.1571 -0.8657  1.1081
 9935TIP3   OH251219   5.881   3.960   2.327  0.0536 -0.0693  0.3338
 9935TIP3    H151220   5.967   3.944   2.289 -0.5527  0.1174 -1.1809
 9935TIP3    H251221   5.865   3.886   2.385  1.1981 -0.1363  0.5710
 9936TIP3   OH251222   2.541   4.539  10.918  0.7961 -0.4415 -0.0149
 9936TIP3    H151223   2.598   4.489  10.978  1.1823  0.4599  0.3897
 9936TIP3    H251224   2.575   4.628  10.923  0.0034 -0.1049 -0.5967
 9937TIP3   OH251225   4.519   0.255   6.413  0.6015  0.0600 -1.2805
 9937TIP3    H151226   4.442   0.281   6.363  0.8599  2.0169 -0.7085
 9937TIP3    H251227   4.588   0.314   6.383  1.5088 -0.7148 -0.7360
 9938TIP3   OH251228   0.225   3.265  10.973  0.1298 -0.3603  0.1244
 9938TIP3    H151229   0.242   3.291  10.882  1.4547 -0.3776  0.3661
 9938TIP3    H251230   0.156   3.324  11.002 -0.0502 -0.1192 -0.7813
 9939TIP3   OH251231   0.533   2.357  11.039 -0.0833 -0.2651  0.0531
 9939TIP3    H151232   0.619   2.337  11.001 -0.6135  1.1533 -1.9653
 9939TIP3    H251233   0.471   2.337  10.969 -1.2330  0.7247  0.7861
 9940TIP3   OH251234   3.290   2.318  13.301  0.2867 -0.5528  0.3050
 9940TIP3    H151235   3.219   2.294  13.241  0.9025  0.2457 -0.7437
 9940TIP3    H251236   3.348   2.241  13.300  0.1834 -0.6302  0.0415
 9941TIP3   OH251237   5.680   2.416   0.788 -0.8314 -0.3268 -0.6865
 9941TIP3    H151238   5.770   2.446   0.774 -1.4095  2.1836  0.7833
 9941TIP3    H251239   5.680   2.326   0.754  1.9943 -0.0848 -1.4938
 9942TIP3   OH251240   1.004   4.106   5.634  0.0039  0.8348  0.6689
 9942TIP3    H151241   0.945   4.102   5.709  1.5953 -0.1336  1.9019
 9942TIP3    H251242   1.092   4.099   5.672  0.8518  0.6766 -1.2563
 9943TIP3   OH251243   1.057   6.479  13.160 -0.6798  0.1035  0.4293
 9943TIP3    H151244   0.981   6.443  13.204 -2.3026  2.0946 -0.6561
 9943TIP3    H251245   1.039   6.573  13.153  1.5831  0.5203 -0.3957
 9944TIP3   OH251246   3.261   0.822   5.851  0.5202  0.1656  0.0195
 9944TIP3    H151247   3.315   0.899   5.869  1.3042 -0.1782 -0.8182
 9944TIP3    H251248   3.323   0.757   5.819 -0.5755  0.1548 -2.1219
 9945TIP3   OH251249   5.325   3.403  16.826 -0.0561  0.2230 -0.4222
 9945TIP3    H151250   5.253   3.454  16.789  0.6085  0.6742 -1.1103
 9945TIP3    H251251   5.402   3.458  16.814  0.1643  0.4366  1.7828
 9946TIP3   OH251252   6.596   0.111  13.375 -0.3071  0.1836  0.3207
 9946TIP3    H151253   6.518   0.149  13.415  0.3181  1.2086  0.6004
 9946TIP3    H251254   6.615   0.033  13.427 -0.8442  0.2215  0.5722
 9947TIP3   OH251255   2.932   0.431  14.560 -0.5939 -0.1207  0.0506
 9947TIP3    H151256   2.941   0.338  14.541  1.3490 -0.5943  3.0396
 9947TIP3    H251257   2.933   0.473  14.474  0.6415 -2.6653 -1.2250
 9948TIP3   OH251258   4.896   3.700   1.605 -0.6759  0.2823  0.1232
 9948TIP3    H151259   4.852   3.752   1.538 -0.0989 -0.6620 -1.0022
 9948TIP3    H251260   4.983   3.683   1.570  0.3205  1.4248  1.9685
 9949TIP3   OH251261   1.108   5.842  14.812 -0.8554 -0.2081 -0.3207
 9949TIP3    H151262   1.080   5.822  14.723 -0.8792  0.4201 -0.4552
 9949TIP3    H251263   1.071   5.929  14.831  0.3570  0.3028 -0.2296
 9950TIP3   OH251264   6.473   1.168  13.547 -0.2711  0.1722 -0.0165
 9950TIP3    H151265   6.381   1.187  13.527 -0.2101  0.5373  0.0410
 9950TIP3    H251266   6.512   1.254  13.560  0.1032  0.0191 -0.1414
 9951TIP3   OH251267   1.186   2.177  14.730 -0.5431  0.1716  0.1820
 9951TIP3    H151268   1.129   2.156  14.804 -1.3235 -1.0964 -0.7436
 9951TIP3    H251269   1.226   2.094  14.707 -0.7274  0.4452 -1.1496
 9952TIP3   OH251270   2.154   5.231   5.114  0.4974 -0.0110  0.0340
 9952TIP3    H151271   2.115   5.144   5.126  1.4728 -0.3119  1.1892
 9952TIP3    H251272   2.179   5.233   5.021  0.3296 -0.9079 -0.0386
 9953TIP3   OH251273   2.554   4.473  14.552 -0.1688  0.1181 -0.2283
 9953TIP3    H151274   2.531   4.565  14.542 -2.2708 -0.5215 -1.4435
 9953TIP3    H251275   2.471   4.426  14.549  0.6311 -1.6686  2.7884
 9954TIP3   OH251276   4.942   6.454   0.448  0.6559  0.3295  0.2264
 9954TIP3    H151277   4.985   6.427   0.529  1.4992  0.0643 -0.3148
 9954TIP3    H251278   4.901   6.537   0.470 -0.5541 -0.5538  1.4208
 9955TIP3   OH251279   2.603   6.620   2.798 -0.6221 -0.1434 -0.2430
 9955TIP3    H151280   2.604   6.646   2.890 -0.1194 -2.3155  0.4162
 9955TIP3    H251281   2.514   6.636   2.769 -1.3946 -1.4944  1.2775
 9956TIP3   OH251282   2.126   0.914  17.071 -0.3358  0.3060  0.6295
 9956TIP3    H151283   2.031   0.917  17.074 -0.3801 -0.0497 -0.1938
 9956TIP3    H251284   2.150   0.977  17.003 -0.0672 -0.7167 -0.2340
 9957TIP3   OH251285   2.293   2.572   6.010 -0.6637  0.0568 -0.0291
 9957TIP3    H151286   2.274   2.599   6.100  1.3840 -1.1713  0.8210
 9957TIP3    H251287   2.289   2.476   6.013  0.5658 -0.0309 -0.9561
 9958TIP3   OH251288   4.990   0.515  16.208 -0.3164  0.1426 -0.5848
 9958TIP3    H151289   5.075   0.477  16.190  0.0868  0.2486  1.0735
 9958TIP3    H251290   4.932   0.440  16.221 -0.3986  0.0766 -1.2916
 9959TIP3   OH251291   1.199   6.201  13.882 -0.5468  0.8875  0.0355
 9959TIP3    H151292   1.219   6.236  13.968 -2.6558 -0.1643  0.9920
 9959TIP3    H251293   1.132   6.261  13.847  0.7003  1.6354 -1.1156
 9960TIP3   OH251294   1.473   3.232   5.606  0.4246  0.0622 -0.0717
 9960TIP3    H151295   1.472   3.204   5.698 -0.2461  0.0289 -0.0900
 9960TIP3    H251296   1.559   3.274   5.595  0.3626  0.3887  0.6639
 9961TIP3   OH251297   4.581   1.707  15.116 -0.1722 -0.2342  0.0086
 9961TIP3    H151298   4.577   1.745  15.204 -0.4738  1.1616 -0.5935
 9961TIP3    H251299   4.494   1.723  15.079 -0.0873 -0.9311 -0.4932
 9962TIP3   OH251300   2.963   6.311   0.771  0.3263 -0.0844  0.3098
 9962TIP3    H151301   2.907   6.321   0.848  0.5861  0.9355  0.3778
 9962TIP3    H251302   3.037   6.370   0.788 -0.0188  0.7608 -1.0782
 9963TIP3   OH251303   2.853   0.934  16.697 -0.9124 -0.1713 -0.2287
 9963TIP3    H151304   2.902   0.993  16.641  1.4163  0.0437  1.9648
 9963TIP3    H251305   2.894   0.849  16.684 -0.2762 -0.0974  1.2199
 9964TIP3   OH251306   3.596   4.240   2.057 -0.3036  0.1777  0.0685
 9964TIP3    H151307   3.679   4.194   2.067  0.2572  0.9633 -0.7558
 9964TIP3    H251308   3.618   4.332   2.073 -0.6738  0.6009 -1.7205
 9965TIP3   OH251309   1.441   0.521   0.262 -0.0397  0.0732  0.5028
 9965TIP3    H151310   1.507   0.507   0.195  0.8883  0.4691  1.3125
 9965TIP3    H251311   1.443   0.441   0.315  0.2394  0.3346  0.8954
 9966TIP3   OH251312   2.108   3.085   4.263  0.4973 -0.0730 -0.2104
 9966TIP3    H151313   2.159   3.019   4.216  1.0705  0.3832 -0.2344
 9966TIP3    H251314   2.174   3.145   4.299 -0.0607  1.0539 -1.0404
 9967TIP3   OH251315   1.129   5.007   1.151 -0.0232 -0.0995  0.2486
 9967TIP3    H151316   1.116   5.016   1.056 -0.0021 -0.3604  0.2209
 9967TIP3    H251317   1.100   5.091   1.187 -2.1579 -0.8135  0.2374
 9968TIP3   OH251318   4.532   0.024  12.569  0.1366 -0.2223 -0.2988
 9968TIP3    H151319   4.510  -0.057  12.524  0.5200 -0.9223  0.7734
 9968TIP3    H251320   4.544  -0.001  12.661 -3.4660  1.6269  0.7772
 9969TIP3   OH251321   1.065   2.990  17.104  0.5559  0.0352  0.2097
 9969TIP3    H151322   1.119   2.934  17.159 -2.2783 -0.8281  2.2249
 9969TIP3    H251323   1.004   2.930  17.061  0.5819  1.0842 -1.3585
 9970TIP3   OH251324   5.604   1.578   2.724  0.4894  0.0752  0.0341
 9970TIP3    H151325   5.651   1.611   2.647 -0.2449  1.5656  0.2077
 9970TIP3    H251326   5.671   1.575   2.792  0.9420 -0.3900 -0.4252
 9971TIP3   OH251327   5.417   4.259  16.005  0.1974  0.0752 -0.5195
 9971TIP3    H151328   5.424   4.222  16.093  2.4199  0.1052 -0.6491
 9971TIP3    H251329   5.399   4.352  16.019  4.7253  0.9989  0.0893
 9972TIP3   OH251330   3.628   4.967   5.438 -0.0100 -0.0270 -0.3350
 9972TIP3    H151331   3.558   4.912   5.473 -0.5333  0.2926 -0.8565
 9972TIP3    H251332   3.614   5.052   5.479  0.1080  0.0174 -0.3865
 9973TIP3   OH251333   2.759   2.532  11.204  0.5171 -0.6739 -0.2441
 9973TIP3    H151334   2.668   2.528  11.232  0.8221 -2.1463  0.6295
 9973TIP3    H251335   2.774   2.449  11.158  1.6437 -0.8329  0.3832
 9974TIP3   OH251336   0.740   4.967   3.578 -0.6999 -0.1533  0.7491
 9974TIP3    H151337   0.774   4.947   3.490 -0.6312 -2.2551  1.2102
 9974TIP3    H251338   0.651   4.932   3.577 -0.9978  0.5995  1.2335
 9975TIP3   OH251339   4.522   0.997  12.731 -0.0140 -0.5787  0.8027
 9975TIP3    H151340   4.600   0.995  12.676 -0.3438  1.2001  0.2118
 9975TIP3    H251341   4.453   1.030  12.673 -0.8468 -0.6569  1.7276
 9976TIP3   OH251342   5.852   3.232  16.584 -0.2095 -0.2953 -0.1675
 9976TIP3    H151343   5.918   3.296  16.560 -0.3731  0.1579  0.6039
 9976TIP3    H251344   5.816   3.263  16.666 -0.3846 -1.3048  0.1448
 9977TIP3   OH251345   5.999   3.529   6.587 -0.9134  0.8068 -0.0944
 9977TIP3    H151346   6.091   3.516   6.562 -0.7464 -1.2162  1.4818
 9977TIP3    H251347   5.997   3.617   6.623  0.0071  1.5981 -1.8944
 9978TIP3   OH251348   4.261   4.092   1.064 -0.6419 -0.0754 -0.1234
 9978TIP3    H151349   4.179   4.079   1.017 -0.2199 -0.0489 -0.8731
 9978TIP3    H251350   4.329   4.072   1.000 -0.0614 -0.3504  0.5651
 9979TIP3   OH251351   2.970   4.702   6.604  0.4963 -0.1404 -0.2072
 9979TIP3    H151352   2.896   4.642   6.609 -0.0459  0.6051  0.9216
 9979TIP3    H251353   3.046   4.649   6.627  0.1699 -0.6511 -0.3074
 9980TIP3   OH251354   5.061   3.143   3.628 -0.5459 -0.0177  0.5658
 9980TIP3    H151355   5.108   3.185   3.556 -0.1378 -1.6908 -0.1889
 9980TIP3    H251356   5.076   3.049   3.614  1.2866 -0.2934  4.0286
 9981TIP3   OH251357   2.251   1.633  15.051  0.4304 -0.0961  0.2403
 9981TIP3    H151358   2.289   1.581  14.980  0.6659 -0.3190  0.5331
 9981TIP3    H251359   2.311   1.623  15.124 -0.8237 -1.4813  1.1115
 9982TIP3   OH251360   5.785   3.026  16.408  0.6393 -0.2135  0.8583
 9982TIP3    H151361   5.835   3.086  16.462  2.7743  0.1147 -1.3958
 9982TIP3    H251362   5.743   3.083  16.342 -1.9643 -0.5927  2.1126
 9983TIP3   OH251363   1.669   1.543  15.620  0.1068  0.5742 -0.2533
 9983TIP3    H151364   1.652   1.614  15.558 -0.4114  0.0198 -0.7512
 9983TIP3    H251365   1.587   1.531  15.666  0.6223  1.2970  0.8807
 9984TIP3   OH251366   2.198   1.675  13.697 -0.6366 -0.2990  0.1041
 9984TIP3    H151367   2.148   1.731  13.756  1.6467 -0.1525  1.9517
 9984TIP3    H251368   2.204   1.591  13.743  0.5912 -0.3856 -0.1919
 9985TIP3   OH251369   4.805   5.186  11.927  0.2083  0.0274  0.5165
 9985TIP3    H151370   4.718   5.225  11.925  0.2079  0.0917  1.5008
 9985TIP3    H251371   4.822   5.161  11.837 -0.7793  0.1299  0.2964
 9986TIP3   OH251372   6.148   6.148  14.371  0.5565  0.0385 -0.4346
 9986TIP3    H151373   6.210   6.080  14.398  0.1339 -0.7254 -1.3593
 9986TIP3    H251374   6.070   6.100  14.343 -0.4071  0.9809  0.5706
 9987TIP3   OH251375   5.372   5.088   2.524  0.1264 -0.0282 -0.1331
 9987TIP3    H151376   5.397   4.996   2.533  1.7316  0.5231  1.2252
 9987TIP3    H251377   5.397   5.111   2.435  3.5584  0.1993  0.8418
 9988TIP3   OH251378   4.828   5.816   4.794 -0.1469  0.2187 -0.2636
 9988TIP3    H151379   4.873   5.784   4.872  0.9263  1.9807 -0.1140
 9988TIP3    H251380   4.772   5.887   4.826  1.0708  1.6384 -1.2054
 9989TIP3   OH251381   6.468   2.209  11.410  0.2169  0.1828  0.0512
 9989TIP3    H151382   6.482   2.197  11.316  3.5992  0.3174  0.4725
 9989TIP3    H251383   6.410   2.285  11.415  2.3663  2.0772 -1.9276
 9990TIP3   OH251384   1.463   5.986  15.125  0.3133  0.8501  0.0724
 9990TIP3    H151385   1.396   5.932  15.083 -0.8895  1.1951  1.5115
 9990TIP3    H251386   1.544   5.964  15.078 -0.3994 -1.1979 -0.2632
 9991TIP3   OH251387   2.919   2.437  12.664 -0.3179 -0.4074 -0.1413
 9991TIP3    H151388   2.874   2.359  12.632  0.3322 -0.7192 -0.3065
 9991TIP3    H251389   2.952   2.479  12.585 -0.4071 -0.1262 -0.0293
 9992TIP3   OH251390   3.668   0.693  11.504  0.2213 -0.0172  0.1043
 9992TIP3    H151391   3.740   0.645  11.463 -0.4555 -1.0231  0.0870
 9992TIP3    H251392   3.708   0.739  11.578  1.1682  0.6332 -0.8011
 9993TIP3   OH251393   4.189   4.140   4.619  0.2490  0.0841  0.0912
 9993TIP3    H151394   4.169   4.186   4.537 -0.6478 -1.5549 -0.6331
 9993TIP3    H251395   4.270   4.180   4.650  1.0315  0.1746 -2.0137
 9994TIP3   OH251396   1.141   6.216   1.873 -0.3872  0.0094  0.1323
 9994TIP3    H151397   1.051   6.183   1.869  0.1614 -1.5728  0.4486
 9994TIP3    H251398   1.137   6.302   1.831 -2.1848  0.2582  0.7713
 9995TIP3   OH251399   1.251   5.075  15.458 -0.1715 -0.1900  0.4976
 9995TIP3    H151400   1.242   5.170  15.463  0.4650 -0.0222 -1.1967
 9995TIP3    H251401   1.275   5.058  15.367 -0.5684 -2.0035  0.7188
 9996TIP3   OH251402   1.418   2.224   5.735  0.4961  0.2995  0.6036
 9996TIP3    H151403   1.335   2.243   5.779 -0.3258 -1.2495 -0.2288
 9996TIP3    H251404   1.477   2.196   5.805  0.0090  0.4522  1.0734
 9997TIP3   OH251405   5.216   5.790  11.078  0.2951  0.3177  0.7369
 9997TIP3    H151406   5.179   5.763  11.163  2.6247 -0.9500  1.4013
 9997TIP3    H251407   5.195   5.883  11.071 -0.9746  0.1616  2.1460
 9998TIP3   OH251408   3.367   4.685   3.493 -0.3677  0.1685  0.7435
 9998TIP3    H151409   3.368   4.681   3.589  2.2103 -1.9415  0.6522
 9998TIP3    H251410   3.293   4.630   3.468  1.2273 -2.3169  1.4135
 9999TIP3   OH251411   5.563   4.458   0.800 -0.1044  0.0903  0.3188
 9999TIP3    H151412   5.639   4.442   0.856  0.3197  3.1326  0.7110
 9999TIP3    H251413   5.597   4.448   0.711  0.6415  0.8806  0.5023
10000TIP3   OH251414   6.003   5.298  12.312  0.2378 -0.1642  0.0441
10000TIP3    H151415   6.076   5.306  12.250 -0.8313 -0.4155 -1.2696
10000TIP3    H251416   5.967   5.211  12.296 -0.4456  0.0182  0.5868
10001TIP3   OH251417   0.821   4.156   5.124 -0.0254 -0.0636  0.3231
10001TIP3    H151418   0.914   4.163   5.101 -0.0060  0.0278  0.4262
10001TIP3    H251419   0.816   4.193   5.213  0.1758 -1.9879  1.1562
10002TIP3   OH251420   3.149   1.770  15.225 -0.0313  0.0870  0.5112
10002TIP3    H151421   3.179   1.680  15.235  0.6051  0.2753  0.3724
10002TIP3    H251422   3.199   1.819  15.291  0.0599  0.4322  0.1907
10003TIP3   OH251423   5.974   4.144  10.549 -0.0999 -0.7535  0.3633
10003TIP3    H151424   6.070   4.144  10.550 -0.0773  0.6039  3.0913
10003TIP3    H251425   5.949   4.142  10.642 -2.6473  4.1346 -0.0754
10004TIP3   OH251426   5.928   2.812  10.870 -0.2132  0.8083 -0.4340
10004TIP3    H151427   6.011   2.820  10.825  0.3788 -0.0979  0.4581
10004TIP3    H251428   5.894   2.727  10.843 -0.0939  0.4841  0.4046
10005TIP3   OH251429   5.436   5.693   5.298  0.3262  0.8594  0.6109
10005TIP3    H151430   5.402   5.781   5.282 -1.4235  0.1221  0.1068
10005TIP3    H251431   5.381   5.658   5.368  0.5885 -0.0657  0.3614
10006TIP3   OH251432   5.688   4.371   3.978  0.4671 -0.2439  0.0980
10006TIP3    H151433   5.746   4.296   3.962  0.7991 -0.4219  2.0361
10006TIP3    H251434   5.717   4.407   4.062 -0.0151  1.7728 -0.5668
10007TIP3   OH251435   2.567   5.305   3.122 -0.5492  0.3144 -0.1656
10007TIP3    H151436   2.541   5.279   3.034  0.9652 -1.2637 -0.1840
10007TIP3    H251437   2.611   5.389   3.110 -2.0274  1.0426 -0.6430
10008TIP3   OH251438   1.636   4.536   6.425 -0.0841  0.3068 -0.2181
10008TIP3    H151439   1.590   4.452   6.416 -0.0049  0.2737 -0.3157
10008TIP3    H251440   1.712   4.515   6.478  0.1627  0.2309 -0.6002
10009TIP3   OH251441   2.020   3.652  16.084  0.0392 -0.5276  0.0460
10009TIP3    H151442   2.083   3.659  16.013  0.1489  0.7020  0.2386
10009TIP3    H251443   2.074   3.644  16.163 -0.0562 -0.3587  0.1292
10010TIP3   OH251444   0.220   6.199  15.547 -0.3021 -0.4130 -0.1528
10010TIP3    H151445   0.268   6.151  15.614  0.7525 -0.6918 -1.0954
10010TIP3    H251446   0.137   6.151  15.538 -0.5737 -0.1954  1.1568
10011TIP3   OH251447   5.276   6.329   3.434  0.1170 -0.8304 -0.0630
10011TIP3    H151448   5.359   6.372   3.450 -1.1917  2.5585 -1.8747
10011TIP3    H251449   5.232   6.329   3.519 -0.0491  1.9160 -0.1210
10012TIP3   OH251450   4.571   5.294  15.670  0.0594 -0.3730  0.1148
10012TIP3    H151451   4.591   5.203  15.649 -0.6206 -0.6038  0.4688
10012TIP3    H251452   4.627   5.345  15.611 -1.0438 -1.0150 -1.5316
10013TIP3   OH251453   1.961   0.413  11.757  0.1274  0.7263  0.4550
10013TIP3    H151454   1.932   0.322  11.759 -0.9214  1.0386 -0.3930
10013TIP3    H251455   2.004   0.423  11.672  1.3934  0.6876  1.0685
10014TIP3   OH251456   0.660   2.932  14.474  0.3328  0.4869  0.0885
10014TIP3    H151457   0.713   3.012  14.473 -0.3731  0.9575  0.0642
10014TIP3    H251458   0.603   2.939  14.398  0.3845 -0.1213 -0.0102
10015TIP3   OH251459   3.267   0.582  14.577 -0.1927 -0.4009 -0.1916
10015TIP3    H151460   3.308   0.518  14.519  0.5916  0.2962 -0.4082
10015TIP3    H251461   3.255   0.660  14.523 -3.3665 -1.0986 -0.6379
10016TIP3   OH251462   6.464   0.130   5.391  0.1613 -0.0261  0.0358
10016TIP3    H151463   6.491   0.051   5.439  0.1042  0.7242  1.3336
10016TIP3    H251464   6.378   0.108   5.357  0.0213 -0.4345  0.6309
10017TIP3   OH251465   1.203   1.122   3.228 -0.3441  0.3023  0.2586
10017TIP3    H151466   1.220   1.076   3.146  1.2092  1.9995 -0.4065
10017TIP3    H251467   1.181   1.212   3.201  0.2132  0.8811  1.6806
10018TIP3   OH251468   0.937   2.845   6.638 -0.0698  0.2854  0.1802
10018TIP3    H151469   0.847   2.823   6.614  0.5427 -0.9787 -0.9804
10018TIP3    H251470   0.934   2.939   6.657 -1.4166  0.4701 -0.8631
10019TIP3   OH251471   2.566   4.308   2.302 -0.2373  0.0059 -0.1919
10019TIP3    H151472   2.615   4.302   2.384  1.0722 -0.3832 -0.9823
10019TIP3    H251473   2.610   4.378   2.254 -1.4583  0.7300 -0.2682
10020TIP3   OH251474   3.963   2.738  10.892 -0.2448  0.1893 -0.4680
10020TIP3    H151475   3.940   2.647  10.876  0.0515  0.2308 -1.1715
10020TIP3    H251476   4.055   2.735  10.918 -0.1531  0.3044 -0.7656
10021TIP3   OH251477   3.037   0.759  16.608  0.0079  0.7663  0.9381
10021TIP3    H151478   3.111   0.800  16.564 -0.2219 -0.9394 -1.0736
10021TIP3    H251479   3.073   0.722  16.688  1.6153 -1.2977 -0.7223
10022TIP3   OH251480   0.099   2.410   4.715 -0.4868  0.5053  0.6742
10022TIP3    H151481   0.103   2.405   4.620 -1.0427  0.0497  0.6713
10022TIP3    H251482   0.150   2.487   4.738 -0.3334  0.5976  0.0064
10023TIP3   OH251483   6.059   5.637  13.665 -0.1394 -0.4042 -0.0858
10023TIP3    H151484   6.125   5.571  13.687  0.0334  0.1627  1.1271
10023TIP3    H251485   6.109   5.714  13.641 -0.3593 -0.1513  0.2689
10024TIP3   OH251486   5.171   0.061  11.791 -0.2893  0.1289  0.4748
10024TIP3    H151487   5.160  -0.012  11.851 -2.3119  1.3042  1.5891
10024TIP3    H251488   5.118   0.038  11.715 -0.3886  0.1440  0.5397
10025TIP3   OH251489   1.946   1.398  13.836 -0.0480  0.3862 -0.1404
10025TIP3    H151490   2.023   1.415  13.889 -0.9507 -0.4236  1.4648
10025TIP3    H251491   1.934   1.478  13.784  1.2402  0.9216  0.3764
10026TIP3   OH251492   1.538   1.765   5.612 -0.1637  0.0347 -0.0009
10026TIP3    H151493   1.621   1.799   5.645  0.0398 -0.3126 -0.1609
10026TIP3    H251494   1.490   1.844   5.585 -0.1419  0.2847  0.6753
10027TIP3   OH251495   2.786   0.666  13.806 -0.2472  0.2133  0.3944
10027TIP3    H151496   2.797   0.571  13.798  0.1405  0.2911 -0.0556
10027TIP3    H251497   2.852   0.702  13.747 -1.2713  0.7471 -0.4368
10028TIP3   OH251498   0.841   4.157   3.134  0.4899 -0.0587  0.1571
10028TIP3    H151499   0.841   4.089   3.201  1.2419 -0.9288 -0.7078
10028TIP3    H251500   0.917   4.136   3.079  0.3213  1.0784 -0.5162
10029TIP3   OH251501   2.234   6.005  13.670 -0.3575 -0.3299 -0.3741
10029TIP3    H151502   2.322   5.974  13.646 -1.2866 -1.9894 -1.6876
10029TIP3    H251503   2.190   6.019  13.587 -0.9912  1.6269  0.2579
10030TIP3   OH251504   6.654   5.303   4.817 -0.0726 -0.4455 -0.4281
10030TIP3    H151505   6.632   5.264   4.901 -0.1481  0.0877 -0.1942
10030TIP3    H251506   6.731   5.254   4.787 -0.7105 -1.3594 -0.5657
10031TIP3   OH251507   1.846   2.651   1.493 -0.1045  0.2255 -0.0306
10031TIP3    H151508   1.929   2.604   1.504 -0.6737 -0.7950  0.0337
10031TIP3    H251509   1.784   2.602   1.547 -0.7978  0.8388 -0.2685
10032TIP3   OH251510   1.885   2.069   1.534 -0.2304  0.0067  0.5670
10032TIP3    H151511   1.799   2.055   1.575 -0.6220  1.7109  0.3759
10032TIP3    H251512   1.944   2.011   1.581 -1.6327 -1.7967  0.1757
10033TIP3   OH251513   6.219   3.496   3.701 -0.6249 -0.1028 -0.0153
10033TIP3    H151514   6.235   3.405   3.678 -0.4283  0.1810 -1.0262
10033TIP3    H251515   6.286   3.516   3.767 -0.7617 -0.7289  0.3119
10034TIP3   OH251516   6.285   0.311   2.215 -0.3705 -0.5631  0.4066
10034TIP3    H151517   6.341   0.352   2.149 -0.3712 -0.0412  0.7233
10034TIP3    H251518   6.197   0.344   2.196 -0.1030  0.9907  1.7339
10035TIP3   OH251519   4.414   2.865   1.202 -0.0852 -0.2782 -0.0732
10035TIP3    H151520   4.350   2.807   1.244 -1.0298 -0.3780 -1.6099
10035TIP3    H251521   4.391   2.863   1.110  0.5032  1.7722 -0.2864
10036TIP3   OH251522   2.484   6.106  12.956  0.2150  0.2932  0.1969
10036TIP3    H151523   2.393   6.077  12.949  0.4634 -0.5520  0.4899
10036TIP3    H251524   2.499   6.117  13.050  0.8776 -1.0567  0.2590
10037TIP3   OH251525   5.254   2.425  12.936 -0.5944  0.3659 -0.2452
10037TIP3    H151526   5.241   2.330  12.945  0.0468  0.2782 -0.2159
10037TIP3    H251527   5.232   2.461  13.021 -1.1213  0.2708 -0.3423
10038TIP3   OH251528   0.523   3.035  12.713 -0.3232 -0.6809 -0.3726
10038TIP3    H151529   0.583   3.108  12.725 -1.4263  0.3858 -1.1803
10038TIP3    H251530   0.564   2.962  12.760  0.0510  0.8423  1.7377
10039TIP3   OH251531   1.721   4.469   3.752 -0.0619  0.1348  0.5315
10039TIP3    H151532   1.635   4.428   3.740  0.2025  0.6509 -3.7882
10039TIP3    H251533   1.781   4.396   3.765 -0.7470 -0.3940  0.7320
10040TIP3   OH251534   5.266   6.626   3.853  0.4685  0.1124 -0.0392
10040TIP3    H151535   5.295   6.607   3.764  1.5110 -0.7428  0.4685
10040TIP3    H251536   5.179   6.587   3.859  1.0954 -1.3382 -0.1591
10041TIP3   OH251537   3.049   3.965  15.115  0.5616  0.4192  0.2709
10041TIP3    H151538   3.079   3.919  15.037  0.3461  1.3960 -0.3935
10041TIP3    H251539   2.956   3.945  15.121  0.5077  0.6260  0.0915
10042TIP3   OH251540   5.957   5.015   5.419  0.4136 -0.1469  0.2208
10042TIP3    H151541   5.867   4.989   5.401  0.7378 -0.5089 -0.9372
10042TIP3    H251542   5.971   4.991   5.511 -0.4222 -0.7876  0.1899
10043TIP3   OH251543   3.046   4.830  15.760  0.9488  0.3610 -0.0342
10043TIP3    H151544   3.059   4.778  15.681  0.7275  0.1008  0.0998
10043TIP3    H251545   3.111   4.796  15.822 -0.7524 -1.3930  0.8532
10044TIP3   OH251546   4.334   4.977   1.966  0.3229  0.1266  0.6138
10044TIP3    H151547   4.362   4.902   1.913  1.9767  0.4174  1.0656
10044TIP3    H251548   4.366   4.958   2.054 -1.4310  0.1895  1.2882
10045TIP3   OH251549   2.484   1.505   2.583 -0.1281 -0.0106 -0.2454
10045TIP3    H151550   2.566   1.553   2.598 -0.0607 -0.3908  0.5874
10045TIP3    H251551   2.510   1.431   2.528  0.1495 -0.3180  0.2948
10046TIP3   OH251552   4.328   3.730  13.397  0.0796  0.1406  0.2009
10046TIP3    H151553   4.310   3.820  13.426 -1.6610 -0.4114  0.8886
10046TIP3    H251554   4.395   3.698  13.457 -0.6293  0.3700  1.1324
10047TIP3   OH251555   0.093   3.690  16.087 -0.4570 -0.0430  0.3275
10047TIP3    H151556   0.179   3.718  16.117  1.4557 -1.1850 -3.6867
10047TIP3    H251557   0.086   3.599  16.116  0.6978 -0.6481 -1.2250
10048TIP3   OH251558   4.406   2.220  11.689  0.2244  0.2044  0.3148
10048TIP3    H151559   4.323   2.174  11.700 -0.0814  0.6226 -0.2126
10048TIP3    H251560   4.430   2.204  11.598  0.5499  0.3658  0.3737
10049TIP3   OH251561   0.081   0.132  14.141  0.1580  0.1130 -0.0611
10049TIP3    H151562   0.065   0.073  14.067 -1.2240 -1.3562  1.3805
10049TIP3    H251563   0.005   0.120  14.198  1.6456  0.5565  2.0474
10050TIP3   OH251564   3.478   0.343  12.972 -0.5252  0.2286  0.3921
10050TIP3    H151565   3.527   0.336  12.891 -0.0359  2.3571  0.4696
10050TIP3    H251566   3.388   0.320  12.948 -0.1529 -0.3275 -0.4816
10051TIP3   OH251567   5.580   1.821   1.456  0.0927 -0.1879 -0.2125
10051TIP3    H151568   5.589   1.763   1.380  0.8202 -0.2134 -0.1091
10051TIP3    H251569   5.522   1.891   1.425 -1.4872 -1.3976 -0.0782
10052TIP3   OH251570   2.652   4.717   2.708 -0.0347  0.4068 -0.8851
10052TIP3    H151571   2.593   4.746   2.639  1.7863  1.0794 -2.2190
10052TIP3    H251572   2.595   4.693   2.781 -1.9276  0.8958 -2.1745
10053TIP3   OH251573   5.919   4.012  15.475 -0.2808 -0.1796  0.0242
10053TIP3    H151574   5.828   3.995  15.499 -0.6534 -0.1289 -1.3272
10053TIP3    H251575   5.914   4.050  15.388  0.9352  1.3359  0.5903
10054TIP3   OH251576   3.489   4.503   2.490  0.2324  0.2539 -0.0210
10054TIP3    H151577   3.552   4.431   2.480  0.9454  1.1607 -2.5145
10054TIP3    H251578   3.411   4.462   2.526  2.1768 -0.9159  3.0363
10055TIP3   OH251579   0.917   2.860   4.850 -0.5331 -0.1807  0.0528
10055TIP3    H151580   0.986   2.800   4.877  0.7858  0.4801 -1.7400
10055TIP3    H251581   0.836   2.809   4.857  0.2874 -1.3893  0.8580
10056TIP3   OH251582   3.015   3.862  14.408  0.0928  0.5581  0.0397
10056TIP3    H151583   3.090   3.921  14.405  0.3842  0.2372  0.7509
10056TIP3    H251584   2.993   3.856  14.501 -2.0805  2.1996 -0.3242
10057TIP3   OH251585   1.212   5.448   4.423  0.4601 -0.2694  0.6881
10057TIP3    H151586   1.279   5.446   4.492 -0.1995 -0.6318  1.3374
10057TIP3    H251587   1.174   5.536   4.429  1.6547  0.3435 -0.4595
10058TIP3   OH251588   5.122   4.656  13.683 -0.1540  0.8140 -0.4598
10058TIP3    H151589   5.115   4.745  13.716  0.5886  0.5740  0.3768
10058TIP3    H251590   5.163   4.665  13.597  0.7157  1.2103 -0.0069
10059TIP3   OH251591   3.547   4.206   4.760  0.8517 -0.5403 -0.1848
10059TIP3    H151592   3.490   4.212   4.683  0.8933  0.7967 -0.1181
10059TIP3    H251593   3.511   4.269   4.822  0.4583 -2.0440  1.1408
10060TIP3   OH251594   6.231   6.666   3.089 -0.6075 -0.1386 -0.2168
10060TIP3    H151595   6.180   6.640   3.166 -0.6319  0.0799 -0.1584
10060TIP3    H251596   6.322   6.649   3.114 -0.4627  1.6554  0.5515
10061TIP3   OH251597   2.045   6.203  16.432 -0.1653  0.2361  0.3874
10061TIP3    H151598   1.963   6.209  16.382  0.0897 -1.1774 -0.2174
10061TIP3    H251599   2.109   6.170  16.370  0.4528 -0.3422  1.3194
10062TIP3   OH251600   0.891   0.123  11.124 -0.3695  0.5865 -0.4254
10062TIP3    H151601   0.903   0.117  11.219 -0.6147 -0.0106 -0.4309
10062TIP3    H251602   0.964   0.178  11.095  1.8205 -2.1266 -0.3000
10063TIP3   OH251603   2.419   3.472  13.800 -0.2166  0.3032 -0.3496
10063TIP3    H151604   2.456   3.497  13.885  2.9841  0.0341 -1.5737
10063TIP3    H251605   2.421   3.376  13.801 -1.7574  0.2621 -0.1031
10064TIP3   OH251606   5.130   3.499   3.896  0.0204 -0.0346 -0.4436
10064TIP3    H151607   5.104   3.412   3.925  0.7128 -0.1529 -0.1616
10064TIP3    H251608   5.172   3.538   3.973 -0.0203  0.4345 -0.6586
10065TIP3   OH251609   5.074   1.807   0.318 -0.4355 -0.1190  0.3036
10065TIP3    H151610   4.997   1.761   0.352 -0.3275 -0.6086 -0.1123
10065TIP3    H251611   5.038   1.887   0.278 -0.7062 -0.2425  0.3008
10066TIP3   OH251612   4.371   3.107   1.468  0.1883 -0.2866  0.1922
10066TIP3    H151613   4.347   3.178   1.408 -0.4904  0.5521  1.4503
10066TIP3    H251614   4.395   3.151   1.549  2.9675 -1.3207 -0.0437
10067TIP3   OH251615   3.387   5.946   3.714  0.1534 -0.9380  0.0740
10067TIP3    H151616   3.413   5.925   3.624 -0.5023 -0.9430 -0.1190
10067TIP3    H251617   3.294   5.924   3.717  0.0520 -0.4274  0.6013
10068TIP3   OH251618   5.671   1.734  13.619 -0.3199  0.2911  0.3951
10068TIP3    H151619   5.596   1.753  13.562  0.7395  2.2731 -0.3848
10068TIP3    H251620   5.653   1.647  13.654 -2.4828  0.3118 -0.5906
10069TIP3   OH251621   5.498   0.624  13.056 -0.5063  0.0535  0.3557
10069TIP3    H151622   5.550   0.620  13.136 -0.0591 -1.2354  0.0137
10069TIP3    H251623   5.410   0.601  13.083 -0.3653 -0.3270  0.4919
10070TIP3   OH251624   2.103   4.072  11.820 -0.4596  0.1814  0.4085
10070TIP3    H151625   2.123   4.035  11.734  0.9300  0.4765  0.5948
10070TIP3    H251626   2.067   4.158  11.801  1.1012  0.7978  0.1518
10071TIP3   OH251627   4.877   5.740   1.074 -0.6412 -0.2541  0.1787
10071TIP3    H151628   4.957   5.790   1.059  0.0263 -1.4075 -0.1855
10071TIP3    H251629   4.829   5.745   0.991 -0.6004 -0.1864  0.1595
10072TIP3   OH251630   4.924   1.996   2.992 -0.3263 -0.5057 -0.3758
10072TIP3    H151631   5.015   2.018   3.015 -0.8485  0.2919  0.9679
10072TIP3    H251632   4.913   1.906   3.021  0.4041 -1.0475 -1.7009
10073TIP3   OH251633   0.160   3.059  14.265  0.0389 -0.0546  0.0095
10073TIP3    H151634   0.225   3.020  14.206 -1.6724 -0.3238 -1.7331
10073TIP3    H251635   0.208   3.072  14.347  1.5955 -2.7090 -0.3992
10074TIP3   OH251636   4.819   3.084  13.315 -0.0715 -0.0576 -0.2529
10074TIP3    H151637   4.804   3.017  13.249 -0.2617 -1.0669  0.7985
10074TIP3    H251638   4.767   3.055  13.390 -1.1132  1.8867 -0.2053
10075TIP3   OH251639   0.770   1.939  16.262 -0.0062  0.2669  0.0071
10075TIP3    H151640   0.786   1.992  16.184  1.0129 -0.8571 -0.5590
10075TIP3    H251641   0.743   1.854  16.229  1.1725 -0.4485  0.8702
10076TIP3   OH251642   1.783   2.398   1.589 -0.0179 -0.1865  0.3684
10076TIP3    H151643   1.696   2.363   1.569 -0.2375  0.8025 -0.4272
10076TIP3    H251644   1.823   2.331   1.644 -0.6011 -1.4803 -0.7568
10077TIP3   OH251645   3.979   6.397  16.235  0.3770  0.5742  0.0941
10077TIP3    H151646   3.974   6.441  16.150 -3.0490 -0.3763 -0.3001
10077TIP3    H251647   3.891   6.406  16.271  1.3706 -0.3802  2.8637
10078TIP3   OH251648   5.664   0.893   0.732 -0.1931  0.4851 -0.4632
10078TIP3    H151649   5.752   0.918   0.760 -1.0021  2.1281  0.7638
10078TIP3    H251650   5.639   0.961   0.669 -1.5513  1.5390  1.1697
10079TIP3   OH251651   5.391   5.814  14.992 -0.0310  0.0453  0.3987
10079TIP3    H151652   5.447   5.739  15.012 -0.2079 -0.5564 -1.3227
10079TIP3    H251653   5.310   5.776  14.958 -0.3900  0.9978  0.1604
10080TIP3   OH251654   5.981   4.064  16.795  0.2015 -0.2044 -0.8050
10080TIP3    H151655   5.983   4.122  16.872 -0.0166 -1.7753  0.4068
10080TIP3    H251656   6.048   4.100  16.737  0.5393  0.8769  0.2282
10081TIP3   OH251657   5.058   2.157  15.857 -0.2750 -0.0562  0.1683
10081TIP3    H151658   5.013   2.220  15.801 -2.2681 -1.0237  0.6626
10081TIP3    H251659   5.066   2.078  15.804 -0.1009 -0.2387  0.4616
10082TIP3   OH251660   4.702   5.237   5.412 -0.1135  0.2213  0.8821
10082TIP3    H151661   4.638   5.300   5.446 -1.8151  0.3646 -2.3306
10082TIP3    H251662   4.649   5.165   5.379  1.4943 -0.4738 -0.2489
10083TIP3   OH251663   4.444   3.365   1.537 -0.1694  0.2983 -0.0649
10083TIP3    H151664   4.402   3.362   1.623  1.2693  1.2083  0.6865
10083TIP3    H251665   4.538   3.355   1.556  0.1376  0.2790 -1.5471
10084TIP3   OH251666   6.266   5.926  17.069 -0.1451  0.5065 -0.4560
10084TIP3    H151667   6.297   5.847  17.023 -0.0486  0.2457  0.0588
10084TIP3    H251668   6.329   5.939  17.139 -0.5225  0.6710 -0.1439
10085TIP3   OH251669   2.812   3.910  12.577  0.2128  0.5905 -0.0052
10085TIP3    H151670   2.780   3.824  12.550  0.6160 -0.1735  1.8793
10085TIP3    H251671   2.905   3.896  12.593  0.3533  1.4761 -0.0478
10086TIP3   OH251672   0.467   4.908   1.828 -0.4404 -0.6219 -0.0364
10086TIP3    H151673   0.504   4.988   1.863  0.4672 -0.6102 -0.9892
10086TIP3    H251674   0.507   4.898   1.741 -0.4895 -2.1341  0.0871
10087TIP3   OH251675   0.963   3.842   4.925 -0.0288  0.2340  0.3526
10087TIP3    H151676   1.012   3.918   4.892 -0.3082  1.0109  1.6828
10087TIP3    H251677   0.873   3.858   4.897  0.0014  0.1278  0.1914
10088TIP3   OH251678   0.223   2.359   1.938 -0.1853 -0.1600  0.2404
10088TIP3    H151679   0.181   2.273   1.938  0.1370 -0.3269  1.0460
10088TIP3    H251680   0.187   2.404   1.862  0.9572 -1.6420 -1.2158
10089TIP3   OH251681   4.978   0.371   2.747 -0.3307  0.1174 -0.6444
10089TIP3    H151682   4.997   0.393   2.839  0.1024 -1.2476 -0.4041
10089TIP3    H251683   4.964   0.276   2.747 -0.2569  0.0996 -2.0098
10090TIP3   OH251684   1.925   1.983  14.797  0.3277  0.8105  0.1225
10090TIP3    H151685   1.996   1.930  14.833  0.6085  0.6056 -0.7173
10090TIP3    H251686   1.968   2.046  14.740 -0.1455  0.7895 -0.2617
10091TIP3   OH251687   2.584   4.567  12.602 -0.0789 -0.9497 -0.0892
10091TIP3    H151688   2.646   4.602  12.666  0.5075 -1.8334 -0.1678
10091TIP3    H251689   2.620   4.482  12.577 -1.6195 -1.7399  0.2982
10092TIP3   OH251690   6.400   6.156  15.270  0.4495  0.3228 -0.1536
10092TIP3    H151691   6.461   6.087  15.247 -0.2049 -0.4752  0.4425
10092TIP3    H251692   6.352   6.121  15.346  0.9739  1.9372  0.9567
10093TIP3   OH251693   4.776   4.293   1.354  0.5350 -0.7206  0.1945
10093TIP3    H151694   4.759   4.361   1.290 -0.4512 -1.3062 -0.1762
10093TIP3    H251695   4.766   4.211   1.306 -0.2901 -1.1656  1.0955
10094TIP3   OH251696   2.325   1.182  11.532 -0.3691 -0.2870 -0.7050
10094TIP3    H151697   2.293   1.094  11.555 -1.3627  0.3593  0.4357
10094TIP3    H251698   2.253   1.240  11.555 -0.1342  0.7420 -2.4499
10095TIP3   OH251699   3.063   3.107  15.437 -0.2110 -0.6209 -0.5407
10095TIP3    H151700   3.051   3.081  15.528 -0.8626  2.7006  0.3877
10095TIP3    H251701   3.158   3.115  15.426 -0.1902  0.5606  0.3629
10096TIP3   OH251702   4.391   4.832  16.507 -0.4879  0.7439  0.0483
10096TIP3    H151703   4.345   4.748  16.507 -0.1924  0.5796  0.0637
10096TIP3    H251704   4.483   4.809  16.525 -0.1511  0.9251 -1.3900
10097TIP3   OH251705   6.603   0.462  15.110  0.1862 -0.4192  0.0536
10097TIP3    H151706   6.686   0.468  15.157 -0.4256 -0.8053  1.2003
10097TIP3    H251707   6.542   0.514  15.162  0.1479  1.4997 -1.8257
10098TIP3   OH251708   4.781   2.090  13.809 -0.0658 -0.0408  0.0187
10098TIP3    H151709   4.850   2.138  13.855 -0.2799 -0.0664  0.3662
10098TIP3    H251710   4.713   2.156  13.793 -0.5206 -0.3043  0.8227
10099TIP3   OH251711   5.381   3.754   5.351  0.4201 -0.2655  0.2836
10099TIP3    H151712   5.331   3.835   5.359 -1.2088 -1.3461  1.1338
10099TIP3    H251713   5.385   3.737   5.257  1.1463  1.0121  0.0706
10100TIP3   OH251714   3.882   1.347   0.758  0.2055  0.2086 -0.3187
10100TIP3    H151715   3.946   1.403   0.801 -0.6084  2.2122 -1.5770
10100TIP3    H251716   3.799   1.394   0.769 -0.7873 -1.5863 -0.0108
10101TIP3   OH251717   3.196   5.925   5.824  0.0368 -0.8672 -0.1022
10101TIP3    H151718   3.115   5.976   5.814 -0.4063 -1.3840  0.7085
10101TIP3    H251719   3.202   5.908   5.919  1.2451 -0.5946 -0.1266
10102TIP3   OH251720   2.763   0.640   7.036 -0.0748  0.4110  0.3570
10102TIP3    H151721   2.797   0.551   7.045 -0.4880  0.1818 -0.2935
10102TIP3    H251722   2.789   0.667   6.948  0.8919  1.3060  0.9022
10103TIP3   OH251723   6.653   2.276   2.501 -0.0141  0.4544 -0.0889
10103TIP3    H151724   6.670   2.368   2.519  1.6159  0.3589 -1.0308
10103TIP3    H251725   6.602   2.276   2.420 -0.7189  0.5562  0.3516
10104TIP3   OH251726   4.177   4.302   0.778 -0.1327 -0.3995 -0.2130
10104TIP3    H151727   4.126   4.240   0.727  0.1996  0.5068 -1.6592
10104TIP3    H251728   4.251   4.325   0.723  0.2229  0.6136  0.6502
10105TIP3   OH251729   4.024   2.697   6.201  0.1582 -0.6553  0.4332
10105TIP3    H151730   4.120   2.706   6.203  0.2918 -0.8550 -2.7168
10105TIP3    H251731   4.008   2.606   6.177 -0.8018 -0.2278 -0.5794
10106TIP3   OH251732   6.037   5.292   1.950 -0.0922  0.0190  0.5196
10106TIP3    H151733   6.017   5.266   1.861  0.2132  0.5674  0.2855
10106TIP3    H251734   6.075   5.214   1.991  1.4100  0.2687 -0.3562
10107TIP3   OH251735   3.577   5.318   4.619 -0.9161  0.1623 -0.5779
10107TIP3    H151736   3.581   5.224   4.602  0.3712  0.3973 -1.5741
10107TIP3    H251737   3.493   5.329   4.665  0.2506 -1.8977  2.2493
10108TIP3   OH251738   3.062   0.683   3.739  0.2911 -0.4304  0.5671
10108TIP3    H151739   3.122   0.754   3.759  0.3825 -0.5869  0.8651
10108TIP3    H251740   2.979   0.725   3.720  0.2936 -0.2541  0.9441
10109TIP3   OH251741   0.555   4.298  17.036  0.1466  0.5093  0.1706
10109TIP3    H151742   0.503   4.352  17.096 -0.5776  0.5355 -0.4788
10109TIP3    H251743   0.515   4.312  16.951 -0.0871 -1.1312  0.0074
10110TIP3   OH251744   4.222   6.164   4.405 -0.4249  0.2787  0.2816
10110TIP3    H151745   4.257   6.138   4.320 -1.7049  0.9566 -0.4749
10110TIP3    H251746   4.138   6.206   4.385 -0.1736  1.5593  1.7726
10111TIP3   OH251747   5.884   3.449  16.103  0.0684  0.0711 -0.1834
10111TIP3    H151748   5.890   3.452  16.008  1.5081  2.2106 -0.0726
10111TIP3    H251749   5.971   3.422  16.132  0.0784  0.8828  0.5630
10112TIP3   OH251750   4.810   5.454   2.951  0.1914 -0.7487 -0.1892
10112TIP3    H151751   4.735   5.396   2.960  0.1901 -0.7324 -0.0986
10112TIP3    H251752   4.814   5.473   2.857 -0.0962 -0.5173 -0.1559
10113TIP3   OH251753   4.406   0.275  14.141 -0.0464  0.1676  0.0606
10113TIP3    H151754   4.368   0.245  14.224  2.4630  2.3111  2.0651
10113TIP3    H251755   4.390   0.370  14.141  2.5132  0.6328 -0.4894
10114TIP3   OH251756   5.985   2.471   4.834 -0.5012 -0.6123  0.6197
10114TIP3    H151757   6.048   2.400   4.827 -1.0506 -1.1509  0.9892
10114TIP3    H251758   5.900   2.427   4.843 -1.1211  0.0909 -1.4065
10115TIP3   OH251759   4.550   5.417   5.497  0.4117  0.2657 -0.5875
10115TIP3    H151760   4.530   5.468   5.418  1.4461  0.1775 -0.9088
10115TIP3    H251761   4.478   5.437   5.557 -0.7525 -0.2121 -1.8061
10116TIP3   OH251762   1.339   6.384   1.189  0.7140  0.2044  0.0698
10116TIP3    H151763   1.419   6.437   1.196  1.1556 -0.5851  1.1592
10116TIP3    H251764   1.354   6.327   1.114  1.7326 -0.8446  1.0511
10117TIP3   OH251765   3.455   2.111  11.727 -0.0835 -0.6588  0.3622
10117TIP3    H151766   3.505   2.093  11.806  1.2256 -0.2403 -0.3530
10117TIP3    H251767   3.521   2.138  11.663 -1.1313 -0.9046 -0.8383
10118TIP3   OH251768   1.272   4.619   5.899  0.2287  0.5373 -0.3186
10118TIP3    H151769   1.339   4.667   5.850  0.5165  2.2356  1.6807
10118TIP3    H251770   1.221   4.687   5.943 -1.8002 -0.8127 -0.5065
10119TIP3   OH251771   3.569   2.971  17.016 -0.2629 -0.0492 -0.0796
10119TIP3    H151772   3.591   3.052  16.970  0.4352 -0.4407 -0.4245
10119TIP3    H251773   3.509   2.926  16.957  0.4772 -0.4584 -0.5225
10120TIP3   OH251774   5.705   0.004  15.255 -0.5896 -0.6232  0.1922
10120TIP3    H151775   5.743  -0.000  15.167  0.4879  2.0146  0.4987
10120TIP3    H251776   5.717  -0.085  15.290 -1.9214 -1.9828 -2.6347
10121TIP3   OH251777   0.258   5.622   6.371 -0.7414 -0.0251 -0.0529
10121TIP3    H151778   0.266   5.623   6.466  0.4337 -2.5242 -0.0741
10121TIP3    H251779   0.241   5.713   6.347 -0.4999  0.7311  2.4928
10122TIP3   OH251780   5.654   4.007  13.420 -0.3570 -0.4914  0.8102
10122TIP3    H151781   5.570   3.994  13.463  0.0227 -0.9748  1.4229
10122TIP3    H251782   5.715   4.027  13.491  0.0722 -0.2747  0.3897
10123TIP3   OH251783   4.728   1.388  17.102  0.6364  0.2811 -0.5743
10123TIP3    H151784   4.730   1.476  17.063  2.2062  0.6472  0.2768
10123TIP3    H251785   4.732   1.403  17.196 -0.6029 -0.6751 -0.3575
10124TIP3   OH251786   6.604   5.406   3.837  0.3817  0.0982 -0.0456
10124TIP3    H151787   6.677   5.407   3.898  0.9896  0.4703 -0.7784
10124TIP3    H251788   6.605   5.318   3.798 -0.2096 -0.2527  0.7119
10125TIP3   OH251789   5.613   0.461  13.744  0.3249  0.1248 -0.6399
10125TIP3    H151790   5.663   0.423  13.816 -0.9512  0.5451  0.5084
10125TIP3    H251791   5.678   0.508  13.691  0.9613  2.0368  1.7208
10126TIP3   OH251792   5.882   4.306   5.483  0.8480  0.3257 -0.5576
10126TIP3    H151793   5.890   4.236   5.418 -2.1110 -0.2660 -0.3091
10126TIP3    H251794   5.871   4.386   5.431 -0.7738 -0.0545 -0.8173
10127TIP3   OH251795   6.017   5.373  11.130 -0.6922 -0.7833  0.0743
10127TIP3    H151796   5.998   5.467  11.131 -0.8503 -0.8188  0.6020
10127TIP3    H251797   6.049   5.356  11.041 -3.7262 -0.8395 -1.0604
10128TIP3   OH251798   4.342   4.716   3.396 -0.0579 -0.1431  1.2127
10128TIP3    H151799   4.313   4.660   3.325 -1.4512  1.1921  0.6962
10128TIP3    H251800   4.427   4.750   3.366 -0.0028 -0.6499  0.7931
10129TIP3   OH251801   5.056   6.634   3.299  0.0855  0.2774  0.5034
10129TIP3    H151802   5.004   6.654   3.221  0.2091  0.3936  0.4495
10129TIP3    H251803   5.017   6.555   3.335  1.8649 -1.4674 -1.3130
10130TIP3   OH251804   1.111   6.761  10.844 -0.2284  0.0249  1.0228
10130TIP3    H151805   1.090   6.669  10.828  2.1343 -0.4961  0.7812
10130TIP3    H251806   1.179   6.758  10.912  0.5825  1.5442  0.2821
10131TIP3   OH251807   6.490   3.356  16.512 -0.7602 -0.1121 -0.0341
10131TIP3    H151808   6.558   3.418  16.485 -1.0976  0.0387 -0.5521
10131TIP3    H251809   6.424   3.409  16.557 -0.2431 -0.3518  1.0085
10132TIP3   OH251810   3.191   5.562  12.947  0.0190  0.3194 -0.0240
10132TIP3    H151811   3.240   5.509  13.010 -1.7525  0.2947  1.3468
10132TIP3    H251812   3.246   5.640  12.935  0.9797 -0.2438  0.5699
10133TIP3   OH251813   6.753   0.977   0.638  0.3012  0.6188 -0.0771
10133TIP3    H151814   6.665   1.010   0.651 -0.1136 -0.8147  0.8934
10133TIP3    H251815   6.752   0.939   0.550 -0.1218  0.4071  0.0186
10134TIP3   OH251816   4.407   0.439   2.512 -0.2644 -0.2342  0.2160
10134TIP3    H151817   4.339   0.391   2.560 -1.2899 -0.9548 -1.9048
10134TIP3    H251818   4.395   0.530   2.540  0.9779 -0.9795  3.4123
10135TIP3   OH251819   6.551   2.786  13.030 -0.4856  0.0397 -0.0875
10135TIP3    H151820   6.634   2.778  13.077  2.2524 -0.9054 -4.8419
10135TIP3    H251821   6.502   2.707  13.056  1.0665 -0.6294  0.8663
10136TIP3   OH251822   5.512   2.923  15.012 -0.4038 -0.4560 -0.0173
10136TIP3    H151823   5.496   3.017  15.002  1.6486 -0.2844 -2.1921
10136TIP3    H251824   5.605   2.916  15.033 -0.1674 -2.0399 -1.3976
10137TIP3   OH251825   1.821   4.535   0.254  0.1594 -0.9033 -0.1023
10137TIP3    H151826   1.798   4.586   0.177 -2.6834 -1.7631  0.1088
10137TIP3    H251827   1.880   4.467   0.222  2.3327  1.2364 -0.7306
10138TIP3   OH251828   0.878   1.649  12.328 -0.6332 -0.2804  0.0653
10138TIP3    H151829   0.973   1.655  12.323 -0.6098  0.4602  1.1386
10138TIP3    H251830   0.857   1.559  12.304  0.1068  0.3768 -3.2412
10139TIP3   OH251831   3.187   2.579   0.372  0.4630  0.4264  0.4280
10139TIP3    H151832   3.260   2.640   0.362  0.5483  0.5389  1.6351
10139TIP3    H251833   3.112   2.635   0.392  0.4133  0.1823  0.9264
10140TIP3   OH251834   0.564   1.672   0.095  0.5218 -0.1145 -0.2257
10140TIP3    H151835   0.502   1.712   0.034  0.9577  1.9548  0.6474
10140TIP3    H251836   0.548   1.578   0.088 -1.3599  0.2796 -1.4446
10141TIP3   OH251837   0.053   3.684   5.239 -0.6572 -0.1527  0.4700
10141TIP3    H151838   0.126   3.660   5.296 -0.3990 -0.2000  0.1215
10141TIP3    H251839  -0.024   3.645   5.280 -0.5977  0.5331  1.2515
10142TIP3   OH251840   1.102   0.314   4.274  0.0831  0.0596  0.6015
10142TIP3    H151841   1.152   0.233   4.264 -0.2587 -0.0136 -0.5573
10142TIP3    H251842   1.153   0.380   4.226 -1.4273 -0.2313 -1.4835
10143TIP3   OH251843   2.504   2.023  13.651  0.5355  0.3448  0.0685
10143TIP3    H151844   2.439   1.958  13.625  0.3167  0.5820  0.0174
10143TIP3    H251845   2.511   2.015  13.746  0.9170 -0.1319  0.0037
10144TIP3   OH251846   1.932   3.078   0.135  0.2109 -0.3964  0.2237
10144TIP3    H151847   1.893   3.066   0.222  1.0609  1.0896  0.8142
10144TIP3    H251848   1.893   3.159   0.102  1.3135  0.0567  0.0108
10145TIP3   OH251849   4.044   3.378   0.512  0.0973  0.2539 -0.1916
10145TIP3    H151850   4.022   3.463   0.473  0.0366 -0.3069 -1.3726
10145TIP3    H251851   4.013   3.313   0.449  1.6168 -0.6265 -0.0445
10146TIP3   OH251852   3.934   4.759   4.814 -0.2296  0.1917 -0.2440
10146TIP3    H151853   3.990   4.830   4.783  1.6054 -1.1589 -0.0797
10146TIP3    H251854   3.909   4.785   4.903 -0.1814  0.9910 -0.4669
10147TIP3   OH251855   1.166   0.582  13.647 -0.3347 -0.0004  0.3260
10147TIP3    H151856   1.133   0.639  13.716 -0.9671 -0.1830  0.1772
10147TIP3    H251857   1.127   0.618  13.567 -0.7200 -0.6241  0.2306
10148TIP3   OH251858   2.463   4.388  15.633 -0.0491  0.1989 -0.4807
10148TIP3    H151859   2.446   4.468  15.683  0.6131  1.1255 -1.7138
10148TIP3    H251860   2.503   4.329  15.696 -1.3670  0.4980  0.6766
10149TIP3   OH251861   5.830   3.699   5.666 -0.0570  0.3736  0.6650
10149TIP3    H151862   5.856   3.613   5.632  0.0124  0.8121 -0.4388
10149TIP3    H251863   5.896   3.721   5.731  0.3078 -0.1117  0.4588
10150TIP3   OH251864   6.654   3.590  11.676 -0.3402  0.2108 -0.5215
10150TIP3    H151865   6.665   3.672  11.723  0.7979 -0.5976  0.6688
10150TIP3    H251866   6.644   3.524  11.745  2.2287 -1.1238 -1.3356
10151TIP3   OH251867   0.468   5.062   5.549 -0.2186  0.2311 -0.0554
10151TIP3    H151868   0.535   5.084   5.614 -0.2376 -2.0993  0.8311
10151TIP3    H251869   0.420   5.143   5.535  0.1666  0.9390  2.4223
10152TIP3   OH251870   2.929   1.362   4.484  0.5966 -0.0813  0.1176
10152TIP3    H151871   2.890   1.303   4.420  0.5715 -1.1434  1.0871
10152TIP3    H251872   2.857   1.418   4.511 -0.0801 -1.4366  1.2249
10153TIP3   OH251873   3.416   1.727  12.766  0.7713  0.6321 -0.6818
10153TIP3    H151874   3.431   1.810  12.723 -0.6703  2.0124  1.3567
10153TIP3    H251875   3.501   1.682  12.765  1.5704  2.1529 -1.7043
10154TIP3   OH251876   3.239   3.001  14.714  0.5503 -0.7283  0.4743
10154TIP3    H151877   3.152   2.971  14.687  0.6120 -0.9957  0.5708
10154TIP3    H251878   3.268   3.058  14.642 -0.1112  0.1421  0.8808
10155TIP3   OH251879   3.828   3.900   0.713  0.7274  0.3718  0.0086
10155TIP3    H151880   3.756   3.859   0.762 -0.2638  2.9670  0.8364
10155TIP3    H251881   3.848   3.979   0.763  1.6764  1.5728 -2.2138
10156TIP3   OH251882   2.125   0.476  12.328  0.1301  0.4569 -0.2532
10156TIP3    H151883   2.189   0.534  12.286 -0.6717  1.8868  0.4536
10156TIP3    H251884   2.111   0.515  12.414 -0.7588 -0.5640  0.0666
10157TIP3   OH251885   3.643   4.461  13.087 -0.0932 -0.7987  0.1915
10157TIP3    H151886   3.720   4.510  13.056 -0.1116 -1.3866 -0.8026
10157TIP3    H251887   3.678   4.396  13.147  0.1153 -0.6728  0.2058
10158TIP3   OH251888   3.607   6.185   4.126 -0.8869 -0.7637  0.1814
10158TIP3    H151889   3.642   6.101   4.157  1.8726  0.3802  0.3659
10158TIP3    H251890   3.622   6.246   4.198  1.6058  0.9411 -1.6559
10159TIP3   OH251891   1.689   1.047  14.594 -0.4912 -0.3600  0.2242
10159TIP3    H151892   1.644   0.976  14.549  1.0690 -0.8646 -0.5841
10159TIP3    H251893   1.776   1.012  14.614 -0.1719  0.8517  1.0388
10160TIP3   OH251894   1.206   6.331   4.345 -0.3713  0.0775  0.2937
10160TIP3    H151895   1.156   6.409   4.366 -0.7691 -0.1014  0.0036
10160TIP3    H251896   1.254   6.353   4.265 -0.8169 -0.1275 -0.0285
10161TIP3   OH251897   4.104   0.264   3.928  0.4751  0.7044 -0.2568
10161TIP3    H151898   4.022   0.215   3.920  0.1142  1.3333 -0.4257
10161TIP3    H251899   4.081   0.354   3.904  1.5421  0.5723 -1.9204
10162TIP3   OH251900   4.788   2.346  13.511 -0.1507  0.6307  0.1701
10162TIP3    H151901   4.845   2.349  13.587  0.3878  0.7881 -0.2402
10162TIP3    H251902   4.707   2.389  13.540 -0.4501 -0.5192  1.0650
10163TIP3   OH251903   5.115   0.086   3.814 -0.2324 -0.4442 -0.2312
10163TIP3    H151904   5.150   0.012   3.766 -0.7520  0.4978 -2.1302
10163TIP3    H251905   5.184   0.153   3.809  0.6014 -1.0861  2.2358
10164TIP3   OH251906   4.679   1.655  14.135 -0.1013  0.2678 -0.3118
10164TIP3    H151907   4.713   1.737  14.171 -0.8075  0.8892 -1.0495
10164TIP3    H251908   4.608   1.682  14.077 -2.1535 -1.0635  1.5293
10165TIP3   OH251909   2.305   3.475   2.388  0.3446 -0.1832  0.0836
10165TIP3    H151910   2.290   3.552   2.334  1.0985  0.6006  0.9696
10165TIP3    H251911   2.359   3.418   2.333  1.2731  0.6945  0.0699
10166TIP3   OH251912   3.246   4.700  11.077 -0.0713 -0.3282 -0.1119
10166TIP3    H151913   3.221   4.789  11.103  1.0684  0.7193 -2.4262
10166TIP3    H251914   3.339   4.707  11.055 -0.1658 -1.9252 -1.0621
10167TIP3   OH251915   2.495   0.976  16.339  0.3464  0.7470 -0.3433
10167TIP3    H151916   2.419   1.017  16.297  0.5903  0.3527 -1.1788
10167TIP3    H251917   2.510   0.895  16.289  0.4029  0.0750  0.7522
10168TIP3   OH251918   3.453   0.962  15.771  0.0361  0.4821 -0.0568
10168TIP3    H151919   3.413   0.889  15.817  0.8289  0.1012  0.0332
10168TIP3    H251920   3.391   1.034  15.781 -0.8637 -0.2414 -0.3604
10169TIP3   OH251921   3.758   0.423  16.806 -0.3764 -0.3939  0.4461
10169TIP3    H151922   3.815   0.350  16.830 -0.0373 -0.3803 -0.2989
10169TIP3    H251923   3.677   0.407  16.855  0.2908 -0.3678  1.5514
10170TIP3   OH251924   0.255   3.528   2.758  0.4083  0.3466 -0.3397
10170TIP3    H151925   0.345   3.556   2.746  1.4928 -2.9271 -0.3808
10170TIP3    H251926   0.236   3.543   2.851  2.5794 -3.1086  0.7405
10171TIP3   OH251927   1.197   0.920  17.221 -0.6656  0.3575 -0.1859
10171TIP3    H151928   1.193   0.896  17.128 -1.1211  0.7773 -0.2754
10171TIP3    H251929   1.258   0.994  17.224  1.6816 -1.5044  0.2450
10172TIP3   OH251930   5.789   1.899   4.057  0.8023  0.5132 -0.3317
10172TIP3    H151931   5.810   1.991   4.047 -0.6661  1.0921  1.5784
10172TIP3    H251932   5.760   1.891   4.148  0.2058 -1.6878 -0.6838
10173TIP3   OH251933   4.591   1.451  13.916  0.4252  0.2589  0.1020
10173TIP3    H151934   4.622   1.375  13.866  1.8856  1.5715 -1.0459
10173TIP3    H251935   4.650   1.456  13.991  1.3189  1.1352 -0.6355
10174TIP3   OH251936   3.847   4.234   0.637 -0.2185  0.5428  0.3275
10174TIP3    H151937   3.827   4.320   0.601 -1.3786 -0.0654 -0.5265
10174TIP3    H251938   3.863   4.179   0.560  2.0250  0.3509  0.9103
10175TIP3   OH251939   0.046   1.450   2.905  0.2214 -0.4286 -0.8461
10175TIP3    H151940   0.077   1.497   2.982  0.7705 -2.6604  0.3321
10175TIP3    H251941   0.049   1.516   2.835  3.1558  0.6936  0.2326
10176TIP3   OH251942   1.757   5.910  14.367  0.3078  0.3117  0.2213
10176TIP3    H151943   1.711   5.840  14.414 -0.5359 -0.3094 -1.4754
10176TIP3    H251944   1.836   5.868  14.334 -0.0405  0.2420 -0.5271
10177TIP3   OH251945   5.350   2.734  11.727 -0.0249  0.0446 -0.4552
10177TIP3    H151946   5.365   2.828  11.716  0.5712  0.2300  1.6918
10177TIP3    H251947   5.264   2.718  11.689  1.3894  0.7726 -4.1830
10178TIP3   OH251948   5.033   3.076   3.130 -0.2643  0.4369  0.3762
10178TIP3    H151949   5.117   3.121   3.119  0.7140 -0.9101  2.1688
10178TIP3    H251950   5.025   3.062   3.224 -2.5896  0.7014  0.2306
10179TIP3   OH251951   2.431   3.635  13.558 -0.2538 -0.0133  0.1542
10179TIP3    H151952   2.483   3.590  13.490 -1.7184  1.2358 -1.8261
10179TIP3    H251953   2.449   3.585  13.638  2.3391 -0.8891 -0.9121
10180TIP3   OH251954   2.438   0.748   2.566 -0.5805  0.1931 -0.3909
10180TIP3    H151955   2.520   0.729   2.520 -0.0066  0.7297  0.3910
10180TIP3    H251956   2.423   0.670   2.620 -0.8808 -0.1407 -0.9571
10181TIP3   OH251957   4.462   0.139  13.907 -0.3403 -0.4197  0.0211
10181TIP3    H151958   4.380   0.108  13.870 -1.9111  2.3660  1.0469
10181TIP3    H251959   4.437   0.178  13.991  2.3660 -1.6375  1.4558
10182TIP3   OH251960   3.879   4.174  12.606  0.4176 -0.1000  0.2334
10182TIP3    H151961   3.823   4.098  12.591  0.9646 -1.0805  2.8665
10182TIP3    H251962   3.962   4.151  12.565  0.4002 -0.7102  0.5350
10183TIP3   OH251963   3.371   6.751  11.218  0.4868 -0.6647  0.0995
10183TIP3    H151964   3.308   6.818  11.244 -1.4526 -2.2302 -0.4395
10183TIP3    H251965   3.384   6.697  11.297  1.7265  0.0648  0.4150
10184TIP3   OH251966   3.645   6.135  16.832  0.3470  0.6621 -0.1089
10184TIP3    H151967   3.560   6.099  16.809  0.3851  0.6729 -0.2767
10184TIP3    H251968   3.627   6.202  16.897  0.3345 -0.0753  0.6447
10185TIP3   OH251969   0.437   4.969  14.467  0.1998 -0.4802 -0.1372
10185TIP3    H151970   0.466   4.905  14.532  0.1162 -0.1406  0.2403
10185TIP3    H251971   0.499   4.961  14.395  1.1287  0.1205  0.5868
10186TIP3   OH251972   5.111   2.149   2.478 -0.1718 -0.3139  0.2968
10186TIP3    H151973   5.168   2.073   2.486 -1.5592 -1.3197  0.6600
10186TIP3    H251974   5.047   2.139   2.548 -1.5463  0.1563 -0.8789
10187TIP3   OH251975   4.947   3.325  11.607 -0.2387 -0.2823  0.2188
10187TIP3    H151976   4.852   3.323  11.598 -0.1973  1.0441 -0.7507
10187TIP3    H251977   4.980   3.313  11.518  0.5575 -2.6584  0.7908
10188TIP3   OH251978   2.741   2.483  11.867 -0.0091  0.4654 -0.1479
10188TIP3    H151979   2.673   2.545  11.894 -1.3987 -0.9958 -0.1650
10188TIP3    H251980   2.693   2.400  11.854  1.4206 -0.0820 -2.2325
10189TIP3   OH251981   4.342   1.537   5.144  0.3043  0.0917 -0.3287
10189TIP3    H151982   4.435   1.529   5.168  0.0954  1.6213  1.0833
10189TIP3    H251983   4.329   1.631   5.133 -1.2256 -0.0688  0.0779
10190TIP3   OH251984   0.870   5.259  13.196  0.4081 -0.1831  0.1789
10190TIP3    H151985   0.861   5.265  13.291 -0.3788  0.7570  0.0593
10190TIP3    H251986   0.780   5.270  13.164  0.2421 -3.2548 -0.5644
10191TIP3   OH251987   5.024   6.151   4.348 -0.1752  0.1996  0.8020
10191TIP3    H151988   5.044   6.116   4.435 -0.5338 -1.0298  0.4012
10191TIP3    H251989   5.110   6.160   4.307 -0.0842 -0.4061  0.8465
10192TIP3   OH251990   5.824   4.144   0.409  0.4369 -0.1266 -0.4100
10192TIP3    H151991   5.767   4.193   0.350  0.1136  1.4084  1.1579
10192TIP3    H251992   5.896   4.204   0.429  0.8405 -0.8434  0.3152
10193TIP3   OH251993   0.796   5.714   2.006  0.3921  0.4412 -0.1449
10193TIP3    H151994   0.720   5.659   1.987 -0.4608  1.4871  0.1965
10193TIP3    H251995   0.780   5.795   1.958  1.7174  0.3552 -0.7664
10194TIP3   OH251996   0.680   2.154   3.426  0.4843  0.1531  0.5550
10194TIP3    H151997   0.621   2.192   3.361  1.2843 -0.0284 -0.2856
10194TIP3    H251998   0.766   2.192   3.405  0.7826 -0.0547  1.3841
10195TIP3   OH251999   6.389   0.498   0.069 -0.0857 -0.1072 -0.0848
10195TIP3    H152000   6.316   0.524   0.125  0.1129  0.2986 -0.0159
10195TIP3    H252001   6.445   0.575   0.065  0.9174 -0.7758  0.7711
10196TIP3   OH252002   0.831   5.729   3.213 -0.5282  0.5553  0.4917
10196TIP3    H152003   0.766   5.699   3.277 -2.0710  0.8365 -0.9101
10196TIP3    H252004   0.859   5.815   3.244  1.2946 -0.7532  2.6190
10197TIP3   OH252005   5.578   2.768  13.867 -0.7788 -0.0439  0.7973
10197TIP3    H152006   5.604   2.704  13.934 -2.6977 -0.3255  1.2951
10197TIP3    H252007   5.483   2.757  13.858 -0.8938  1.6127 -0.2874
10198TIP3   OH252008   0.679   0.443   5.507  1.0432 -0.1111 -0.4449
10198TIP3    H152009   0.761   0.401   5.482 -0.4219 -1.2657 -3.5034
10198TIP3    H252010   0.613   0.406   5.448 -1.1528  3.0524 -0.1061
10199TIP3   OH252011   4.836   1.695   4.556 -0.3660 -0.1101 -0.2864
10199TIP3    H152012   4.881   1.724   4.477  0.9423 -0.7110  0.2074
10199TIP3    H252013   4.904   1.651   4.607 -1.8610 -2.5154 -0.2441
10200TIP3   OH252014   2.047   3.456   0.208 -0.2414 -0.2564 -0.5688
10200TIP3    H152015   1.956   3.441   0.181  0.3576 -3.6903 -0.8577
10200TIP3    H252016   2.093   3.476   0.126 -0.8282  2.2231 -0.3299
10201TIP3   OH252017   1.277   0.686   3.208 -0.1775  0.3099 -0.0007
10201TIP3    H152018   1.370   0.702   3.224 -0.1843 -1.0386  1.4834
10201TIP3    H252019   1.275   0.638   3.125  0.4419  0.3038 -0.0172
10202TIP3   OH252020   6.099   1.699  14.323  0.2269  0.1827  0.6696
10202TIP3    H152021   6.104   1.783  14.369  0.4313  1.2712 -1.3064
10202TIP3    H252022   6.009   1.695  14.290 -0.0726 -0.8274  1.5826
10203TIP3   OH252023   3.305   0.668   1.080  0.4260 -0.1273 -0.2640
10203TIP3    H152024   3.337   0.728   1.012 -0.7950  0.3094 -0.4603
10203TIP3    H252025   3.269   0.724   1.148 -1.0791 -0.6300 -0.6239
10204TIP3   OH252026   5.617   5.908  13.281 -0.2429  0.0479  0.1765
10204TIP3    H152027   5.628   5.816  13.257 -2.3366 -0.1256 -0.2419
10204TIP3    H252028   5.624   5.956  13.198  2.6398  0.4768  0.6222
10205TIP3   OH252029   0.249   2.363  15.648 -0.0089 -0.2492  0.1681
10205TIP3    H152030   0.284   2.383  15.561  0.5387  0.0649  0.4614
10205TIP3    H252031   0.154   2.367  15.637  0.0636  0.1213 -0.3388
10206TIP3   OH252032   2.993   0.142  11.538 -0.1721 -0.1242  0.1681
10206TIP3    H152033   2.908   0.097  11.540  0.2650 -0.9131  0.8081
10206TIP3    H252034   2.995   0.184  11.452 -0.1170 -2.2256 -0.8889
10207TIP3   OH252035   4.699   5.003  16.678 -0.8120  0.1421 -0.1864
10207TIP3    H152036   4.719   5.079  16.624 -1.9238  0.2722 -0.4414
10207TIP3    H252037   4.660   4.940  16.618  0.8072 -0.9428 -0.1233
10208TIP3   OH252038   2.365   4.223  10.572 -0.0257 -0.3047 -0.0431
10208TIP3    H152039   2.388   4.247  10.483  2.4046 -2.4161 -0.0638
10208TIP3    H252040   2.394   4.298  10.625  1.6324 -0.4650 -0.7000
10209TIP3   OH252041   1.072   0.138   3.281  0.3881 -0.6547  0.1548
10209TIP3    H152042   1.012   0.204   3.315 -0.8156 -0.9660 -1.2792
10209TIP3    H252043   1.041   0.121   3.192  2.7471 -0.6709 -0.7114
10210TIP3   OH252044   1.047   3.968  16.513  0.5768  0.3860 -0.5626
10210TIP3    H152045   1.026   3.875  16.501  1.4634  0.1371 -0.2458
10210TIP3    H252046   0.977   4.002  16.568  0.6922 -0.2936  0.0133
10211TIP3   OH252047   3.456   1.747   3.318  0.0626 -0.0484 -0.0932
10211TIP3    H152048   3.431   1.655   3.309 -0.7053  0.1870 -0.4594
10211TIP3    H252049   3.388   1.784   3.374 -0.7714  0.7361 -1.5697
10212TIP3   OH252050   5.075   0.291   0.793 -0.2476 -0.5482 -0.8403
10212TIP3    H152051   5.117   0.375   0.772  1.4589 -1.1658  0.0688
10212TIP3    H252052   4.982   0.306   0.775 -0.2883  2.2001  1.3407
10213TIP3   OH252053   6.140   2.295  15.689  0.1412 -0.1338  0.5852
10213TIP3    H152054   6.185   2.228  15.639  0.9943 -1.0450  2.5443
10213TIP3    H252055   6.165   2.377  15.646 -0.7690 -1.0088 -1.7107
10214TIP3   OH252056   3.637   1.636   3.972  0.1065 -0.2422  0.3091
10214TIP3    H152057   3.715   1.580   3.969  1.0282  0.9730  1.0451
10214TIP3    H252058   3.615   1.642   4.065  0.7440  1.5750  0.3749
10215TIP3   OH252059   1.635   3.729   2.507  0.3399  0.1678 -0.7337
10215TIP3    H152060   1.635   3.717   2.602 -1.2224  1.6385 -0.5265
10215TIP3    H252061   1.722   3.702   2.480  1.2436  0.9496  1.2742
10216TIP3   OH252062   1.721   4.377   2.916 -0.1185  0.0965 -0.4805
10216TIP3    H152063   1.730   4.455   2.861 -1.6131  0.5888 -0.0633
10216TIP3    H252064   1.654   4.325   2.872 -1.6195  0.6776  1.0210
10217TIP3   OH252065   4.255   5.341  15.050 -0.0847  0.7988 -0.2826
10217TIP3    H152066   4.312   5.360  14.975  0.7131 -0.2114  0.0532
10217TIP3    H252067   4.245   5.425  15.094  2.0721  0.8084  0.2676
10218TIP3   OH252068   2.937   2.070  12.387  0.1995  0.1855  0.1504
10218TIP3    H152069   2.979   1.984  12.389 -0.4053 -0.2167 -2.4771
10218TIP3    H252070   3.009   2.132  12.399  1.4021 -0.5395 -2.9294
10219TIP3   OH252071   1.652   2.131   5.491  0.0208  0.2317 -0.2293
10219TIP3    H152072   1.648   2.194   5.562  1.1564 -0.9999  0.9662
10219TIP3    H252073   1.742   2.098   5.493 -0.0651 -0.1794 -1.9207
10220TIP3   OH252074   2.767   6.367  10.308 -0.0054  0.0149 -0.0089
10220TIP3    H152075   2.723   6.377  10.393 -0.6160 -0.8392 -0.2183
10220TIP3    H252076   2.754   6.451  10.265  0.4893  0.5320  0.8276
10221TIP3   OH252077   0.228   3.594   5.430 -0.5039 -0.4007 -0.1236
10221TIP3    H152078   0.297   3.650   5.464 -1.0851 -0.8647  1.8934
10221TIP3    H252079   0.273   3.532   5.372  0.0615  2.4684 -2.9086
10222TIP3   OH252080   5.632   3.274   3.204 -0.1218 -0.8392 -0.8442
10222TIP3    H152081   5.629   3.281   3.299 -0.6805 -0.9886 -0.8528
10222TIP3    H252082   5.667   3.187   3.187  0.4022 -0.6445 -0.7754
10223TIP3   OH252083   1.996   1.802   3.983 -0.2110  0.1411  0.2411
10223TIP3    H152084   1.974   1.771   4.071  3.2379  0.2932  1.2177
10223TIP3    H252085   2.018   1.895   3.995  1.2263 -0.0801 -0.5961
10224TIP3   OH252086   3.215   5.382  11.496  0.5476 -0.1971  0.4194
10224TIP3    H152087   3.130   5.387  11.540  1.5028  2.5392  2.0094
10224TIP3    H252088   3.271   5.335  11.557  0.8613  0.1974  0.4308
10225TIP3   OH252089   5.690   1.709  16.207  0.2774  0.6873 -0.0792
10225TIP3    H152090   5.614   1.654  16.225  0.7914 -0.0775 -0.2547
10225TIP3    H252091   5.699   1.764  16.285  0.7740 -0.6332  0.8011
10226TIP3   OH252092   4.932   3.149  16.436  0.2718  0.0786 -0.0851
10226TIP3    H152093   5.002   3.207  16.406 -0.1605 -0.6366 -2.5422
10226TIP3    H252094   4.969   3.061  16.429 -0.1471 -0.1545  0.6399
10227TIP3   OH252095   2.246   6.155   5.665 -0.1370  0.3397 -0.1379
10227TIP3    H152096   2.267   6.087   5.601 -0.2457  0.0627  0.1136
10227TIP3    H252097   2.165   6.195   5.633 -0.6842 -0.4029  0.2909
10228TIP3   OH252098   0.742   0.404  16.642 -0.2929  1.2026  0.1645
10228TIP3    H152099   0.703   0.374  16.725 -0.9373  1.8847  0.1179
10228TIP3    H252100   0.789   0.484  16.665  2.7594 -0.6422  0.5888
10229TIP3   OH252101   2.243   0.412   2.024  0.0101  0.2917 -0.0739
10229TIP3    H152102   2.243   0.487   1.965 -1.5936  0.8825  0.6475
10229TIP3    H252103   2.160   0.419   2.072  0.2182 -1.4717  0.5941
10230TIP3   OH252104   0.622   6.644   3.733  0.4191 -0.1380  0.0466
10230TIP3    H152105   0.572   6.576   3.779  0.6419 -0.6902 -0.5067
10230TIP3    H252106   0.626   6.717   3.794  0.7727 -0.8847  0.9289
10231TIP3   OH252107   1.560   4.966   4.378 -0.5412  0.5057  0.3189
10231TIP3    H152108   1.564   4.916   4.297 -1.7397 -0.6467  0.9489
10231TIP3    H252109   1.475   5.010   4.376  0.1477  1.8627  0.1614
10232TIP3   OH252110   4.248   6.554   0.461  0.3060  0.1964 -0.3412
10232TIP3    H152111   4.217   6.463   0.460 -0.4717  0.4619 -1.6279
10232TIP3    H252112   4.256   6.576   0.553  0.8715 -1.3069 -0.0204
10233TIP3   OH252113   5.408   6.560  16.194  0.3220 -0.0199  0.1670
10233TIP3    H152114   5.422   6.579  16.101 -1.9146 -0.0661 -0.1867
10233TIP3    H252115   5.356   6.634  16.226 -2.0426 -1.7814  0.5182
10234TIP3   OH252116   0.291   1.451  12.816 -0.3308  0.5655  0.0437
10234TIP3    H152117   0.368   1.468  12.760  1.2313 -0.0078  1.9762
10234TIP3    H252118   0.239   1.388  12.767  3.1878 -3.3362  1.0586
10235TIP3   OH252119   4.709   1.902  11.918 -0.5708  0.3407 -0.0953
10235TIP3    H152120   4.639   1.870  11.975 -0.2294 -0.3889 -0.0800
10235TIP3    H252121   4.728   1.829  11.859 -0.0475  0.6441 -0.3110
10236TIP3   OH252122   1.950   0.714  16.904 -0.0349  0.1574 -0.6820
10236TIP3    H152123   1.875   0.663  16.874  1.4192 -2.2215 -0.4486
10236TIP3    H252124   1.975   0.767  16.828 -1.8012  0.8229 -0.8100
10237TIP3   OH252125   4.543   0.634  13.959 -0.2976 -0.2190 -0.0774
10237TIP3    H152126   4.460   0.631  14.008 -0.2603 -0.5719 -0.0289
10237TIP3    H252127   4.539   0.557  13.902 -1.5284  1.6354 -2.5969
10238TIP3   OH252128   3.016   6.232   3.606  0.6872 -0.6798 -0.0225
10238TIP3    H152129   3.047   6.313   3.567 -2.0275  0.0104 -0.8459
10238TIP3    H252130   3.059   6.228   3.691  1.2611  1.3604 -0.2005
10239TIP3   OH252131   0.281   5.901   1.167 -0.2154  0.0193 -0.3157
10239TIP3    H152132   0.227   5.827   1.194 -0.5573 -0.7616 -2.9954
10239TIP3    H252133   0.370   5.874   1.187 -0.3658 -1.0028 -0.9745
10240TIP3   OH252134   5.967   0.066   6.167  0.1439  0.7198 -0.1420
10240TIP3    H152135   6.002   0.144   6.125  0.6816  1.0815  0.9813
10240TIP3    H252136   6.045   0.015   6.192 -0.1949 -0.7092 -1.8266
10241TIP3   OH252137   4.521   0.528   1.152 -0.1883  0.4910  0.5456
10241TIP3    H152138   4.490   0.464   1.089 -1.3447  1.0420  0.5459
10241TIP3    H252139   4.532   0.608   1.102  1.8769  0.1475  0.4102
10242TIP3   OH252140   0.211   2.427   3.777  0.1425  0.2251 -0.3229
10242TIP3    H152141   0.215   2.418   3.872  0.5155  0.7015 -0.2902
10242TIP3    H252142   0.194   2.521   3.764  1.0335  0.3218 -0.7537
10243TIP3   OH252143   4.445   5.865  12.348  0.2277  0.6373  0.0566
10243TIP3    H152144   4.421   5.823  12.266  0.4101 -0.7303  0.6869
10243TIP3    H252145   4.470   5.954  12.323  1.5130 -0.1451 -1.5327
10244TIP3   OH252146   6.774   0.301   1.897 -0.0588 -0.0109  0.3277
10244TIP3    H152147   6.849   0.278   1.842  2.6629 -0.4789  4.0582
10244TIP3    H252148   6.774   0.397   1.899 -0.6353  0.0274 -1.0612
10245TIP3   OH252149   2.250   3.102   5.220  0.3984 -0.1638  0.0804
10245TIP3    H152150   2.209   3.136   5.299  2.1898 -1.2384  1.5188
10245TIP3    H252151   2.198   3.026   5.197 -1.4143  1.3640 -1.0450
10246TIP3   OH252152   3.421   3.676  16.974 -0.4308  0.1883  0.0421
10246TIP3    H152153   3.404   3.763  17.011  0.6463  0.0500  0.8758
10246TIP3    H252154   3.376   3.616  17.033 -0.7947  0.1423 -0.2800
10247TIP3   OH252155   4.306   4.311  12.046 -0.1156 -0.4623 -0.2255
10247TIP3    H152156   4.270   4.375  11.984 -1.8189  1.5663  2.7226
10247TIP3    H252157   4.379   4.356  12.087  0.7338 -1.6307 -0.4431
10248TIP3   OH252158   0.994   2.184  15.206 -0.2633 -0.2453 -0.4275
10248TIP3    H152159   0.908   2.205  15.244 -1.4830 -0.8155 -2.7423
10248TIP3    H252160   1.038   2.268  15.197 -1.6063  0.3595 -1.5467
10249TIP3   OH252161   5.356   0.388   4.223  0.1975 -0.7248  0.0484
10249TIP3    H152162   5.279   0.348   4.182 -0.4332  0.6424 -0.1560
10249TIP3    H252163   5.373   0.466   4.170  0.2803  0.2567  1.4879
10250TIP3   OH252164   0.640   6.552  14.131 -0.2803 -0.0016  0.0807
10250TIP3    H152165   0.633   6.565  14.225 -0.8255  0.2110  0.0163
10250TIP3    H252166   0.726   6.587  14.107 -1.0940  2.1054  0.1351
10251TIP3   OH252167   6.397   0.446  14.241  0.5297 -0.1729  0.3002
10251TIP3    H152168   6.410   0.517  14.303  1.2182  1.1924 -1.3589
10251TIP3    H252169   6.481   0.400  14.240  0.5962 -0.0493  0.1997
10252TIP3   OH252170   5.340   6.503  16.837 -0.0389 -0.5331  0.0532
10252TIP3    H152171   5.331   6.549  16.921  1.9680 -0.8490  0.4803
10252TIP3    H252172   5.376   6.417  16.861  0.0134 -0.8405 -1.0893
10253TIP3   OH252173   1.160   6.586   4.475  0.2653  0.0174  0.8273
10253TIP3    H152174   1.100   6.611   4.404  0.0579 -2.2307  0.1926
10253TIP3    H252175   1.107   6.591   4.554 -0.6754 -1.6113  0.3130
10254TIP3   OH252176   5.541   1.435   2.482  0.2704 -0.4194 -0.2348
10254TIP3    H152177   5.553   1.420   2.576  2.4573  1.3698 -0.1806
10254TIP3    H252178   5.491   1.516   2.477 -0.3242 -0.8099 -0.6197
10255TIP3   OH252179   6.128   3.852  13.352  0.2285 -0.5788 -0.0135
10255TIP3    H152180   6.223   3.855  13.362  0.1845  1.4151 -0.0230
10255TIP3    H252181   6.096   3.923  13.408 -1.3107 -1.6526  0.5087
10256TIP3   OH252182   4.189   2.552  13.538 -0.4219  0.5593 -0.2290
10256TIP3    H152183   4.139   2.529  13.616  0.6469  0.3659  0.4142
10256TIP3    H252184   4.156   2.493  13.470 -0.9184  0.2935  0.2362
10257TIP3   OH252185   6.135   6.193  15.175  0.3273 -0.2467  0.2312
10257TIP3    H152186   6.154   6.276  15.131  1.5033  0.1333  1.4253
10257TIP3    H252187   6.220   6.161  15.202 -0.1964 -1.5243  0.3721
10258TIP3   OH252188   3.770   4.966  11.661 -0.0554 -0.1860 -0.0056
10258TIP3    H152189   3.821   5.043  11.686  0.7741 -0.2671 -1.4611
10258TIP3    H252190   3.832   4.893  11.666 -0.3282 -0.4599 -0.6396
10259TIP3   OH252191   3.519   6.603  15.903  0.1711 -0.2103  0.0787
10259TIP3    H152192   3.503   6.531  15.843 -1.3639 -0.8486  1.2436
10259TIP3    H252193   3.577   6.567  15.970 -2.1489 -0.9768  1.7476
10260TIP3   OH252194   3.321   1.596   6.345 -0.2024 -0.4804  0.2515
10260TIP3    H152195   3.286   1.658   6.282  0.1511 -1.6698 -1.1518
10260TIP3    H252196   3.252   1.530   6.355  0.1256 -0.8101  0.3669
10261TIP3   OH252197   4.987   5.194  15.294 -0.5523  0.4056  0.1351
10261TIP3    H152198   4.993   5.168  15.202  1.9884 -1.2228  0.7049
10261TIP3    H252199   4.893   5.200  15.311 -1.0541  2.2508 -2.9415
10262TIP3   OH252200   6.179   5.986  16.761  0.3468 -0.4956 -0.2160
10262TIP3    H152201   6.255   5.950  16.807  1.4993 -0.1555 -1.8092
10262TIP3    H252202   6.106   5.931  16.789  1.4285 -1.7233  0.2546
10263TIP3   OH252203   5.591   0.608  16.062 -0.2716  0.4921 -0.0959
10263TIP3    H152204   5.642   0.527  16.062 -1.6048 -0.3876  1.5838
10263TIP3    H252205   5.500   0.580  16.053 -0.6790  1.8709 -0.4784
10264TIP3   OH252206   4.086   3.023  14.142 -1.0200 -0.2152  0.1407
10264TIP3    H152207   4.103   3.059  14.229  0.4853  0.4248 -0.3825
10264TIP3    H252208   4.023   3.083  14.103  2.4236  2.7818 -1.2074
10265TIP3   OH252209   2.972   3.630  15.305  0.0067 -0.2805 -0.0453
10265TIP3    H152210   2.965   3.596  15.216  1.1972  1.4133 -0.8118
10265TIP3    H252211   3.062   3.663  15.311 -0.4705  0.8150  1.3572
10266TIP3   OH252212   2.900   1.532   5.307  0.4718  0.0291 -0.0726
10266TIP3    H152213   2.995   1.531   5.312  0.4675  0.2665  0.0753
10266TIP3    H252214   2.871   1.529   5.398  0.3372 -0.2289 -0.1246
10267TIP3   OH252215   2.666   2.535   0.635 -0.4089 -0.5454 -0.0847
10267TIP3    H152216   2.607   2.607   0.616 -0.8363 -1.2457 -1.4605
10267TIP3    H252217   2.728   2.535   0.561  0.6168 -0.5234  0.7665
10268TIP3   OH252218   5.617   1.214  15.200  0.5193 -0.2361 -0.4260
10268TIP3    H152219   5.656   1.128  15.214  0.8589 -0.0163 -0.0165
10268TIP3    H252220   5.681   1.262  15.149  0.5428 -0.0663 -0.2398
10269TIP3   OH252221   1.346   5.523   5.601 -0.4639  0.4261 -0.4371
10269TIP3    H152222   1.303   5.582   5.540  0.5911  0.7020 -0.9296
10269TIP3    H252223   1.437   5.519   5.570 -0.5553 -1.5686 -0.5066
10270TIP3   OH252224   6.338   4.388   1.248  0.6487  0.2553  1.1343
10270TIP3    H152225   6.262   4.333   1.267  0.2779  0.5614  0.5647
10270TIP3    H252226   6.358   4.369   1.156  0.7879  0.7420  1.0664
10271TIP3   OH252227   6.520   3.277   0.152  0.2027 -0.2001  0.7667
10271TIP3    H152228   6.487   3.362   0.181  0.1681  0.2911 -0.6887
10271TIP3    H252229   6.611   3.294   0.127 -0.0101 -0.4393 -0.1868
10272TIP3   OH252230   5.762   5.810   1.619  0.2156 -0.3301  0.0596
10272TIP3    H152231   5.842   5.846   1.657  0.4558  0.7839 -1.4711
10272TIP3    H252232   5.697   5.879   1.628 -0.4885 -1.0866  0.9372
10273TIP3   OH252233   0.129   2.925   4.250 -0.3156  0.4599  0.0651
10273TIP3    H152234   0.209   2.978   4.241 -0.4966  1.0483  1.6829
10273TIP3    H252235   0.059   2.982   4.217 -0.3130  0.6558  0.3978
10274TIP3   OH252236   1.370   6.263   1.481 -0.3933  0.0583 -0.4452
10274TIP3    H152237   1.327   6.208   1.547  0.1311  0.1481 -0.0319
10274TIP3    H252238   1.394   6.202   1.412 -1.2162  0.0098 -0.6920
10275TIP3   OH252239   4.059   4.624  15.157 -0.5445  0.3514  0.8384
10275TIP3    H152240   4.116   4.574  15.097  0.4621  0.3310  1.7989
10275TIP3    H252241   3.972   4.616  15.119  0.0260  0.0236 -0.4329
10276TIP3   OH252242   3.895   5.936  14.421  0.3160  0.2353 -0.0219
10276TIP3    H152243   3.920   5.905  14.334  1.3673  0.9462  0.0295
10276TIP3    H252244   3.961   5.900  14.480  0.8657  1.5782  0.1933
10277TIP3   OH252245   0.457   4.262  14.315 -0.1299  0.0728  0.1478
10277TIP3    H152246   0.460   4.212  14.233  0.7523  0.6356 -0.1760
10277TIP3    H252247   0.491   4.348  14.291  0.0622  0.2624  1.0953
10278TIP3   OH252248   2.009   0.929   1.722 -0.2748 -0.1982  0.0141
10278TIP3    H152249   2.020   0.962   1.811 -0.7086 -0.8828  0.3192
10278TIP3    H252250   2.097   0.932   1.684  0.3949 -2.4546  1.3465
10279TIP3   OH252251   0.174   4.768   3.600 -0.5856  0.3079 -0.6606
10279TIP3    H152252   0.232   4.715   3.546 -0.8336 -0.5936 -0.0548
10279TIP3    H252253   0.115   4.705   3.642  2.3379  0.4831  4.0824
10280TIP3   OH252254   1.861   3.791   0.332 -0.1281 -0.1035  0.0172
10280TIP3    H152255   1.873   3.805   0.426  0.2220 -0.0360 -0.0382
10280TIP3    H252256   1.940   3.825   0.292  0.2749 -1.2862 -0.2106
10281TIP3   OH252257   5.524   6.326   2.977  0.3443  0.4639  0.3844
10281TIP3    H152258   5.433   6.343   2.952 -0.1338 -2.2876  0.0579
10281TIP3    H252259   5.521   6.304   3.070 -0.0128 -3.6683 -0.4737
10282TIP3   OH252260   1.038   3.601  15.719  0.0833 -0.1323  0.4247
10282TIP3    H152261   0.980   3.528  15.699 -0.0771  0.0531  0.2051
10282TIP3    H252262   1.078   3.578  15.803 -0.5459 -0.1165  0.7364
10283TIP3   OH252263   0.547   4.895  17.047 -0.2233 -0.3703  0.3968
10283TIP3    H152264   0.485   4.823  17.055 -0.6274 -0.1330 -0.5636
10283TIP3    H252265   0.607   4.882  17.120 -0.7748 -1.2065  0.7193
10284TIP3   OH252266   1.926   5.592   1.194 -0.3851  0.3066  0.1542
10284TIP3    H152267   1.892   5.681   1.192  0.0966  0.4913 -0.0355
10284TIP3    H252268   1.870   5.543   1.135  1.0274  1.1037 -1.9283
10285TIP3   OH252269   5.289   5.134  15.384  0.8555 -0.0816  0.4273
10285TIP3    H152270   5.296   5.055  15.437 -0.9336  0.4578  1.4882
10285TIP3    H252271   5.241   5.107  15.306  1.4247 -0.3482  0.1710
10286TIP3   OH252272   6.183   3.602   3.445 -0.3275  0.4712 -0.4699
10286TIP3    H152273   6.101   3.556   3.431 -0.4322  0.3369  0.5607
10286TIP3    H252274   6.208   3.580   3.534  0.4535  1.1028 -0.5261
10287TIP3   OH252275   2.634   1.744  12.685  0.2717 -0.1732  0.3478
10287TIP3    H152276   2.595   1.701  12.761 -0.0886  0.0482  0.2894
10287TIP3    H252277   2.724   1.711  12.683 -0.6383 -2.7343 -1.0587
10288TIP3   OH252278   4.615   2.795   2.745  0.2315  0.5763  0.0985
10288TIP3    H152279   4.586   2.754   2.663 -0.7452  0.1371  0.6484
10288TIP3    H252280   4.534   2.817   2.790  0.7697  1.0742  0.8281
10289TIP3   OH252281   2.085   5.011  14.945  0.0645 -0.0493 -0.0946
10289TIP3    H152282   1.997   4.976  14.929  0.4922 -2.4302  2.4764
10289TIP3    H252283   2.071   5.085  15.004 -0.3205  0.3928 -0.7348
10290TIP3   OH252284   6.179   5.132   1.073  0.0629 -0.2051 -0.6906
10290TIP3    H152285   6.126   5.126   1.153  2.3959 -0.3056  0.8955
10290TIP3    H252286   6.115   5.145   1.003 -1.9448  1.4264  1.3696
10291TIP3   OH252287   0.914   6.579   5.056 -0.3380 -0.4505 -0.3189
10291TIP3    H152288   1.001   6.616   5.039 -0.6348  0.6197  0.4248
10291TIP3    H252289   0.914   6.495   5.010  0.3219  0.5116 -2.1134
10292TIP3   OH252290   1.618   2.160  14.543 -0.0620 -0.3041  0.1490
10292TIP3    H152291   1.688   2.117  14.494 -2.1124 -1.4514 -1.9343
10292TIP3    H252292   1.652   2.247  14.564  1.7411 -0.6122 -1.3610
10293TIP3   OH252293   5.939   4.027  11.702  0.0670  0.3727 -0.1234
10293TIP3    H152294   5.847   4.005  11.687 -0.2155  1.6789 -0.3508
10293TIP3    H252295   5.985   3.991  11.625 -0.3751  0.5010 -0.4490
10294TIP3   OH252296   6.608   3.801   3.680  0.2272 -0.2929  0.0476
10294TIP3    H152297   6.531   3.749   3.657  1.8684 -2.0723 -1.6046
10294TIP3    H252298   6.583   3.846   3.762 -2.4816 -0.9137 -0.3837
10295TIP3   OH252299   3.529   4.676  15.456 -0.2457 -0.1818  0.0713
10295TIP3    H152300   3.624   4.674  15.460 -0.1204 -2.4407 -2.8892
10295TIP3    H252301   3.502   4.585  15.470 -2.0197  0.4691  1.1577
10296TIP3   OH252302   4.781   3.532   0.626  1.0453  0.1469  0.3913
10296TIP3    H152303   4.828   3.575   0.555  2.3599 -1.2620  0.3857
10296TIP3    H252304   4.730   3.463   0.582  2.7534 -1.4874  0.8949
10297TIP3   OH252305   3.156   0.537   1.911 -0.0045  0.1958  0.4604
10297TIP3    H152306   3.081   0.478   1.917  0.0093 -0.1097 -1.9213
10297TIP3    H252307   3.132   0.599   1.842  2.7312 -1.1239 -1.7683
10298TIP3   OH252308   4.209   6.542   1.022  0.7977  0.2716  0.5099
10298TIP3    H152309   4.213   6.552   0.927 -3.6222  2.7438  0.4140
10298TIP3    H252310   4.217   6.631   1.055  0.2911 -0.3464  2.3324
10299TIP3   OH252311   5.158   6.151  13.871  0.1047 -0.3184  0.1672
10299TIP3    H152312   5.141   6.100  13.791 -0.9419  0.8283 -0.3650
10299TIP3    H252313   5.092   6.221  13.869  0.6259  0.2298  1.5995
10300TIP3   OH252314   5.658   4.790  11.164  0.1762  0.7638 -0.1681
10300TIP3    H152315   5.567   4.776  11.139  0.2752  1.7304 -1.0692
10300TIP3    H252316   5.666   4.746  11.249 -0.4734 -1.4279 -1.2252
10301TIP3   OH252317   3.831   6.295  15.344 -0.7156  0.2613 -0.4583
10301TIP3    H152318   3.738   6.272  15.344 -0.8796  0.9189 -1.0515
10301TIP3    H252319   3.848   6.325  15.255  0.3345 -0.9252 -0.6665
10302TIP3   OH252320   1.592   1.463   3.480 -0.6235  0.1231 -0.2226
10302TIP3    H152321   1.527   1.420   3.424 -0.0794 -0.4141 -0.4481
10302TIP3    H252322   1.633   1.529   3.424  0.7536 -1.2208 -0.8250
10303TIP3   OH252323   0.287   4.469   5.420  0.1722  0.3453 -0.3536
10303TIP3    H152324   0.273   4.402   5.353 -0.5257 -0.4400  0.5545
10303TIP3    H252325   0.208   4.523   5.417 -0.3620 -0.3631  0.5758
10304TIP3   OH252326   0.346   4.367  14.547  0.0560 -0.3136 -0.0885
10304TIP3    H152327   0.376   4.303  14.483 -0.4246  0.1556 -0.7832
10304TIP3    H252328   0.375   4.451  14.513 -2.0576  0.1497 -0.7914
10305TIP3   OH252329   0.666   4.848   4.884  0.4423 -0.1167 -0.1703
10305TIP3    H152330   0.577   4.815   4.873  0.7448 -0.6286 -1.1675
10305TIP3    H252331   0.709   4.829   4.801  1.2107  0.9968 -0.0418
10306TIP3   OH252332   2.671   0.728   4.410 -0.0953  0.3685  0.9695
10306TIP3    H152333   2.733   0.711   4.339 -1.2989  3.3351 -0.9109
10306TIP3    H252334   2.592   0.679   4.384 -1.6300  3.9473 -1.5148
10307TIP3   OH252335   5.153   5.394   1.250 -0.1528  0.1841  0.4298
10307TIP3    H152336   5.194   5.315   1.286  0.8252 -0.4336 -1.9625
10307TIP3    H252337   5.061   5.387   1.275  0.0281 -1.4494  0.6886
10308TIP3   OH252338   4.838   3.996  14.812 -0.0593  0.1348  0.3286
10308TIP3    H152339   4.888   4.076  14.794  3.0961 -1.4432  1.7948
10308TIP3    H252340   4.763   4.026  14.864  0.0227  2.3745 -0.7824
10309TIP3   OH252341   2.350   2.743   5.329  0.2785  0.3989  0.5060
10309TIP3    H152342   2.315   2.747   5.240  1.6832  0.7316 -0.0436
10309TIP3    H252343   2.408   2.666   5.328  0.8841  0.8466  0.9074
10310TIP3   OH252344   4.641   6.664  14.729 -0.3409  0.4897  0.3571
10310TIP3    H152345   4.639   6.748  14.683  0.0973  0.6325  0.5957
10310TIP3    H252346   4.729   6.659  14.766 -0.5176  0.1331  0.7343
10311TIP3   OH252347   1.506   4.007   3.602  0.0014 -0.4092  0.8846
10311TIP3    H152348   1.467   3.925   3.631 -1.8024  0.1242  0.0633
10311TIP3    H252349   1.524   4.056   3.683  0.0631 -1.1502  1.3180
10312TIP3   OH252350   3.140   5.251   6.139  0.3317 -0.1122  0.0616
10312TIP3    H152351   3.046   5.269   6.135  0.3985  0.6719  1.7872
10312TIP3    H252352   3.154   5.214   6.226  1.8930  1.2751  0.4156
10313TIP3   OH252353   0.259   6.194   6.375 -0.2190  0.0878 -0.2818
10313TIP3    H152354   0.186   6.134   6.358 -1.2043  1.3209 -0.4308
10313TIP3    H252355   0.337   6.139   6.363 -1.0985 -1.1548 -0.4821
10314TIP3   OH252356   3.884   5.298   1.882 -0.3753  0.2418  0.2940
10314TIP3    H152357   3.889   5.247   1.963  1.0557 -0.6782 -0.3490
10314TIP3    H252358   3.922   5.383   1.905  0.3006 -0.1152  0.5283
10315TIP3   OH252359   5.241   2.368   2.924  0.5646 -0.1138  1.0455
10315TIP3    H152360   5.210   2.459   2.917 -1.9300 -1.0211 -0.6131
10315TIP3    H252361   5.190   2.331   2.996 -0.6475 -1.0039 -0.2403
10316TIP3   OH252362   4.404   0.560  14.175 -0.1624 -0.2132  0.1207
10316TIP3    H152363   4.465   0.553  14.249 -2.2631 -2.2216  1.7764
10316TIP3    H252364   4.333   0.615  14.208 -2.1781 -2.8796  0.4576
10317TIP3   OH252365   5.230   0.505   2.808  0.0828 -0.1686 -0.5707
10317TIP3    H152366   5.281   0.586   2.811  2.1170 -1.4378  0.1336
10317TIP3    H252367   5.185   0.508   2.723  2.0681  0.5708 -1.6296
10318TIP3   OH252368   0.345   5.028   3.954  0.1738 -0.2292 -0.1480
10318TIP3    H152369   0.411   5.096   3.940 -1.2806  1.5454  1.4059
10318TIP3    H252370   0.275   5.051   3.893 -0.8129  0.3567  1.1878
10319TIP3   OH252371   4.606   2.890  14.359  0.5410 -0.1234  0.0142
10319TIP3    H152372   4.658   2.843  14.294  0.8747 -0.9512  0.8614
10319TIP3    H252373   4.558   2.822  14.405 -1.3174  0.6401 -0.7471
10320TIP3   OH252374   5.575   1.380   4.914 -0.1081 -0.0347  0.7521
10320TIP3    H152375   5.549   1.455   4.861 -2.6757 -1.3495  0.0729
10320TIP3    H252376   5.598   1.313   4.850  1.1438 -0.1908  1.3519
10321TIP3   OH252377   4.413   1.848   5.574 -0.3872 -0.5014  0.1069
10321TIP3    H152378   4.341   1.895   5.533 -1.6755 -0.9183  1.8237
10321TIP3    H252379   4.442   1.785   5.508 -2.9492 -1.7217  0.0946
10322TIP3   OH252380   3.323   1.219  15.761 -0.2669  0.2975  0.5550
10322TIP3    H152381   3.254   1.278  15.732  0.6408  0.8659 -0.4866
10322TIP3    H252382   3.404   1.269  15.748  0.4089 -0.7094  0.8550
10323TIP3   OH252383   4.139   3.357  11.688 -0.0054 -0.0348  0.4565
10323TIP3    H152384   4.077   3.334  11.619  1.3251  1.3721 -1.2615
10323TIP3    H252385   4.085   3.363  11.767 -1.7699 -0.4728 -0.6827
10324TIP3   OH252386   2.307   5.285  15.118 -0.2889 -0.6648  0.2973
10324TIP3    H152387   2.248   5.361  15.116 -0.7680 -1.0229  0.6602
10324TIP3    H252388   2.365   5.298  15.044 -0.3428  0.0826  0.3815
10325TIP3   OH252389   2.229   0.667   0.598  0.0840 -0.7407 -0.2461
10325TIP3    H152390   2.145   0.637   0.563 -0.0870  0.4988 -0.9545
10325TIP3    H252391   2.241   0.618   0.679 -0.8757 -1.6060 -0.6213
10326TIP3   OH252392   5.729   1.649  12.756 -0.2024  0.2322  0.0211
10326TIP3    H152393   5.664   1.711  12.789  1.0485  1.9950 -0.7616
10326TIP3    H252394   5.749   1.679  12.668  2.4658  0.3718  0.6189
10327TIP3   OH252395   5.858   3.129   4.022 -0.4543  0.1143 -0.0285
10327TIP3    H152396   5.937   3.170   3.987 -0.4139  0.2326  0.2002
10327TIP3    H252397   5.872   3.126   4.116  0.4256 -2.2190 -0.1837
10328TIP3   OH252398   2.896   1.972   4.189 -0.1275  0.4746  0.3771
10328TIP3    H152399   2.948   1.941   4.115  0.6521  1.9048  0.3057
10328TIP3    H252400   2.904   2.068   4.185 -0.2436  0.5674  2.1901
10329TIP3   OH252401   4.369   2.644   4.185  0.0947  0.0882  0.4015
10329TIP3    H152402   4.386   2.710   4.252 -0.4631  0.9523 -0.2901
10329TIP3    H252403   4.285   2.606   4.209  0.5906 -0.6515  1.0095
10330TIP3   OH252404   4.544   5.703   4.819  0.4395 -0.2300 -0.2603
10330TIP3    H152405   4.568   5.737   4.733  1.1986 -0.6725 -0.2277
10330TIP3    H252406   4.588   5.761   4.881 -0.3293  0.2561 -0.1581
10331TIP3   OH252407   3.417   6.565  13.416 -0.2317 -0.1077  0.0243
10331TIP3    H152408   3.463   6.527  13.341 -1.2289  0.7185 -1.0355
10331TIP3    H252409   3.485   6.578  13.482  0.6568 -0.8857 -0.7267
10332TIP3   OH252410   5.226   5.048  15.100 -0.0177  1.0908 -0.7675
10332TIP3    H152411   5.242   4.954  15.089  1.1733  0.9852  1.6433
10332TIP3    H252412   5.133   5.058  15.079 -0.1418 -0.5992 -1.1507
10333TIP3   OH252413   1.610   6.429  16.299  0.3765  0.2493  0.0791
10333TIP3    H152414   1.573   6.367  16.361 -1.9322  1.4411 -0.0482
10333TIP3    H252415   1.536   6.456  16.244  1.5181  2.3098 -0.5330
10334TIP3   OH252416   4.637   4.086  12.150 -0.0060  0.0399  0.1261
10334TIP3    H152417   4.594   4.004  12.127 -1.3367  0.3811  1.3761
10334TIP3    H252418   4.675   4.117  12.067 -0.6313 -1.1502 -0.6182
10335TIP3   OH252419   2.579   5.181   3.791  0.6359  0.2532  0.2184
10335TIP3    H152420   2.648   5.210   3.851  0.1124  1.2642  0.3523
10335TIP3    H252421   2.539   5.263   3.760 -0.0037 -0.3074 -0.4353
10336TIP3   OH252422   4.505   0.276  17.080 -0.5071  0.5563  0.4039
10336TIP3    H152423   4.530   0.337  17.011 -0.0201 -0.2248 -0.1179
10336TIP3    H252424   4.418   0.245  17.055 -0.8497  1.1928  0.7844
10337TIP3   OH252425   3.892   0.910   0.163  0.5614 -0.2035  0.5811
10337TIP3    H152426   3.819   0.963   0.194 -0.3265 -0.4919 -1.0017
10337TIP3    H252427   3.859   0.820   0.165  0.4588 -0.2079 -1.3147
10338TIP3   OH252428   2.712   2.057   1.160 -0.6376  0.7050 -0.4245
10338TIP3    H152429   2.732   2.100   1.077 -0.7967 -1.9087 -1.8338
10338TIP3    H252430   2.617   2.065   1.168 -0.7646 -0.1647 -1.1053
10339TIP3   OH252431   3.491   1.635  14.668 -0.7347 -0.0853 -0.5910
10339TIP3    H152432   3.441   1.673  14.596 -1.9264  1.5157  1.0382
10339TIP3    H252433   3.427   1.624  14.738  0.5425 -1.0148  0.4547
10340TIP3   OH252434   4.416   0.125  13.068  0.5179  0.0678  0.6940
10340TIP3    H152435   4.474   0.137  13.144  1.9100 -0.0224 -0.3511
10340TIP3    H252436   4.382   0.036  13.078  2.3404 -0.7117  0.0903
10341TIP3   OH252437   4.569   1.190   0.098 -0.2284 -0.1262 -0.4384
10341TIP3    H152438   4.549   1.111   0.049  1.8337 -0.6978 -0.4108
10341TIP3    H252439   4.543   1.170   0.188 -0.9013 -0.3105 -0.6772
10342TIP3   OH252440   3.486   4.740   0.233 -0.0229  0.0024 -0.0092
10342TIP3    H152441   3.435   4.673   0.278 -0.8089 -1.1822 -2.5918
10342TIP3    H252442   3.426   4.814   0.223  0.7398  1.0472  2.5203
10343TIP3   OH252443   0.685   0.803  14.034  0.0674 -0.3074  0.5147
10343TIP3    H152444   0.605   0.761  14.003  0.4055  0.5859 -1.6930
10343TIP3    H252445   0.667   0.897  14.031  1.0241 -0.1118  0.4480
10344TIP3   OH252446   1.406   1.225  13.360 -0.3988  0.1381 -0.2751
10344TIP3    H152447   1.345   1.216  13.287 -1.0006 -1.6347  0.4185
10344TIP3    H252448   1.476   1.163  13.340  0.3225  0.9278 -0.2175
10345TIP3   OH252449   4.363   2.336   0.823  0.0017  0.1273  0.1606
10345TIP3    H152450   4.429   2.404   0.812  2.2308 -1.6164  2.3950
10345TIP3    H252451   4.285   2.384   0.853 -0.0426  2.2674 -3.0714
10346TIP3   OH252452   1.628   4.661  14.871  0.5103 -0.1442 -0.4534
10346TIP3    H152453   1.575   4.588  14.904  0.5427 -0.6814 -1.5619
10346TIP3    H252454   1.697   4.672  14.936 -1.2366  0.8975  1.2918
10347TIP3   OH252455   3.772   3.829   2.187 -0.5073  0.5045  0.3149
10347TIP3    H152456   3.771   3.900   2.251 -2.1508  0.6432  0.1402
10347TIP3    H252457   3.682   3.822   2.156  0.1131 -0.0307 -1.4731
10348TIP3   OH252458   2.138   3.292  16.312  0.1102  0.1043  0.1411
10348TIP3    H152459   2.170   3.380  16.331 -0.0833 -0.0158  1.0497
10348TIP3    H252460   2.044   3.302  16.295  0.2713  0.2032 -0.7307
10349TIP3   OH252461   5.987   1.510  12.087  0.0347 -0.2045 -0.5631
10349TIP3    H152462   6.051   1.571  12.052 -0.6054  0.6636 -0.2564
10349TIP3    H252463   5.970   1.542  12.176 -1.4172  0.0610 -0.9283
10350TIP3   OH252464   4.631   2.740  12.786  0.5515 -0.1745 -0.1827
10350TIP3    H152465   4.677   2.660  12.759  1.0455  0.8397 -2.5013
10350TIP3    H252466   4.551   2.740  12.734  1.2409  1.5531 -1.2792
10351TIP3   OH252467   4.876   4.122   5.373 -0.5883 -0.2057  0.2351
10351TIP3    H152468   4.812   4.167   5.428 -0.1353  1.8055 -0.8535
10351TIP3    H252469   4.927   4.192   5.332  1.2705 -1.7443 -0.1515
10352TIP3   OH252470   0.327   0.180   3.738 -0.4522  0.7913 -0.0323
10352TIP3    H152471   0.308   0.096   3.779 -0.8913  0.8398 -0.1264
10352TIP3    H252472   0.386   0.225   3.798  0.2498  0.1763 -0.2610
10353TIP3   OH252473   1.359   4.983  16.500 -0.5384 -0.6528  0.6274
10353TIP3    H152474   1.350   5.078  16.507  3.9787 -0.1507  1.3146
10353TIP3    H252475   1.344   4.951  16.589 -2.5447 -0.6813  0.2997
10354TIP3   OH252476   1.766   5.114  12.994 -0.1931  0.2899  0.1015
10354TIP3    H152477   1.740   5.089  12.905  0.6123 -2.2746  0.5220
10354TIP3    H252478   1.692   5.164  13.028 -0.7131  0.8738 -1.8450
10355TIP3   OH252479   1.488   4.254  11.166 -0.1894 -0.0117 -0.3752
10355TIP3    H152480   1.577   4.223  11.150 -0.0920  0.1720 -0.1870
10355TIP3    H252481   1.448   4.185  11.219  0.5242  0.9044  1.3947
10356TIP3   OH252482   4.539   4.687   5.500  0.1209  0.4770 -0.0016
10356TIP3    H152483   4.547   4.700   5.405 -0.7550  0.2580 -0.1069
10356TIP3    H252484   4.448   4.661   5.513  0.8186 -1.7171  0.6422
10357TIP3   OH252485   0.382   2.168   4.130 -0.6326  0.2711  0.2826
10357TIP3    H152486   0.331   2.101   4.085  1.3775 -1.5254  0.6310
10357TIP3    H252487   0.424   2.217   4.059 -1.2542  0.4954  0.0648
10358TIP3   OH252488   6.084   4.727  13.330  0.0556 -0.0597  0.4367
10358TIP3    H152489   6.083   4.815  13.293 -1.2436  0.4101  1.5398
10358TIP3    H252490   6.034   4.674  13.269 -0.0555  0.1869  0.3152
10359TIP3   OH252491   5.472   0.043  14.106  0.4710 -0.0175  0.6373
10359TIP3    H152492   5.459   0.084  14.021 -0.6978  2.3658  1.9136
10359TIP3    H252493   5.566   0.050  14.122  0.9517 -1.9146 -1.1109
10360TIP3   OH252494   3.574   4.178   0.168 -0.4061 -0.0583  0.4064
10360TIP3    H152495   3.566   4.273   0.176 -0.3379  0.1168 -1.3148
10360TIP3    H252496   3.595   4.147   0.256  1.0408  1.6740  0.6714
10361TIP3   OH252497   1.684   0.954  10.912 -0.4889  0.2824 -0.6559
10361TIP3    H152498   1.707   0.916  10.997 -0.4737  1.1071 -0.2786
10361TIP3    H252499   1.739   1.032  10.906  0.8185 -0.7349 -2.2249
10362TIP3   OH252500   5.229   2.202  15.074 -0.5371 -0.0934  0.0396
10362TIP3    H152501   5.265   2.290  15.071  2.3064 -1.2470 -5.1405
10362TIP3    H252502   5.300   2.147  15.107 -1.5964 -0.8323  1.1937
10363TIP3   OH252503   4.105   0.647   3.269  0.3946  0.9289  0.0950
10363TIP3    H152504   4.066   0.610   3.191  0.4487  1.6697 -0.2870
10363TIP3    H252505   4.064   0.733   3.279 -1.5341 -0.2083  2.3568
10364TIP3   OH252506   2.387   0.171   4.858 -0.0443 -0.4520  0.0089
10364TIP3    H152507   2.297   0.140   4.851  0.2298 -1.1766 -0.2714
10364TIP3    H252508   2.426   0.151   4.773 -0.2862  2.0009 -0.7122
10365TIP3   OH252509   2.485   3.017   2.124  0.0410 -0.8855 -0.5331
10365TIP3    H152510   2.456   2.952   2.060 -1.0743 -1.5525  0.6410
10365TIP3    H252511   2.428   3.005   2.199  1.3908 -0.1676  0.6420
10366TIP3   OH252512   4.240   0.544   2.860  0.4268 -0.6262 -0.4666
10366TIP3    H152513   4.158   0.528   2.907 -0.6620  0.8981 -1.8120
10366TIP3    H252514   4.289   0.603   2.917  1.6469 -3.3423  1.4316
10367TIP3   OH252515   4.853   2.803   2.650 -0.5793  0.8836 -0.4651
10367TIP3    H152516   4.900   2.851   2.718  1.1052 -2.9985  1.3200
10367TIP3    H252517   4.762   2.803   2.679 -0.0130  0.0096  1.4023
10368TIP3   OH252518   2.080   5.343   2.184 -0.4118  0.7044 -0.1653
10368TIP3    H152519   2.025   5.388   2.249  0.5140 -0.5261  1.5229
10368TIP3    H252520   2.062   5.250   2.198  1.2853  0.3410 -0.3323
10369TIP3   OH252521   2.264   3.886   4.638  0.7980  0.0858 -0.0014
10369TIP3    H152522   2.239   3.888   4.731 -0.9081  0.6985 -0.4473
10369TIP3    H252523   2.354   3.917   4.637  1.4258 -1.5737  1.6261
10370TIP3   OH252524   4.626   3.696   2.251 -0.8777 -0.1314 -0.5856
10370TIP3    H152525   4.634   3.611   2.293 -0.0042  0.6511  0.8780
10370TIP3    H252526   4.699   3.699   2.189  0.7871  0.6321  1.3525
10371TIP3   OH252527   3.624   3.605   5.363 -0.2418 -0.3210 -0.4625
10371TIP3    H152528   3.639   3.591   5.457  0.6615 -0.4059 -0.6100
10371TIP3    H252529   3.612   3.517   5.328 -2.4591 -0.1671 -0.1347
10372TIP3   OH252530   5.420   0.175   3.829  0.3708 -0.3779 -0.0356
10372TIP3    H152531   5.419   0.084   3.858  2.1408 -0.1751  0.6888
10372TIP3    H252532   5.513   0.198   3.822 -0.0436  0.9682 -1.4879
10373TIP3   OH252533   6.724   6.114   0.065 -0.3939 -0.4158  0.3064
10373TIP3    H152534   6.749   6.109   0.158 -0.5822 -0.0706  0.3760
10373TIP3    H252535   6.628   6.108   0.066 -0.5042  1.3083  0.2567
10374TIP3   OH252536   5.294   4.790  16.164  0.1563  0.4000 -0.2854
10374TIP3    H152537   5.300   4.845  16.086  0.6363 -0.5751 -0.9573
10374TIP3    H252538   5.342   4.839  16.231  0.7493  0.7195 -0.9282
10375TIP3   OH252539   0.286   2.077   0.222 -0.2783  0.1215 -0.3820
10375TIP3    H152540   0.322   2.083   0.311 -2.2847  0.4654  0.4350
10375TIP3    H252541   0.271   2.169   0.197 -0.1115  0.0040 -0.9011
10376TIP3   OH252542   6.007   1.458   1.356 -0.1697  0.3386 -0.5705
10376TIP3    H152543   5.996   1.363   1.364  1.1392  0.1139 -1.1473
10376TIP3    H252544   5.920   1.494   1.368 -0.6897 -0.9499 -0.3931
10377TIP3   OH252545   5.093   0.864  11.310  0.3449 -0.3428 -0.2739
10377TIP3    H152546   5.101   0.959  11.300  0.0479 -0.3000 -0.1143
10377TIP3    H252547   5.150   0.843  11.384 -0.4239 -0.1412  0.3845
10378TIP3   OH252548   5.497   1.194  14.640 -0.2552  0.0237  0.3113
10378TIP3    H152549   5.422   1.145  14.605  0.6668 -0.3404 -1.2323
10378TIP3    H252550   5.458   1.258  14.700 -1.5817 -1.8154  1.4828
10379TIP3   OH252551   2.116   0.225  15.899 -0.3084 -0.2220  0.7165
10379TIP3    H152552   2.163   0.286  15.842 -2.9936  1.3427  0.0820
10379TIP3    H252553   2.140   0.138  15.866 -1.1869  0.6333 -2.3196
10380TIP3   OH252554   5.234   0.892   1.759 -0.8945  0.4646 -0.1661
10380TIP3    H152555   5.180   0.853   1.690  0.1345 -1.8567  0.3145
10380TIP3    H252556   5.171   0.938   1.815 -1.8423  1.6341 -2.1240
10381TIP3   OH252557   1.066   4.532  13.823  0.9071  0.0892  0.4356
10381TIP3    H152558   1.076   4.585  13.744 -0.1058 -1.1194 -0.5291
10381TIP3    H252559   1.002   4.464  13.799  1.6108 -1.1236  1.8584
10382TIP3   OH252560   3.374   0.425  12.622 -0.5561 -0.2132  0.0374
10382TIP3    H152561   3.394   0.344  12.670 -0.0337  0.1300  0.3905
10382TIP3    H252562   3.458   0.467  12.608 -0.9001  0.6482  0.5086
10383TIP3   OH252563   5.171   5.608  10.864 -0.2302  0.2201 -0.5274
10383TIP3    H152564   5.190   5.669  10.935 -2.0073 -0.2286  0.3377
10383TIP3    H252565   5.237   5.629  10.797 -0.7786  3.0833 -0.2432
10384TIP3   OH252566   5.863   4.809   4.298  0.7736  0.4468 -0.6077
10384TIP3    H152567   5.870   4.722   4.260 -0.7757 -0.9961  2.2987
10384TIP3    H252568   5.771   4.817   4.324  1.0364  2.7003 -0.2173
10385TIP3   OH252569   0.363   2.731   1.648  0.0390 -0.1445 -0.4171
10385TIP3    H152570   0.440   2.780   1.618 -0.2530  1.0208  0.7348
10385TIP3    H252571   0.387   2.698   1.734 -0.9201  0.6087  0.1443
10386TIP3   OH252572   3.900   4.977   1.545  0.3542 -0.0415  0.2746
10386TIP3    H152573   3.903   4.957   1.639  1.2312  1.0244  0.4917
10386TIP3    H252574   3.894   5.072   1.542 -0.3930 -0.1211 -0.7525
10387TIP3   OH252575   6.120   2.472  12.174 -0.1472 -0.4622 -0.0191
10387TIP3    H152576   6.134   2.529  12.098  1.7289 -1.5639 -0.5320
10387TIP3    H252577   6.104   2.385  12.136  0.4347 -0.9462  0.8266
10388TIP3   OH252578   1.930   5.907   3.062 -1.1155  0.2460 -0.4515
10388TIP3    H152579   1.982   5.834   3.096 -2.3868  0.5155  2.1926
10388TIP3    H252580   1.994   5.971   3.033  0.0267 -0.8763 -0.4551
10389TIP3   OH252581   3.427   0.646   5.735 -0.5447  0.7274 -0.3318
10389TIP3    H152582   3.475   0.681   5.661 -1.5828  1.0410 -0.8665
10389TIP3    H252583   3.356   0.595   5.696 -0.9519  0.6954  0.4436
10390TIP3   OH252584   4.799   6.729   5.207 -0.2273  0.5507 -0.2706
10390TIP3    H152585   4.867   6.663   5.221 -2.1114 -1.4127 -0.2464
10390TIP3    H252586   4.768   6.750   5.295 -1.2214 -0.2325 -0.4326
10391TIP3   OH252587   3.802   5.645   1.015 -0.6030  0.0748  0.1220
10391TIP3    H152588   3.722   5.698   1.008 -1.0614 -0.9139 -2.5533
10391TIP3    H252589   3.782   5.565   0.967  1.3525 -1.0095  1.0596
10392TIP3   OH252590   3.289   0.508  15.652  0.2185 -0.1473  0.1912
10392TIP3    H152591   3.385   0.503  15.651  0.3155  1.5294 -1.2115
10392TIP3    H252592   3.261   0.435  15.596  0.6231 -1.2660  1.4164
10393TIP3   OH252593   1.217   1.247  16.908 -0.6764  0.1474  0.2230
10393TIP3    H152594   1.302   1.260  16.867 -0.2180 -1.3340  0.6884
10393TIP3    H252595   1.235   1.233  17.000 -1.4010 -0.3968  0.2936
10394TIP3   OH252596   4.266   2.856   4.350 -0.2715 -0.1869 -0.2741
10394TIP3    H152597   4.267   2.932   4.292 -0.0905 -1.2339 -1.6939
10394TIP3    H252598   4.175   2.850   4.380 -0.4251  0.2255 -0.6524
10395TIP3   OH252599   4.678   2.198   0.663  0.1700 -0.3169  0.1079
10395TIP3    H152600   4.757   2.185   0.716  0.1859 -0.8090 -0.0349
10395TIP3    H252601   4.673   2.119   0.609 -0.0431  0.0255 -0.3667
10396TIP3   OH252602   0.834   3.766  13.376  0.0664 -0.3507 -0.4418
10396TIP3    H152603   0.912   3.808  13.413  0.2145 -0.8573 -0.1746
10396TIP3    H252604   0.802   3.709  13.446 -0.2249 -0.5640 -0.7497
10397TIP3   OH252605   1.223   1.726   2.215 -0.9510  0.7271  0.3484
10397TIP3    H152606   1.159   1.655   2.222 -0.1880  0.1576  1.6782
10397TIP3    H252607   1.196   1.790   2.281 -1.3061  1.4176 -0.4583
10398TIP3   OH252608   5.850   0.048  15.012 -0.3024  0.3004 -0.3464
10398TIP3    H152609   5.795   0.125  14.992 -0.8207 -0.2111 -0.9244
10398TIP3    H252610   5.820  -0.019  14.951 -0.1559 -0.5050  0.4554
10399TIP3   OH252611   0.540   4.682  15.353 -0.1858 -0.3590  0.5529
10399TIP3    H152612   0.512   4.601  15.310  2.5085 -2.0594  1.8560
10399TIP3    H252613   0.605   4.718  15.293 -2.2608  1.5508 -0.6217
10400TIP3   OH252614   2.263   2.207   0.486  0.0173  0.0750 -0.0163
10400TIP3    H152615   2.246   2.295   0.520  0.0747 -0.2048  0.7332
10400TIP3    H252616   2.264   2.219   0.391  2.2397  1.2890  0.1306
10401TIP3   OH252617   0.684   2.279  14.231 -0.0784 -0.3683  0.0508
10401TIP3    H152618   0.624   2.310  14.298 -0.1854  0.2022 -0.3072
10401TIP3    H252619   0.706   2.190  14.258 -1.0926 -0.5829  0.1750
10402TIP3   OH252620   5.548   4.340  14.231  0.0933 -0.4209  0.0754
10402TIP3    H152621   5.475   4.395  14.205  0.5624  0.4048  0.4793
10402TIP3    H252622   5.590   4.315  14.149  0.4317  0.5973 -0.0639
10403TIP3   OH252623   3.577   2.798  17.238 -0.4117  0.1121  0.0882
10403TIP3    H152624   3.608   2.785  17.148 -0.1252 -1.2902  0.3833
10403TIP3    H252625   3.551   2.891  17.241 -3.1994 -0.5030 -2.3110
10404TIP3   OH252626   4.155   1.649  17.117 -0.8047  0.2467 -0.0308
10404TIP3    H152627   4.183   1.557  17.114 -1.3262  0.0526  0.8305
10404TIP3    H252628   4.061   1.646  17.100 -0.5336  0.7885 -1.6996
10405TIP3   OH252629   0.957   0.759   5.117 -0.2848 -0.0364 -0.2960
10405TIP3    H152630   0.886   0.784   5.176 -2.0930 -0.1790 -2.3520
10405TIP3    H252631   1.001   0.686   5.162 -0.8624  0.6472  1.4072
10406TIP3   OH252632   4.551   0.043   3.011 -0.6951 -0.0257  0.1534
10406TIP3    H152633   4.574  -0.025   2.948  0.1714 -0.0651  0.5011
10406TIP3    H252634   4.461   0.066   2.990 -0.5040 -0.2274 -0.9360
10407TIP3   OH252635   6.122   0.587  12.380 -0.0073  0.6246  0.7296
10407TIP3    H152636   6.164   0.667  12.349  2.3048 -0.5001  0.8508
10407TIP3    H252637   6.105   0.603  12.473  0.4893  0.9852  0.7617
10408TIP3   OH252638   5.785   0.440  15.286  0.0217 -0.4799 -0.3422
10408TIP3    H152639   5.857   0.498  15.264  0.1272 -0.3315  0.3861
10408TIP3    H252640   5.738   0.485  15.357  0.0751 -1.2522  0.1891
10409TIP3   OH252641   3.345   3.084   5.356  0.1396  0.1958 -0.5178
10409TIP3    H152642   3.380   3.024   5.422 -0.1653 -0.2831 -0.7820
10409TIP3    H252643   3.308   3.156   5.406  2.4845  1.2639 -0.2764
10410TIP3   OH252644   4.784   6.746  12.426 -0.0749 -0.2796  0.4923
10410TIP3    H152645   4.700   6.711  12.454 -1.0773  1.8193  0.1699
10410TIP3    H252646   4.767   6.786  12.341  1.3903 -0.3912  0.1288
10411TIP3   OH252647   2.561   5.789  16.352 -0.2260  0.6909  0.8839
10411TIP3    H152648   2.557   5.882  16.326  0.8261  0.8599  1.3035
10411TIP3    H252649   2.638   5.755  16.307  0.1303  0.3388  1.7562
10412TIP3   OH252650   5.488   0.074   0.360  0.0906  0.7323  0.2223
10412TIP3    H152651   5.574   0.077   0.401 -0.5348  0.6076  1.5754
10412TIP3    H252652   5.427   0.076   0.433 -1.0807  2.0244 -0.7680
10413TIP3   OH252653   2.553   6.643  10.673  0.6038  0.0979  0.1096
10413TIP3    H152654   2.539   6.720  10.617  1.5816  1.1081  1.2183
10413TIP3    H252655   2.465   6.608  10.687  0.3150 -0.0955 -1.9089
10414TIP3   OH252656   5.011   6.069  14.188  0.3806  0.0554  0.1640
10414TIP3    H152657   5.060   6.151  14.189 -0.5479  0.6107  0.5926
10414TIP3    H252658   5.055   6.016  14.122  0.0127  1.5293 -1.3191
10415TIP3   OH252659   4.572   1.410  12.646  0.4332  0.1408 -0.6290
10415TIP3    H152660   4.528   1.495  12.652 -0.0143 -0.2346  1.9259
10415TIP3    H252661   4.664   1.431  12.632  0.3826  1.0450  0.4272
10416TIP3   OH252662   2.989   4.389   0.353  0.0716 -0.2206 -0.5269
10416TIP3    H152663   3.046   4.378   0.278 -1.9477 -1.2048 -1.9645
10416TIP3    H252664   2.964   4.481   0.352 -0.2458 -0.3165 -1.2810
10417TIP3   OH252665   3.766   2.825  11.985  0.4385 -0.3298  0.0360
10417TIP3    H152666   3.721   2.760  12.038 -1.3152  0.6028 -0.2724
10417TIP3    H252667   3.735   2.909  12.019  1.4743  0.3159 -0.5980
10418TIP3   OH252668   2.277   3.742   0.187 -0.1090  0.4277  0.0657
10418TIP3    H152669   2.220   3.819   0.190 -0.2814  0.3044 -0.0256
10418TIP3    H252670   2.242   3.689   0.115 -0.2327  0.0807  0.3804
10419TIP3   OH252671   5.406   3.087  12.403 -0.4191  0.4922 -0.0462
10419TIP3    H152672   5.476   3.090  12.469  0.2842  0.3436 -0.7765
10419TIP3    H252673   5.336   3.141  12.440  0.1707  0.8233  0.5973
10420TIP3   OH252674   2.051   6.590  12.541  0.1240 -0.3911 -0.9177
10420TIP3    H152675   2.120   6.649  12.514 -1.4954  1.0040 -2.1312
10420TIP3    H252676   2.001   6.573  12.461 -2.2035  0.3822  0.3111
10421TIP3   OH252677   4.125   3.225  11.207 -0.2939  0.2145 -0.7682
10421TIP3    H152678   4.060   3.158  11.184 -0.3728  0.0729 -0.1491
10421TIP3    H252679   4.104   3.299  11.150 -2.7759  1.2049  1.3177
10422TIP3   OH252680   5.203   3.496  13.477  0.7718  0.3652 -0.9142
10422TIP3    H152681   5.221   3.477  13.569 -0.0143  1.2788 -0.5641
10422TIP3    H252682   5.121   3.452  13.458  1.0508 -0.0139 -1.2435
10423TIP3   OH252683   6.202   6.002   0.260  0.0560  0.1406 -0.2342
10423TIP3    H152684   6.133   6.012   0.325 -1.0560 -0.6832 -1.2600
10423TIP3    H252685   6.199   5.909   0.236  3.0965 -0.4209  1.4163
10424TIP3   OH252686   5.969   3.402  14.793  0.5041 -0.5642  0.1666
10424TIP3    H152687   5.994   3.365  14.877 -1.1290 -0.9268  0.5084
10424TIP3    H252688   5.915   3.335  14.752  0.6213 -0.0623 -0.8213
10425TIP3   OH252689   4.722   2.513   5.611 -0.3713  0.2203 -0.0348
10425TIP3    H152690   4.665   2.448   5.570  0.0496 -0.1787  0.0182
10425TIP3    H252691   4.679   2.532   5.695  0.0438 -0.7554  0.4110
10426TIP3   OH252692   3.770   2.727   2.188  0.3127  0.3976  0.4639
10426TIP3    H152693   3.801   2.669   2.119 -0.1673  0.0244  0.5571
10426TIP3    H252694   3.685   2.690   2.214 -1.0389  2.3690 -0.9855
10427TIP3   OH252695   2.711   0.542  15.765 -0.2822 -0.6853 -0.0804
10427TIP3    H152696   2.667   0.543  15.850 -0.1569  2.9265  0.0298
10427TIP3    H252697   2.799   0.509  15.783 -0.3395 -0.1646  1.1500
10428TIP3   OH252698   5.906   0.222   6.435  0.2647 -0.0829 -0.1672
10428TIP3    H152699   5.992   0.260   6.415  0.5311 -0.5674  0.0600
10428TIP3    H252700   5.909   0.134   6.397  0.2235 -0.4609  0.7001
10429TIP3   OH252701   5.488   4.690  15.393 -0.4532  0.4823 -0.3540
10429TIP3    H152702   5.539   4.652  15.321 -1.2036 -1.2346 -0.0228
10429TIP3    H252703   5.552   4.739  15.445  0.4721  0.0464 -1.0649
10430TIP3   OH252704   3.241   0.775  14.371 -0.0362 -0.0978  0.0555
10430TIP3    H152705   3.263   0.728  14.290 -0.9021 -1.6733  0.7150
10430TIP3    H252706   3.293   0.855  14.366  0.2335 -0.3502 -1.8754
10431TIP3   OH252707   6.464   3.294  13.967  0.2532 -0.2528 -0.1451
10431TIP3    H152708   6.536   3.232  13.982  0.0293 -0.6005 -0.5149
10431TIP3    H252709   6.412   3.254  13.898 -0.3037  0.0010  0.1282
10432TIP3   OH252710   0.305   2.324  11.776 -0.3169 -0.4822  0.1651
10432TIP3    H152711   0.218   2.351  11.807 -0.4105 -0.8757  0.2424
10432TIP3    H252712   0.290   2.295  11.686  0.0710  1.3101 -0.5032
10433TIP3   OH252713   0.070   6.605  11.514  0.2471 -0.2362  0.6564
10433TIP3    H152714   0.144   6.575  11.462 -0.7564  0.0047 -0.9381
10433TIP3    H252715   0.075   6.700  11.509 -0.7779 -0.2292 -0.3445
10434TIP3   OH252716   3.487   1.187  16.204 -0.2100  0.8811 -0.7585
10434TIP3    H152717   3.547   1.114  16.188  0.0167  0.8011  0.4181
10434TIP3    H252718   3.541   1.253  16.247 -1.2566  0.2580  1.6039
10435TIP3   OH252719   6.695   2.209   0.144 -0.0588 -0.4939 -0.0495
10435TIP3    H152720   6.688   2.155   0.223 -0.3273 -1.0973 -0.4811
10435TIP3    H252721   6.643   2.163   0.079  1.0423 -0.5774 -0.8949
10436TIP3   OH252722   0.128   1.254  15.087  0.3556  0.6585 -0.3681
10436TIP3    H152723   0.041   1.261  15.126  0.2625 -2.2591  0.0249
10436TIP3    H252724   0.154   1.164  15.103  2.6926  0.9955 -2.1104
10437TIP3   OH252725   3.882   5.292  16.001  0.0637 -0.4466 -0.2065
10437TIP3    H152726   3.788   5.305  15.991  0.2423  0.7406 -0.4306
10437TIP3    H252727   3.912   5.369  16.049  1.1583 -0.0434 -1.5035
10438TIP3   OH252728   4.172   4.374  12.912  0.1943 -0.6829  0.0477
10438TIP3    H152729   4.220   4.346  12.834  0.3271  0.5165 -0.2996
10438TIP3    H252730   4.172   4.469  12.908 -0.5575 -0.6315  1.0573
10439TIP3   OH252731   0.538   0.341  12.199 -0.4941  0.2334 -0.1463
10439TIP3    H152732   0.496   0.260  12.227 -1.2494  0.1820 -1.3763
10439TIP3    H252733   0.471   0.409  12.211  0.1550  0.6917  0.9366
10440TIP3   OH252734   4.197   0.365   0.392 -0.3912  0.0883 -0.0300
10440TIP3    H152735   4.160   0.321   0.316 -0.3196  1.4156 -0.8357
10440TIP3    H252736   4.157   0.320   0.467 -1.2174 -0.5648 -0.8515
10441TIP3   OH252737   0.672   6.371  13.034  0.2970 -0.1574  0.2696
10441TIP3    H152738   0.601   6.435  13.044  0.6076 -0.1263  2.5762
10441TIP3    H252739   0.627   6.287  13.028 -0.0146  0.0520 -0.4062
10442TIP3   OH252740   1.760   2.179   5.156  0.0801 -0.1985  0.7703
10442TIP3    H152741   1.732   2.259   5.113  0.6608  0.6226  1.8819
10442TIP3    H252742   1.798   2.208   5.239  2.9350 -1.3461 -0.0515
10443TIP3   OH252743   3.238   0.161  11.351  0.2147  0.1817  0.2560
10443TIP3    H152744   3.178   0.107  11.402  0.9617  0.0879  1.0523
10443TIP3    H252745   3.258   0.235  11.408  2.0151 -0.5402  0.5889
10444TIP3   OH252746   0.555   4.327   1.836 -0.1231  0.4740  0.1798
10444TIP3    H152747   0.568   4.422   1.838  2.5375  0.1343 -0.0035
10444TIP3    H252748   0.583   4.302   1.748  0.1007 -0.6022  0.5592
10445TIP3   OH252749   1.657   2.785  13.376 -0.1867  0.1491  0.3533
10445TIP3    H152750   1.693   2.856  13.323 -0.5165  1.0274  1.2898
10445TIP3    H252751   1.613   2.727  13.314 -0.1980  0.9377 -0.3682
10446TIP3   OH252752   2.509   2.916  14.003 -0.1744  0.6194 -0.7840
10446TIP3    H152753   2.554   2.965  14.071  1.8864 -1.1215 -0.8436
10446TIP3    H252754   2.546   2.948  13.921  1.8680 -1.6066 -0.7872
10447TIP3   OH252755   3.057   2.232  13.128  0.2151 -0.1936  0.4991
10447TIP3    H152756   3.097   2.147  13.115  2.5095  0.9122  0.0847
10447TIP3    H252757   2.981   2.232  13.069  1.1859 -1.3101 -0.7730
10448TIP3   OH252758   1.973   6.501   0.865  0.2877 -0.0063  0.2744
10448TIP3    H152759   2.050   6.444   0.866 -1.6765 -2.7715  0.2499
10448TIP3    H252760   1.899   6.441   0.869 -1.8849  2.6043  0.7445
10449TIP3   OH252761   4.240   6.588   0.734  0.0220 -0.6118 -0.0689
10449TIP3    H152762   4.295   6.666   0.745 -0.2574 -0.6234  1.5840
10449TIP3    H252763   4.152   6.624   0.719  0.1964 -0.6011 -1.0665
10450TIP3   OH252764   6.511   4.476  13.064 -0.0699 -0.3375  0.1904
10450TIP3    H152765   6.539   4.559  13.103  0.4066  0.6936 -2.2613
10450TIP3    H252766   6.417   4.486  13.051 -0.3649 -0.9670  1.6594
10451TIP3   OH252767   1.358   4.373   6.122 -0.1569 -0.7409 -0.1536
10451TIP3    H152768   1.390   4.283   6.133  0.0423 -0.7979 -1.1282
10451TIP3    H252769   1.428   4.416   6.073 -0.1078  0.0397  0.5986
10452TIP3   OH252770   2.650   4.852   4.925 -0.3489  0.0379  0.0828
10452TIP3    H152771   2.616   4.875   4.838 -0.4665  1.0293  0.3798
10452TIP3    H252772   2.670   4.937   4.966  1.1382 -0.4618  0.4504
10453TIP3   OH252773   1.699   1.617   4.735  0.1220 -0.0431 -0.2166
10453TIP3    H152774   1.757   1.671   4.789 -0.3893 -0.0954  0.3854
10453TIP3    H252775   1.611   1.649   4.754 -0.0475  0.0944 -1.1967
10454TIP3   OH252776   2.367   5.432   1.637  0.0652  0.3441 -0.0564
10454TIP3    H152777   2.342   5.502   1.578  0.3266 -0.1341 -0.7410
10454TIP3    H252778   2.285   5.384   1.654 -0.1416  0.9003  0.5358
10455TIP3   OH252779   3.318   1.335  11.935 -0.0453  0.1044 -0.7717
10455TIP3    H152780   3.282   1.400  11.995  1.3402  0.0815  0.0833
10455TIP3    H252781   3.285   1.362  11.849 -2.0295  0.1358 -0.0247
10456TIP3   OH252782   3.878   6.707   1.047  0.0009 -0.2381 -0.3240
10456TIP3    H152783   3.967   6.731   1.074  0.5121  1.2848 -3.2092
10456TIP3    H252784   3.822   6.759   1.105  0.9767 -0.8108  1.1696
10457TIP3   OH252785   1.923   1.084  14.157  0.1606 -0.1376 -0.0691
10457TIP3    H152786   1.978   1.061  14.082 -0.4107 -0.2066 -0.4733
10457TIP3    H252787   1.844   1.031  14.145  0.6596 -1.2385  1.3605
10458TIP3   OH252788   0.419   0.155  13.279  0.1325  0.1050  0.6207
10458TIP3    H152789   0.502   0.162  13.325 -0.5868  0.7282  1.8325
10458TIP3    H252790   0.365   0.099  13.334 -0.3898  0.0152  0.0302
10459TIP3   OH252791   3.034   0.376  11.796 -0.1996 -0.5035 -0.1974
10459TIP3    H152792   3.102   0.310  11.810  0.4428  0.0293 -0.8058
10459TIP3    H252793   3.052   0.412  11.709 -0.3168  0.7501  0.2863
10460TIP3   OH252794   0.562   0.038   1.460 -0.5731  0.7603 -0.0563
10460TIP3    H152795   0.525   0.120   1.495 -1.1559  0.7015 -0.5175
10460TIP3    H252796   0.542   0.042   1.366 -1.1686 -0.2063  0.0285
10461TIP3   OH252797   2.573   5.313   4.849 -0.1214 -0.2349  0.4506
10461TIP3    H152798   2.638   5.268   4.795 -0.2503 -1.2125  1.1015
10461TIP3    H252799   2.575   5.403   4.818 -2.1277 -1.2835 -3.1245
10462TIP3   OH252800   5.555   2.870   0.673  0.3176 -0.0553 -0.2799
10462TIP3    H152801   5.547   2.891   0.766 -1.3227 -0.0117 -0.4166
10462TIP3    H252802   5.557   2.955   0.630 -0.8110 -0.0903 -0.4172
10463TIP3   OH252803   2.704   3.213   5.084  0.0114 -0.4979 -0.4481
10463TIP3    H152804   2.656   3.172   5.012 -0.9901 -0.7396  0.3393
10463TIP3    H252805   2.772   3.149   5.106  0.0373 -0.6237 -0.8854
10464TIP3   OH252806   3.972   1.335  15.345 -0.2047 -0.1756  0.1728
10464TIP3    H152807   3.921   1.349  15.265 -0.4550 -0.8422  0.2128
10464TIP3    H252808   3.921   1.379  15.413 -0.5732 -0.5939  0.1642
10465TIP3   OH252809   3.173   2.807  15.579  0.1719  0.1341 -0.0206
10465TIP3    H152810   3.261   2.845  15.583  0.6927 -1.0738  0.3297
10465TIP3    H252811   3.169   2.764  15.494  0.8346 -1.9358  0.9683
10466TIP3   OH252812   3.441   3.475   1.994 -0.1107  0.2449 -0.0512
10466TIP3    H152813   3.369   3.418   2.020 -0.2741 -1.2852 -3.5776
10466TIP3    H252814   3.519   3.421   2.003 -0.0009  0.2038 -1.1784
10467TIP3   OH252815   4.228   1.123  13.030  0.1659 -0.3225  0.2220
10467TIP3    H152816   4.294   1.057  13.054  0.1917  0.2962  1.8663
10467TIP3    H252817   4.229   1.122  12.934  1.2980 -1.5897  0.2166
10468TIP3   OH252818   2.209   5.716  12.144  0.3762  0.1043  0.2311
10468TIP3    H152819   2.170   5.642  12.097  1.5124 -0.0780 -0.4628
10468TIP3    H252820   2.298   5.686  12.164  0.7823  1.2244  0.0997
10469TIP3   OH252821   5.571   5.318   1.619  0.1351  0.5024  0.1364
10469TIP3    H152822   5.565   5.384   1.688  0.2109 -0.2769  0.8977
10469TIP3    H252823   5.620   5.246   1.659 -1.7280 -0.8690 -0.0072
10470TIP3   OH252824   1.336   6.459  10.721  0.2529  0.3037  0.5052
10470TIP3    H152825   1.242   6.448  10.736  0.4595 -0.5080  1.2197
10470TIP3    H252826   1.378   6.398  10.782  1.2177 -0.0809 -0.5226
10471TIP3   OH252827   5.955   2.482   1.565 -0.0443 -0.4830 -0.1822
10471TIP3    H152828   5.978   2.419   1.497 -0.4602 -0.8752  0.0351
10471TIP3    H252829   5.862   2.464   1.583  0.2770 -0.9371  1.0615
10472TIP3   OH252830   0.471   3.844   5.748  0.1184 -0.4759 -0.6743
10472TIP3    H152831   0.541   3.828   5.811 -0.2981 -0.0638 -0.0996
10472TIP3    H252832   0.417   3.911   5.789 -0.7394 -0.9554 -1.0170
10473TIP3   OH252833   1.618   0.394  11.382 -0.4668  0.1332 -0.8977
10473TIP3    H152834   1.525   0.390  11.363 -0.4762  0.9557 -1.0512
10473TIP3    H252835   1.651   0.466  11.328  0.1999  0.0411 -0.6272
10474TIP3   OH252836   1.439   4.487   4.804  0.7141  0.0013  0.1267
10474TIP3    H152837   1.369   4.448   4.856 -0.0883  0.3487 -0.6711
10474TIP3    H252838   1.489   4.539   4.867 -0.6811  1.0227  0.4436
10475TIP3   OH252839   0.510   0.495   0.236 -0.1823  0.1182 -0.2140
10475TIP3    H152840   0.490   0.496   0.142 -0.9664 -1.4443 -0.0802
10475TIP3    H252841   0.514   0.402   0.258 -2.0728  0.4561  1.7365
10476TIP3   OH252842   3.345   3.364  13.478  0.2546  0.2721  0.3510
10476TIP3    H152843   3.273   3.366  13.542 -0.7038 -0.3748 -0.6773
10476TIP3    H252844   3.309   3.408  13.401  1.2411  0.6337  0.0959
10477TIP3   OH252845   2.356   5.023  13.824  0.5596 -0.1852  0.5905
10477TIP3    H152846   2.417   4.955  13.793 -0.6922 -1.0589  0.0246
10477TIP3    H252847   2.347   5.083  13.751 -0.6953 -1.0684  0.0014
10478TIP3   OH252848   4.724   4.529  11.020  0.0988 -0.0732  0.1980
10478TIP3    H152849   4.632   4.552  11.036  0.3012  1.0917 -0.2597
10478TIP3    H252850   4.741   4.563  10.932  1.4426  1.1646  0.9315
10479TIP3   OH252851   0.459   0.660   1.520  0.2019 -0.0552 -0.0233
10479TIP3    H152852   0.370   0.695   1.520  0.6199  1.0564 -2.6873
10479TIP3    H252853   0.461   0.597   1.448  1.4426 -0.4126  0.2977
10480TIP3   OH252854   5.177   4.384  11.651  0.1926 -0.1990 -0.4346
10480TIP3    H152855   5.252   4.440  11.633 -0.9395  0.7055 -2.4112
10480TIP3    H252856   5.105   4.423  11.602 -1.3292 -1.6558  0.5938
10481TIP3   OH252857   1.313   3.184   4.378 -0.0116  0.3623  0.2289
10481TIP3    H152858   1.345   3.258   4.327 -0.9080  0.5401 -0.0696
10481TIP3    H252859   1.359   3.191   4.462  1.0853  0.3554 -0.3536
10482TIP3   OH252860   1.185   0.952   3.018 -0.1980 -0.0955 -0.5087
10482TIP3    H152861   1.178   0.861   2.993 -1.0644 -0.2605  0.2897
10482TIP3    H252862   1.223   0.996   2.942  0.2127 -1.1118 -0.8926
10483TIP3   OH252863   5.786   0.732  16.671  0.6759  0.0687 -0.0065
10483TIP3    H152864   5.848   0.772  16.609 -1.1651  0.2339 -1.8103
10483TIP3    H252865   5.722   0.689  16.615 -1.1590  0.3750  1.8110
10484TIP3   OH252866   5.537   3.557  16.752 -0.4998  0.0448  0.2928
10484TIP3    H152867   5.624   3.539  16.717 -0.6636  0.3553 -0.2955
10484TIP3    H252868   5.522   3.650  16.734 -0.6122  0.2016  1.1575
10485TIP3   OH252869   2.456   5.832  14.554 -0.8469  0.2859  0.1487
10485TIP3    H152870   2.477   5.925  14.563 -1.1381  0.3085  0.6482
10485TIP3    H252871   2.514   5.788  14.616 -1.3639  0.2266  0.5934
10486TIP3   OH252872   3.640   2.664   1.826 -0.0937  0.2096 -0.4384
10486TIP3    H152873   3.570   2.703   1.775  0.8021  1.5238 -0.6920
10486TIP3    H252874   3.711   2.728   1.823  0.4973 -0.3273  1.2549
10487TIP3   OH252875   4.032   2.986   0.869 -0.6203  0.4857  0.0824
10487TIP3    H152876   3.999   2.919   0.809 -1.7682  0.4759  0.7002
10487TIP3    H252877   4.078   3.049   0.813  1.1314 -1.1998 -0.4255
10488TIP3   OH252878   0.272   5.647  13.799 -0.5246 -0.3338 -1.1600
10488TIP3    H152879   0.350   5.699  13.780  0.4811 -1.8751 -1.3260
10488TIP3    H252880   0.292   5.602  13.880 -2.1312  0.9440 -0.0155
10489TIP3   OH252881   3.808   6.740  14.651  0.3308 -0.3239 -0.1458
10489TIP3    H152882   3.834   6.818  14.602  1.0407 -1.8893 -2.3295
10489TIP3    H252883   3.890   6.708  14.690  0.3099 -0.8332 -0.5166
10490TIP3   OH252884   2.289   1.684  14.097 -0.2011 -0.4721 -0.1691
10490TIP3    H152885   2.259   1.670  14.187 -0.5013 -0.7290 -0.3077
10490TIP3    H252886   2.383   1.664  14.100  0.1784  1.3187  0.4866
10491TIP3   OH252887   4.250   0.599  12.743  0.0722 -0.5277  0.4313
10491TIP3    H152888   4.163   0.563  12.759 -0.1538  0.1116  0.6530
10491TIP3    H252889   4.244   0.691  12.770  0.5973 -0.2743 -0.2984
10492TIP3   OH252890   1.281   6.187  13.516  0.1092 -0.1976 -0.4925
10492TIP3    H152891   1.377   6.180  13.515  0.2174  1.0456  0.4224
10492TIP3    H252892   1.251   6.096  13.505  1.3903 -0.6801 -0.1736
10493TIP3   OH252893   5.422   0.989  12.651  0.2083  0.4412 -0.2826
10493TIP3    H152894   5.484   0.953  12.714 -0.6916  2.2224  1.6928
10493TIP3    H252895   5.336   0.962  12.683 -0.1733  0.0489 -1.6243
10494TIP3   OH252896   2.194   5.636   1.284  0.3459 -0.6713 -0.2351
10494TIP3    H152897   2.119   5.656   1.228  0.6684  0.7699 -0.1676
10494TIP3    H252898   2.154   5.601   1.364 -0.1972 -1.0928 -0.6887
10495TIP3   OH252899   4.803   5.704   0.305 -0.3898  0.1233  0.2686
10495TIP3    H152900   4.792   5.746   0.220 -2.5116 -0.7393  0.0859
10495TIP3    H252901   4.843   5.772   0.360 -0.3483  1.1575 -1.0100
10496TIP3   OH252902   0.786   2.102   0.499  0.7977 -0.1879  0.7239
10496TIP3    H152903   0.757   2.021   0.541  2.5829 -0.3186  1.7534
10496TIP3    H252904   0.812   2.076   0.410 -1.4751 -0.1884  0.0262
10497TIP3   OH252905   2.790   2.672  15.212  0.2815 -0.1534  0.8055
10497TIP3    H152906   2.862   2.614  15.233  0.3682  0.1257  1.2799
10497TIP3    H252907   2.799   2.688  15.118 -0.2090 -1.5320  0.5059
10498TIP3   OH252908   5.142   4.209  13.445  0.0268 -0.0786 -0.4079
10498TIP3    H152909   5.119   4.191  13.354 -2.0561 -0.2330  0.1337
10498TIP3    H252910   5.187   4.129  13.475 -2.3153 -1.3925 -0.3097
10499TIP3   OH252911   1.775   3.843  11.613 -0.4983  0.3237 -0.0187
10499TIP3    H152912   1.814   3.792  11.684  0.2869 -3.4488 -2.9855
10499TIP3    H252913   1.682   3.822  11.616 -0.7396  1.4917  0.9076
10500TIP3   OH252914   2.113   6.640   2.416 -0.7266  0.5061 -0.3285
10500TIP3    H152915   2.114   6.547   2.436 -2.0696  0.2646 -1.3574
10500TIP3    H252916   2.101   6.683   2.501 -1.0485 -0.2890  0.0273
10501TIP3   OH252917   4.527   1.964   0.428  0.1932  0.3894  0.3499
10501TIP3    H152918   4.563   1.925   0.507 -1.4030  0.5544  1.1871
10501TIP3    H252919   4.520   1.892   0.366 -1.2470 -0.3517  1.3443
10502TIP3   OH252920   3.107   0.809  11.979  0.0051 -0.2428  0.6530
10502TIP3    H152921   3.184   0.764  11.946 -1.0599 -1.0622 -0.7857
10502TIP3    H252922   3.112   0.896  11.939 -0.4152 -0.6888 -0.4054
10503TIP3   OH252923   3.704   2.257   6.940 -0.1899 -0.6071 -0.3193
10503TIP3    H152924   3.653   2.319   6.888  2.3727  0.0895 -2.0887
10503TIP3    H252925   3.742   2.310   7.010 -0.4978 -0.8036  0.0015
10504TIP3   OH252926   3.473   5.597   2.274 -0.4349 -0.3692  0.0804
10504TIP3    H152927   3.450   5.609   2.366 -0.6748 -0.1914 -0.0033
10504TIP3    H252928   3.549   5.655   2.261  1.7972 -2.9576  1.0457
10505TIP3   OH252929   0.481   0.746  15.868 -0.2107 -0.2634 -0.1227
10505TIP3    H152930   0.402   0.796  15.887 -0.6815 -1.9773  2.7035
10505TIP3    H252931   0.454   0.654  15.880  2.7549 -0.7741  3.1869
10506TIP3   OH252932   0.812   2.147  13.879  0.2404  0.7036  0.0175
10506TIP3    H152933   0.863   2.176  13.955 -0.0131 -1.8041  1.1969
10506TIP3    H252934   0.723   2.176  13.897  0.5382  1.7894 -0.2438
10507TIP3   OH252935   3.930   4.791  14.629  0.0707  0.1888 -0.5032
10507TIP3    H152936   3.849   4.783  14.578 -0.4239 -3.4686  0.7006
10507TIP3    H252937   3.901   4.824  14.714  0.0784  0.3409 -0.5575
10508TIP3   OH252938   5.235   3.245   3.458  0.4167  0.2460 -0.1941
10508TIP3    H152939   5.235   3.339   3.438  0.4256  0.3948  0.4947
10508TIP3    H252940   5.219   3.203   3.374  1.0114  0.8445 -0.6099
10509TIP3   OH252941   4.318   3.183  12.845  0.0666 -0.5013  0.0109
10509TIP3    H152942   4.350   3.164  12.934  1.0142 -1.1833 -0.4698
10509TIP3    H252943   4.347   3.273  12.829 -1.3667  0.1445  0.9404
10510TIP3   OH252944   5.699   1.576   4.009 -0.6702  0.1838 -0.0013
10510TIP3    H152945   5.720   1.562   4.101  1.9911  0.4666 -0.5249
10510TIP3    H252946   5.703   1.671   3.998 -1.3372  0.1765 -0.3360
10511TIP3   OH252947   1.774   4.167   4.022  0.0591  0.0057 -0.0190
10511TIP3    H152948   1.816   4.155   4.107  0.5291 -0.1914 -0.2812
10511TIP3    H252949   1.839   4.139   3.958  0.3517  1.7614 -0.5398
10512TIP3   OH252950   5.234   1.374   2.774  0.4865 -0.3090 -0.1700
10512TIP3    H152951   5.213   1.420   2.693 -0.6613  0.4920  0.5509
10512TIP3    H252952   5.176   1.414   2.839 -0.0318 -2.3150  0.6369
10513TIP3   OH252953   0.229   3.102  15.098 -0.0323  0.3444  0.2028
10513TIP3    H152954   0.298   3.153  15.055 -1.4926  2.7355  0.5972
10513TIP3    H252955   0.235   3.127  15.190  0.1759 -1.3711  0.6797
10514TIP3   OH252956   3.788   4.976  13.907  0.0420 -0.5215  0.5964
10514TIP3    H152957   3.722   5.045  13.909 -0.3673 -0.8627 -0.5063
10514TIP3    H252958   3.768   4.922  13.983 -0.5779 -0.2811  0.6107
10515TIP3   OH252959   2.734   4.891   0.091  0.2275  0.2684 -0.5904
10515TIP3    H152960   2.735   4.796   0.087  0.9782  0.2568 -0.1034
10515TIP3    H252961   2.654   4.916   0.044 -0.0641 -0.6038 -0.5607
10516TIP3   OH252962   4.665   0.307   3.937 -0.0996  0.7843 -0.3505
10516TIP3    H152963   4.612   0.267   4.005 -2.5599  0.6597 -2.2693
10516TIP3    H252964   4.753   0.271   3.950 -0.7659 -0.0538  2.0427
10517TIP3   OH252965   3.746   6.300  17.098  0.4262  0.3401  0.4928
10517TIP3    H152966   3.838   6.328  17.098  1.0292 -1.5446  0.3590
10517TIP3    H252967   3.698   6.376  17.066  2.0421  1.0904 -0.2202
10518TIP3   OH252968   4.158   0.746  13.188  0.3957 -0.3889 -0.0633
10518TIP3    H152969   4.229   0.715  13.244  1.1329 -2.1393 -1.8951
10518TIP3    H252970   4.097   0.673  13.185  0.7932 -0.6588 -2.2137
10519TIP3   OH252971   0.899   1.603  15.281 -0.2409 -0.2629 -0.4878
10519TIP3    H152972   0.833   1.641  15.223  1.2001  1.4341 -1.0404
10519TIP3    H252973   0.982   1.619  15.237  0.8018  0.2888  1.6279
10520TIP3   OH252974   0.420   2.448   3.515  0.1666 -0.0402  0.4562
10520TIP3    H152975   0.363   2.398   3.456 -0.1236  3.0207 -1.9189
10520TIP3    H252976   0.361   2.481   3.583  0.0760 -1.4213  1.0713
10521TIP3   OH252977   2.925   0.414   1.599  0.0600 -0.1757 -0.4831
10521TIP3    H152978   2.875   0.495   1.605  3.7335  2.1936 -0.0772
10521TIP3    H252979   2.911   0.370   1.682 -0.3087  1.0768  0.1265
10522TIP3   OH252980   0.823   6.350   4.881  0.0079  0.8100 -0.1081
10522TIP3    H152981   0.831   6.441   4.853  0.8281  0.3716 -1.3388
10522TIP3    H252982   0.732   6.327   4.863  0.4457  0.6189 -2.1946
10523TIP3   OH252983   3.552   2.264  15.007 -0.0911 -0.1164 -0.2828
10523TIP3    H152984   3.636   2.226  15.034 -0.0486 -0.2635 -0.6159
10523TIP3    H252985   3.575   2.348  14.968  0.2202 -1.3820 -3.0056
10524TIP3   OH252986   0.136   4.750  14.523 -0.3812 -0.4502 -0.8196
10524TIP3    H152987   0.138   4.846  14.519  1.9159 -0.4939 -1.5612
10524TIP3    H252988   0.225   4.723  14.497 -0.5195 -2.7260  0.8991
10525TIP3   OH252989   1.226   5.895   1.074  0.0037  0.4460 -0.3242
10525TIP3    H152990   1.250   5.986   1.093  0.0705  0.5463 -0.8840
10525TIP3    H252991   1.235   5.850   1.158  1.0215  0.7345 -0.2724
10526TIP3   OH252992   1.951   0.505   2.161 -0.0602  0.2108 -0.1522
10526TIP3    H152993   1.883   0.499   2.094  0.6925  0.2306 -0.9187
10526TIP3    H252994   1.950   0.419   2.204  0.7410 -0.4554 -1.4421
10527TIP3   OH252995   2.001   6.414  12.275  0.5741  0.4272  0.2434
10527TIP3    H152996   1.909   6.410  12.248  0.2001 -0.3610  1.6025
10527TIP3    H252997   2.016   6.332  12.322  1.8755  0.7189  0.3518
10528TIP3   OH252998   5.548   3.194  13.792  0.4877  0.4650 -0.4195
10528TIP3    H152999   5.612   3.256  13.826 -0.7274  0.6143  1.6969
10528TIP3    H253000   5.505   3.241  13.721  1.9145  0.7854 -1.0852
10529TIP3   OH253001   5.502   0.951   1.767 -0.2217 -0.2731  0.3145
10529TIP3    H153002   5.496   1.045   1.785  0.6531 -0.1028 -0.2475
10529TIP3    H253003   5.412   0.924   1.752 -0.6726  0.1291  2.2008
10530TIP3   OH253004   4.882   2.878  11.042  0.1524 -0.2741  0.2101
10530TIP3    H153005   4.855   2.907  11.129  0.6861 -0.8535  0.5775
10530TIP3    H253006   4.908   2.787  11.055  2.3214  0.2718 -0.0934
10531TIP3   OH253007   1.631   5.612   5.863  0.6828 -0.7958 -0.1516
10531TIP3    H153008   1.553   5.597   5.917 -0.0550  1.6377 -0.5173
10531TIP3    H253009   1.689   5.539   5.886 -1.5230 -2.4554  0.4039
10532TIP3   OH253010   0.628   5.199   4.199  0.3144 -0.1261  0.0591
10532TIP3    H153011   0.578   5.190   4.118  1.5676  0.0259 -0.7215
10532TIP3    H253012   0.605   5.120   4.249 -0.1372 -0.4225 -0.6046
10533TIP3   OH253013   0.127   2.202   2.287  0.3203  0.6374 -0.3403
10533TIP3    H153014   0.089   2.158   2.211  0.0002 -1.2213  0.8590
10533TIP3    H253015   0.074   2.171   2.361  2.7698 -0.2799  1.0745
10534TIP3   OH253016   0.674   5.762  15.766 -0.2549  0.0019 -0.1655
10534TIP3    H153017   0.619   5.839  15.751 -1.6832 -1.1603 -1.0923
10534TIP3    H253018   0.649   5.733  15.854  1.4007  1.4656  0.8094
10535TIP3   OH253019   3.337   0.280   0.340  0.5380  0.5484  0.2635
10535TIP3    H153020   3.370   0.275   0.430  1.7944  3.1867 -0.0239
10535TIP3    H253021   3.302   0.192   0.323  4.1489 -1.3050  1.8473
10536TIP3   OH253022   0.423   1.402  15.426  0.1850  0.3474  0.2324
10536TIP3    H153023   0.365   1.337  15.465 -0.6857  1.7544  1.3345
10536TIP3    H253024   0.473   1.438  15.500  2.6320 -0.9714 -0.7157
10537TIP3   OH253025   3.389   1.233   6.274 -0.1537 -0.0314  0.2767
10537TIP3    H153026   3.414   1.318   6.236 -3.5372 -0.8830 -4.2412
10537TIP3    H253027   3.305   1.250   6.317 -1.6451 -1.3391 -2.0291
10538TIP3   OH253028   5.373   2.028   4.453 -0.3189  0.1132  0.5018
10538TIP3    H153029   5.407   2.090   4.518 -3.1617  2.5576 -0.2413
10538TIP3    H253030   5.285   2.006   4.486 -1.2914  0.4248 -1.8209
10539TIP3   OH253031   4.148   2.788   1.783  0.2258 -0.2067 -0.6905
10539TIP3    H153032   4.237   2.768   1.811  0.2128  0.7463  0.0262
10539TIP3    H253033   4.158   2.839   1.703  0.3103 -0.5274 -0.8859
10540TIP3   OH253034   0.679   2.817  15.261  0.0211  0.5400 -0.2529
10540TIP3    H153035   0.719   2.903  15.250 -1.1255  1.1404  0.2030
10540TIP3    H253036   0.587   2.835  15.277 -0.2731 -0.7867 -0.3584
10541TIP3   OH253037   5.474   5.540   6.285 -0.3410  0.2909  0.4723
10541TIP3    H153038   5.401   5.554   6.344 -2.1059  0.0565 -1.6098
10541TIP3    H253039   5.472   5.615   6.225  1.2513  0.3901  0.5173
10542TIP3   OH253040   3.287   4.601   4.021 -0.1940  0.1506 -0.0985
10542TIP3    H153041   3.301   4.643   3.936  0.6931 -0.2776 -0.1740
10542TIP3    H253042   3.327   4.661   4.083 -2.0244  1.1261  0.1765
10543TIP3   OH253043   2.386   1.119   1.079 -0.2587  0.0837  0.1954
10543TIP3    H153044   2.420   1.177   1.011  0.3269 -0.2740  0.1842
10543TIP3    H253045   2.295   1.147   1.090  0.7395  2.7583  2.0477
10544TIP3   OH253046   6.095   3.190   2.506 -0.7975 -0.2872 -0.3664
10544TIP3    H153047   6.149   3.127   2.553 -0.1864  1.2095  0.9597
10544TIP3    H253048   6.156   3.234   2.446 -0.4650  1.4507  1.1812
10545TIP3   OH253049   0.019   0.009   6.119  0.1283 -0.2173  0.0325
10545TIP3    H153050   0.025   0.041   6.029  1.5181 -1.4282 -0.3338
10545TIP3    H253051  -0.071  -0.021   6.128 -0.5324  1.6072 -0.3508
10546TIP3   OH253052   3.044   4.562  10.850  0.1797  0.5972  0.3726
10546TIP3    H153053   3.084   4.555  10.937 -1.8110 -0.7239  1.2154
10546TIP3    H253054   2.992   4.482  10.842 -0.0998  0.9924 -1.8140
10547TIP3   OH253055   0.126   3.901  12.296 -0.3085 -0.0954 -0.5127
10547TIP3    H153056   0.141   3.813  12.331 -2.5346 -0.0878  0.5626
10547TIP3    H253057   0.196   3.954  12.333 -0.1945 -0.9804  0.5660
10548TIP3   OH253058   5.518   4.212  17.147  0.7061  0.4466  0.2859
10548TIP3    H153059   5.507   4.138  17.087  0.0998  0.5157  0.3128
10548TIP3    H253060   5.514   4.289  17.091  0.6449  0.4914  0.3508
10549TIP3   OH253061   5.471   0.839   1.138 -0.6363 -0.2739  0.4383
10549TIP3    H153062   5.508   0.763   1.184  1.3527 -0.8947 -2.0256
10549TIP3    H253063   5.495   0.914   1.193  1.5472 -1.0028  0.5524
10550TIP3   OH253064   2.256   5.406   5.896 -0.1680 -0.0400 -0.0893
10550TIP3    H153065   2.192   5.419   5.967 -0.7592  0.8449 -0.7695
10550TIP3    H253066   2.220   5.457   5.823  1.0007 -0.0593 -0.6759
10551TIP3   OH253067   5.169   1.646   2.357  0.4028 -0.5705 -0.6872
10551TIP3    H153068   5.259   1.677   2.346  0.2613 -0.4480 -1.6057
10551TIP3    H253069   5.120   1.690   2.286 -0.9551  1.5585  1.4753
10552TIP3   OH253070   5.889   4.217  17.021  0.3373  0.1977  0.1809
10552TIP3    H153071   5.935   4.301  17.027 -0.5482  0.7540 -0.5479
10552TIP3    H253072   5.814   4.235  16.964 -1.0216 -0.5568  1.6652
10553TIP3   OH253073   0.684   0.190  13.396 -0.1526 -0.0553  0.2171
10553TIP3    H153074   0.686   0.124  13.466  0.5976  1.4975  1.6968
10553TIP3    H253075   0.770   0.183  13.354  0.3865  0.8003  1.1648
10554TIP3   OH253076   6.474   5.775  15.151  0.0127  0.0731  0.3153
10554TIP3    H153077   6.522   5.857  15.155  1.2125 -0.4903 -1.8818
10554TIP3    H253078   6.521   5.723  15.086 -1.4556 -1.8793  0.7758
10555TIP3   OH253079   6.706   3.070  14.134 -0.0986 -0.1359  0.0152
10555TIP3    H153080   6.782   3.053  14.189  1.2085  0.9756 -1.3923
10555TIP3    H253081   6.631   3.045  14.188  1.1394  0.7404  2.2270
10556TIP3   OH253082   4.380   4.542   6.070  0.1899  0.2674 -0.2421
10556TIP3    H153083   4.350   4.596   5.997  0.7623  1.5492  0.4514
10556TIP3    H253084   4.409   4.605   6.136 -0.2283 -0.8786  1.0569
10557TIP3   OH253085   3.282   2.491  15.535  0.0018  0.0573 -0.1868
10557TIP3    H153086   3.233   2.540  15.469  0.3245 -1.6202 -1.6976
10557TIP3    H253087   3.360   2.544  15.551 -0.5740  0.9780 -0.3782
10558TIP3   OH253088   5.781   1.983   2.974 -0.1349 -0.0937  0.4192
10558TIP3    H153089   5.838   2.053   2.942 -0.8565  0.6161  0.6561
10558TIP3    H253090   5.836   1.930   3.030  0.5718 -0.0518 -0.2243
10559TIP3   OH253091   3.474   4.275  14.416  0.2774 -0.0373  0.1490
10559TIP3    H153092   3.395   4.302  14.370  0.7607 -1.2595 -1.4221
10559TIP3    H253093   3.442   4.223  14.490 -0.4262  0.7362  0.4002
10560TIP3   OH253094   3.476   1.554  11.172  0.0123  0.0597 -0.1725
10560TIP3    H153095   3.413   1.565  11.100  0.0857 -1.1918 -0.4431
10560TIP3    H253096   3.560   1.580  11.134 -0.1724  0.7914 -0.0970
10561TIP3   OH253097   0.528   3.964   4.946  0.1051  0.1348  0.1921
10561TIP3    H153098   0.465   3.949   5.016  1.8172  1.3505  2.0246
10561TIP3    H253099   0.480   4.013   4.880 -1.3297 -0.4311  0.7970
10562TIP3   OH253100   3.125   6.321  10.949 -0.1842  0.1071  0.0849
10562TIP3    H153101   3.108   6.317  11.043  0.9572  1.5464  0.3743
10562TIP3    H253102   3.197   6.260  10.934  1.4170  1.8222  0.6053
10563TIP3   OH253103   4.011   1.318   1.836 -0.0297  0.1787 -0.8405
10563TIP3    H153104   4.019   1.377   1.911  1.2671  1.0742 -1.6560
10563TIP3    H253105   4.025   1.231   1.872  1.1227  0.6487 -0.1341
10564TIP3   OH253106   2.386   0.040  15.845  0.3807  0.0766  0.3135
10564TIP3    H153107   2.467  -0.010  15.857 -0.3406 -0.8745  1.2390
10564TIP3    H253108   2.416   0.128  15.819  1.7901  0.4932  3.1831
10565TIP3   OH253109   6.378   6.456  12.646  0.4126  0.1040  0.1878
10565TIP3    H153110   6.295   6.497  12.673 -0.4799 -1.4749 -0.0861
10565TIP3    H253111   6.416   6.518  12.583 -1.7894 -0.2883 -1.5941
10566TIP3   OH253112   6.400   4.904  16.665  0.0259 -0.3924  0.0826
10566TIP3    H153113   6.463   4.838  16.638  1.5744  0.0704  2.4453
10566TIP3    H253114   6.426   4.983  16.619  1.7029  0.0019  1.6655
10567TIP3   OH253115   5.755   0.988   3.662 -0.1775 -0.5491  0.2190
10567TIP3    H153116   5.683   0.930   3.689  1.2916 -2.3609  0.3003
10567TIP3    H253117   5.735   1.010   3.572  0.0624 -2.4838 -0.3233
10568TIP3   OH253118   5.918   3.870  15.143  0.1094 -0.1996 -0.0470
10568TIP3    H153119   5.956   3.843  15.227  0.6096  0.5830 -0.0191
10568TIP3    H253120   5.895   3.788  15.100  0.4053 -0.6271  0.6014
10569TIP3   OH253121   1.304   4.612   1.374 -0.6320 -0.5440  0.2122
10569TIP3    H153122   1.264   4.657   1.300  0.3502 -0.1238 -0.0802
10569TIP3    H253123   1.344   4.682   1.426 -0.7582 -0.8980  0.7934
10570TIP3   OH253124   2.919   6.396  10.798  0.2676 -0.0082 -0.3009
10570TIP3    H153125   2.999   6.372  10.845  1.3541 -0.7911 -2.4767
10570TIP3    H253126   2.927   6.490  10.783  0.3533  0.0741  0.2369
10571TIP3   OH253127   2.526   0.920   3.620  0.0562 -0.5348  0.2395
10571TIP3    H153128   2.608   0.965   3.599  1.6718 -2.4361  2.2491
10571TIP3    H253129   2.521   0.849   3.556  0.9429 -1.5266  1.2477
10572TIP3   OH253130   1.605   0.222   4.725  0.2488 -0.1252 -0.6643
10572TIP3    H153131   1.560   0.228   4.809 -0.1897  1.1769 -0.9767
10572TIP3    H253132   1.591   0.308   4.685  2.2093 -0.0265 -1.1742
10573TIP3   OH253133   2.469   5.511  16.407 -0.4995  0.2025  0.1186
10573TIP3    H153134   2.465   5.603  16.382 -2.9033 -0.1176 -0.8935
10573TIP3    H253135   2.538   5.474  16.353 -0.1179  1.2404 -0.1173
10574TIP3   OH253136   4.517   4.579   0.681 -0.4172  0.1571  0.6293
10574TIP3    H153137   4.452   4.536   0.626  2.0072 -1.6998 -0.9342
10574TIP3    H253138   4.522   4.668   0.648  1.2392 -1.0278 -2.4645
10575TIP3   OH253139   5.140   0.896  13.995 -0.2297 -0.2117 -0.1684
10575TIP3    H153140   5.111   0.986  13.985  1.0081  0.2695  0.5131
10575TIP3    H253141   5.072   0.855  14.048  0.6919  1.1198  2.1151
10576TIP3   OH253142   0.589   2.794  16.113 -0.0123  0.7701  0.0871
10576TIP3    H153143   0.674   2.826  16.084 -0.4168  1.5024 -0.3207
10576TIP3    H253144   0.590   2.700  16.095  1.5315  0.3618  2.1263
10577TIP3   OH253145   4.879   0.788   4.982  0.1039 -0.4266 -0.4738
10577TIP3    H153146   4.865   0.862   4.923  0.0671  0.2659  0.3920
10577TIP3    H253147   4.822   0.806   5.057  1.3518 -0.4769  0.4995
10578TIP3   OH253148   3.315   4.646  17.208 -0.7477  0.1382 -0.2814
10578TIP3    H153149   3.293   4.706  17.280  0.3504 -0.9921  1.0220
10578TIP3    H253150   3.397   4.680  17.172  0.1025 -0.7870  0.7353
10579TIP3   OH253151   1.730   4.078  14.373 -0.2413  0.1925  0.5053
10579TIP3    H153152   1.787   4.007  14.342 -0.7306  0.4396 -1.0228
10579TIP3    H253153   1.650   4.068  14.320  0.6640  3.4461 -1.6111
10580TIP3   OH253154   4.982   2.494  11.499 -0.0260 -0.3712 -0.0797
10580TIP3    H153155   5.040   2.462  11.430  1.0234 -0.8823  1.0172
10580TIP3    H253156   5.015   2.452  11.579 -1.1177  0.3397  0.7546
10581TIP3   OH253157   4.974   0.825   4.633  0.0053  0.1369  0.1994
10581TIP3    H153158   5.013   0.740   4.656 -0.3393  0.2592  1.2495
10581TIP3    H253159   4.964   0.870   4.717 -2.5564  0.0383 -0.0212
10582TIP3   OH253160   2.000   3.240  13.135  0.0468  0.1662 -0.4146
10582TIP3    H153161   2.008   3.173  13.067 -1.3780  2.1599 -2.6365
10582TIP3    H253162   2.087   3.280  13.140  0.6014 -1.0706  0.1487
10583TIP3   OH253163   5.300   0.429  15.429  0.6828 -0.1520 -0.0297
10583TIP3    H153164   5.245   0.455  15.502  1.0070 -0.9240  0.5002
10583TIP3    H253165   5.302   0.333  15.433 -0.0343 -0.2430 -1.5936
10584TIP3   OH253166   0.373   6.589  17.148 -0.2290  0.5343 -0.0714
10584TIP3    H153167   0.377   6.677  17.113  3.4259  0.3461 -0.3334
10584TIP3    H253168   0.404   6.533  17.077  0.0610 -0.6685  0.9708
10585TIP3   OH253169   3.134   1.619  12.751 -0.4455  0.2234  0.4332
10585TIP3    H153170   3.136   1.713  12.734  0.2176  0.5274  2.0743
10585TIP3    H253171   3.144   1.612  12.846 -2.5495 -1.4122  0.5677
10586TIP3   OH253172   4.162   1.828  12.043 -0.0318  1.0371 -0.3621
10586TIP3    H153173   4.215   1.829  12.123 -2.9937  1.2605  1.6667
10586TIP3    H253174   4.158   1.736  12.019 -0.4163  0.7772  0.6608
10587TIP3   OH253175   3.940   2.654   0.827 -0.2250  0.3704 -0.0484
10587TIP3    H153176   3.967   2.620   0.913 -2.1272 -0.2103  0.3387
10587TIP3    H253177   3.869   2.714   0.847 -1.0725 -0.2250 -1.2794
10588TIP3   OH253178   0.598   2.574  15.961  0.3524  0.9217 -0.0061
10588TIP3    H153179   0.579   2.481  15.953 -1.8676  1.3453 -0.0189
10588TIP3    H253180   0.520   2.618  15.925  1.4991  2.7728 -0.3078
10589TIP3   OH253181   5.167   4.917   4.619 -0.6852  0.0496  0.0513
10589TIP3    H153182   5.111   4.878   4.686 -1.2517  1.4036  0.3689
10589TIP3    H253183   5.176   5.008   4.645  0.8058  0.0982 -0.5765
10590TIP3   OH253184   2.253   2.687  12.910  0.3877  0.3850 -0.4905
10590TIP3    H153185   2.310   2.756  12.942  0.6753 -0.6798  1.3833
10590TIP3    H253186   2.168   2.705  12.949  0.5518 -0.5022  0.3024
10591TIP3   OH253187   5.348   5.321   4.347  0.5330  0.2585 -0.5903
10591TIP3    H153188   5.363   5.385   4.416  0.3423  0.2809 -0.5696
10591TIP3    H253189   5.388   5.360   4.269 -2.6520  2.0313 -1.4227
10592TIP3   OH253190   4.684   4.089   0.023  0.2158  0.6998 -0.3952
10592TIP3    H153191   4.635   4.147   0.081  2.5266  0.0855  2.2799
10592TIP3    H253192   4.775   4.094   0.055  0.5676 -3.9463 -0.3711
10593TIP3   OH253193   5.636   2.651  11.320 -0.6748 -0.0097 -0.0261
10593TIP3    H153194   5.544   2.676  11.317 -0.6778  0.0207  0.3210
10593TIP3    H253195   5.674   2.707  11.388 -0.3174  0.2477 -0.4348
10594TIP3   OH253196   4.654   2.431  12.748  0.2021  0.8660  0.0986
10594TIP3    H153197   4.652   2.443  12.653  1.2983 -1.4962 -0.2681
10594TIP3    H253198   4.746   2.412  12.767  0.1289  2.1467  1.7505
10595TIP3   OH253199   3.945   6.524   4.223  0.3818  0.4374  0.1734
10595TIP3    H153200   3.941   6.616   4.199  0.7590  0.4271  0.0707
10595TIP3    H253201   4.038   6.503   4.223  0.2869  0.0117  0.0210
10596TIP3   OH253202   4.217   1.554  11.940 -0.1635  0.0800 -0.1176
10596TIP3    H153203   4.213   1.556  11.845  0.3382 -0.5156 -0.1546
10596TIP3    H253204   4.203   1.462  11.963 -2.9829  0.6238  0.5297
10597TIP3   OH253205   4.113   1.925   3.807  0.3049  0.0814 -0.4824
10597TIP3    H153206   4.179   1.865   3.772  0.0718 -0.3156 -0.2520
10597TIP3    H253207   4.152   2.012   3.800 -0.3497  0.1873 -3.1978
10598TIP3   OH253208   4.380   3.463  11.647  0.1049  0.3534  0.4824
10598TIP3    H153209   4.290   3.431  11.657 -0.4851  1.4533 -1.1757
10598TIP3    H253210   4.398   3.509  11.729 -1.2761  1.1304  0.3704
10599TIP3   OH253211   3.381   0.333  16.353  0.3738  0.7000 -0.2560
10599TIP3    H153212   3.346   0.417  16.324  1.7583  1.6288  0.6965
10599TIP3    H253213   3.438   0.355  16.427  0.4810 -1.1157  0.2314
10600TIP3   OH253214   4.658   0.310   1.517  0.3084 -0.3623  0.2098
10600TIP3    H153215   4.643   0.250   1.590  1.9862  0.5183  1.3177
10600TIP3    H253216   4.646   0.397   1.555 -0.3721  0.0596 -0.9563
10601TIP3   OH253217   3.288   3.209  11.701 -0.1261  0.3018 -0.1243
10601TIP3    H153218   3.219   3.275  11.711  0.1820  0.7856 -1.1636
10601TIP3    H253219   3.261   3.157  11.626 -0.2412 -0.6112  0.5439
10602TIP3   OH253220   3.048   5.771   3.272 -0.6990  0.3451 -0.4220
10602TIP3    H153221   3.029   5.736   3.359 -2.6060  1.8766 -0.2066
10602TIP3    H253222   2.995   5.850   3.265  1.0669  1.4244 -2.1679
10603TIP3   OH253223   5.905   2.369  13.144  0.5657 -0.1664 -0.4863
10603TIP3    H153224   5.830   2.354  13.086  0.6138  0.3494 -0.6789
10603TIP3    H253225   5.891   2.456  13.181  0.6068 -0.4364  0.1733
10604TIP3   OH253226   3.619   0.295  16.085  0.0960  0.7430 -0.7762
10604TIP3    H153227   3.589   0.224  16.141  1.3354  0.0500 -0.9564
10604TIP3    H253228   3.684   0.254  16.027  1.6333  2.2231 -0.1510
10605TIP3   OH253229   3.390   1.266  11.212  0.9821  0.0238 -0.0951
10605TIP3    H153230   3.405   1.360  11.218  0.5508  0.0875 -0.0037
10605TIP3    H253231   3.327   1.256  11.141  1.4617 -0.2444 -0.4878
10606TIP3   OH253232   4.670   4.269   4.201  0.6695  0.5763 -0.5066
10606TIP3    H153233   4.578   4.269   4.175  0.9925  0.6301 -1.6839
10606TIP3    H253234   4.668   4.274   4.296 -0.6130 -4.1068 -0.1733
10607TIP3   OH253235   4.129   0.826  15.587  0.1365  0.1418 -0.3043
10607TIP3    H153236   4.139   0.882  15.510 -0.7135 -1.2647 -1.4793
10607TIP3    H253237   4.050   0.859  15.631  1.7387  2.2059  1.0912
10608TIP3   OH253238   5.348   5.909  15.383 -1.0375  0.0552 -0.2583
10608TIP3    H153239   5.341   5.956  15.466 -0.0480  0.8997 -0.6318
10608TIP3    H253240   5.276   5.847  15.384 -0.7383 -0.2815  1.4473
10609TIP3   OH253241   3.465   2.005  12.649 -0.7949  0.5953  0.2958
10609TIP3    H153242   3.459   2.053  12.567 -1.8729  1.5787  0.9300
10609TIP3    H253243   3.398   2.046  12.705  0.3337  0.3439  1.8511
10610TIP3   OH253244   5.615   4.373  14.973 -0.0638  0.1295  0.4242
10610TIP3    H153245   5.640   4.461  14.945  3.2344 -1.3214 -1.6038
10610TIP3    H253246   5.577   4.333  14.894  1.2805 -1.2148  0.4310
10611TIP3   OH253247   3.696   2.113   2.091 -0.3905  0.5990 -0.3259
10611TIP3    H153248   3.658   2.199   2.111  0.0958  0.9135 -0.7415
10611TIP3    H253249   3.654   2.086   2.010 -0.3232  0.5816 -0.3550
10612TIP3   OH253250   4.800   1.464   2.125  0.1054  0.3668 -0.0793
10612TIP3    H153251   4.869   1.445   2.189 -0.6575  0.5354  0.8088
10612TIP3    H253252   4.836   1.434   2.042  0.7865 -0.6396  0.5546
10613TIP3   OH253253   6.563   0.676  16.010  0.5106  0.5925  0.7716
10613TIP3    H153254   6.525   0.590  15.992 -4.1813  2.5462  0.5973
10613TIP3    H253255   6.557   0.723  15.926  0.1124  2.0893  1.6216
10614TIP3   OH253256   6.038   1.465   4.801  1.0114  0.7413  0.5039
10614TIP3    H153257   6.026   1.404   4.874 -1.4545 -1.8538 -1.9262
10614TIP3    H253258   5.977   1.536   4.819  0.8043  0.3824  1.2568
10615TIP3   OH253259   3.111   2.887  10.775 -0.2522  0.2910  0.1247
10615TIP3    H153260   3.139   2.952  10.839  1.7293  0.9029 -1.3252
10615TIP3    H253261   3.098   2.807  10.826 -1.4273  1.4558  1.7125
10616TIP3   OH253262   6.772   4.871   4.720 -0.3580 -0.2195 -0.1003
10616TIP3    H153263   6.679   4.874   4.742  0.1765 -0.6433  2.3888
10616TIP3    H253264   6.815   4.916   4.792  1.5040 -1.5016 -0.3861
10617TIP3   OH253265   6.632   4.988  15.771 -0.2043  0.2145 -0.0686
10617TIP3    H153266   6.559   5.004  15.711  0.7111 -0.6731 -1.4249
10617TIP3    H253267   6.705   5.037  15.734  0.3567 -0.3076  0.3419
10618TIP3   OH253268   3.765   0.706   2.626 -0.3366  0.2875  0.0615
10618TIP3    H153269   3.736   0.616   2.629  1.1099 -0.2228 -0.5513
10618TIP3    H253270   3.841   0.705   2.567  3.0813  0.8914  4.1388
10619TIP3   OH253271   5.426   1.793  14.256  0.0641  0.5560  0.1812
10619TIP3    H153272   5.370   1.868  14.235 -0.4443 -0.3720 -1.9299
10619TIP3    H253273   5.367   1.718  14.254  0.7899 -0.0603  1.1411
10620TIP3   OH253274   5.453   3.087  16.383  0.2728 -0.6989 -0.3377
10620TIP3    H153275   5.361   3.072  16.359  0.5221 -2.4935 -0.2751
10620TIP3    H253276   5.450   3.161  16.443 -1.0907 -0.4228 -0.7150
10621TIP3   OH253277   1.848   2.915  12.787 -0.3483  0.0910  0.3672
10621TIP3    H153278   1.803   2.997  12.768 -0.7381  0.1045  1.3129
10621TIP3    H253279   1.798   2.876  12.859  1.0363  0.0168  1.2999
10622TIP3   OH253280   2.463   6.484  17.225 -0.6822 -0.0978  0.6136
10622TIP3    H153281   2.500   6.570  17.248 -0.0326 -1.0980  3.5103
10622TIP3    H253282   2.373   6.504  17.197  0.9532  2.0226 -3.6208
10623TIP3   OH253283   2.145   3.082  17.228  0.1401 -0.3676 -0.1851
10623TIP3    H153284   2.067   3.062  17.281 -1.8304  1.3887 -2.3059
10623TIP3    H253285   2.197   3.140  17.283 -0.1561 -1.3581  1.1663
10624TIP3   OH253286   6.144   2.542  16.267 -0.0834 -0.1961 -0.5298
10624TIP3    H153287   6.164   2.583  16.351 -0.0599 -1.1007 -0.0907
10624TIP3    H253288   6.183   2.455  16.272  1.2412  0.2889 -2.0754
10625TIP3   OH253289   0.405   6.484  15.355  0.3217 -0.0390  0.2972
10625TIP3    H153290   0.416   6.389  15.350  2.2399  0.2332 -0.9903
10625TIP3    H253291   0.314   6.499  15.328  0.0393 -1.4905  0.3922
10626TIP3   OH253292   6.254   0.881  14.229 -0.2781 -0.1051  0.2600
10626TIP3    H153293   6.216   0.858  14.315 -1.2063 -0.7626 -0.3142
10626TIP3    H253294   6.215   0.966  14.208  0.0852  0.1380  0.5702
10627TIP3   OH253295   4.535   6.395  14.972  0.9022  0.3922 -0.1129
10627TIP3    H153296   4.479   6.331  15.017  0.3074  1.3521  0.5136
10627TIP3    H253297   4.502   6.396  14.882  0.5207  0.2573  0.0257
10628TIP3   OH253298   2.540   1.102  11.854  0.5279  0.2346 -0.1849
10628TIP3    H153299   2.571   1.023  11.899  1.5475  0.6375 -0.1569
10628TIP3    H253300   2.448   1.111  11.880  0.8063 -0.1459  0.9573
10629TIP3   OH253301   5.608   6.665  16.432 -0.2009 -0.2542  0.5235
10629TIP3    H153302   5.625   6.600  16.363 -0.1254 -0.0912  0.3891
10629TIP3    H253303   5.654   6.631  16.508  2.4677  1.2039 -0.3672
10630TIP3   OH253304   4.545   3.634   6.862  0.4319 -0.0841  0.3271
10630TIP3    H153305   4.567   3.544   6.883  0.5816 -0.2661 -0.5779
10630TIP3    H253306   4.537   3.635   6.766  0.0727  0.7768  0.3595
10631TIP3   OH253307   5.793   3.416   5.254 -0.1805 -0.5499  0.3813
10631TIP3    H153308   5.881   3.386   5.276 -1.4864 -2.5971  3.0401
10631TIP3    H253309   5.760   3.457   5.334 -0.9768  2.0249 -1.1614
10632TIP3   OH253310   6.133   3.781   3.744 -0.4092 -0.3128 -0.2870
10632TIP3    H153311   6.198   3.820   3.686 -0.5605  1.1350  0.4974
10632TIP3    H253312   6.151   3.687   3.741  0.9459 -0.0393 -1.0069
10633TIP3   OH253313   5.477   4.633  15.895 -0.4435  0.2761 -0.0452
10633TIP3    H153314   5.541   4.643  15.825  0.3118 -0.0695  0.5931
10633TIP3    H253315   5.528   4.636  15.976 -0.8304 -2.9360  0.3913
10634TIP3   OH253316   4.765   5.711  14.569 -0.1532 -0.2364 -0.2869
10634TIP3    H153317   4.819   5.730  14.492  1.2511 -3.3096 -0.1198
10634TIP3    H253318   4.826   5.717  14.643 -1.0825  0.8327  0.4009
10635TIP3   OH253319   2.201   2.964   3.633 -0.1277  0.0945  0.3517
10635TIP3    H153320   2.226   3.043   3.682  1.1924  0.2558 -0.5370
10635TIP3    H253321   2.197   2.895   3.699 -0.2214  0.6908  0.9755
10636TIP3   OH253322   6.166   4.114  11.085 -0.2162 -0.1191 -0.7486
10636TIP3    H153323   6.202   4.089  11.000 -0.2340  1.7671 -1.3452
10636TIP3    H253324   6.091   4.056  11.098 -0.9741  0.3991 -2.6121
10637TIP3   OH253325   4.077   2.756  12.761  0.6615  0.2162 -0.1212
10637TIP3    H153326   4.137   2.734  12.833 -0.0056  0.1562  0.4146
10637TIP3    H253327   4.067   2.675  12.712 -1.2670 -0.5514  1.4672
10638TIP3   OH253328   6.534   1.667   1.662  0.0407  0.2230  0.0283
10638TIP3    H153329   6.586   1.636   1.588  0.7393  1.2917  0.0665
10638TIP3    H253330   6.548   1.601   1.730  2.4352  1.1779  0.5066
10639TIP3   OH253331   3.457   4.288  11.265  0.1814  0.4196 -0.2717
10639TIP3    H153332   3.544   4.322  11.244  0.5475 -0.0475  0.4865
10639TIP3    H253333   3.407   4.366  11.292  1.0749  0.3672  1.6351
10640TIP3   OH253334   1.837   2.383  13.833  0.1674  0.2332  0.3302
10640TIP3    H153335   1.808   2.455  13.888 -2.7185 -0.7607  0.1747
10640TIP3    H253336   1.932   2.379  13.846 -0.3082  0.7242  4.3771
10641TIP3   OH253337   4.474   3.263  15.389 -0.1036 -0.1136 -0.5994
10641TIP3    H153338   4.493   3.213  15.468  1.0374 -1.1401 -1.4997
10641TIP3    H253339   4.557   3.263  15.341 -0.3814  1.7884 -1.0836
10642TIP3   OH253340   2.073   6.297   2.393  0.5286 -0.0460  0.6893
10642TIP3    H153341   2.039   6.261   2.311 -0.3497 -3.1850  2.3226
10642TIP3    H253342   2.163   6.322   2.373 -0.2051  0.8352 -1.6413
10643TIP3   OH253343   4.735   2.774  13.653 -0.5073  0.6564 -0.2668
10643TIP3    H153344   4.778   2.713  13.713 -1.0298 -0.7068 -1.2648
10643TIP3    H253345   4.758   2.742  13.565 -2.2368  0.8484 -0.8079
10644TIP3   OH253346   3.316   2.202   5.540  0.0744 -0.0477  0.2149
10644TIP3    H153347   3.400   2.167   5.509  0.0926  0.6081 -0.4888
10644TIP3    H253348   3.339   2.266   5.607  0.1175 -0.0978  0.2485
10645TIP3   OH253349   6.669   5.432  16.567  0.5794  0.0112 -0.1101
10645TIP3    H153350   6.631   5.401  16.484 -1.6420  1.6848  0.2289
10645TIP3    H253351   6.756   5.465  16.543 -0.3318  1.1888 -1.9649
10646TIP3   OH253352   3.846   3.481  13.171  0.1181  0.0100  0.0282
10646TIP3    H153353   3.767   3.427  13.165  0.2835 -0.1151 -1.2568
10646TIP3    H253354   3.888   3.455  13.252 -1.8065  0.9424  1.3679
10647TIP3   OH253355   2.543   0.900  13.323 -0.3172 -0.1773  0.0575
10647TIP3    H153356   2.585   0.986  13.331  0.3261 -0.4122 -0.8478
10647TIP3    H253357   2.586   0.846  13.389  0.4172 -0.2709 -0.5049
10648TIP3   OH253358   5.512   6.485  12.197 -0.0849  0.1506 -0.2717
10648TIP3    H153359   5.585   6.423  12.204 -1.7476 -1.9324 -0.8086
10648TIP3    H253360   5.502   6.522  12.284 -0.2529 -1.7598  0.5366
10649TIP3   OH253361   3.334   3.806  13.861 -0.1470 -0.0234 -0.2390
10649TIP3    H153362   3.284   3.818  13.780  1.3481 -1.9065 -1.4936
10649TIP3    H253363   3.350   3.712  13.865  1.2637  0.2706  1.3755
10650TIP3   OH253364   0.264   4.433  12.421 -0.0218  0.2331 -0.3351
10650TIP3    H153365   0.306   4.449  12.505  1.6972 -1.3503 -0.8659
10650TIP3    H253366   0.208   4.357  12.436 -0.0197  0.1902 -0.5446
10651TIP3   OH253367   2.080   4.183   1.934  0.0003  0.5800  0.2731
10651TIP3    H153368   2.091   4.173   1.840  2.4193 -0.1547  0.5971
10651TIP3    H253369   2.094   4.276   1.950 -3.5755  1.3133 -0.4316
10652TIP3   OH253370   5.331   2.122   4.712  0.0589 -0.1849  0.1837
10652TIP3    H153371   5.240   2.139   4.690  0.0725 -0.3967 -0.0474
10652TIP3    H253372   5.369   2.209   4.728  0.1936  0.0372 -1.2268
10653TIP3   OH253373   0.794   2.616   3.383  0.0105  0.1805  0.2277
10653TIP3    H153374   0.835   2.618   3.297  1.3090  0.8226  0.8502
10653TIP3    H253375   0.865   2.633   3.445 -0.9310 -0.1008  1.4217
10654TIP3   OH253376   3.922   3.677   5.575 -0.1222  0.1721 -0.6906
10654TIP3    H153377   3.868   3.611   5.617  0.8576 -1.2289 -1.6072
10654TIP3    H253378   3.939   3.741   5.644 -1.2535 -0.3985  0.1443
10655TIP3   OH253379   5.035   0.622  13.920 -0.4183  0.0625 -0.2603
10655TIP3    H153380   5.090   0.679  13.973 -0.3311 -0.8384  0.6307
10655TIP3    H253381   4.967   0.591  13.980 -2.1609  1.4904 -1.4544
10656TIP3   OH253382   4.273   3.498   0.086 -0.3836 -0.0156 -0.4742
10656TIP3    H153383   4.201   3.436   0.096  1.1376 -1.9094 -0.8624
10656TIP3    H253384   4.287   3.533   0.174 -1.5820  0.1627 -0.3483
10657TIP3   OH253385   2.267   1.137   2.671 -0.2289  1.0371  0.2713
10657TIP3    H153386   2.360   1.117   2.657 -0.6257  0.1404 -1.1486
10657TIP3    H253387   2.256   1.133   2.766  1.3097  1.7264  0.4979
10658TIP3   OH253388   3.084   6.485   3.429  0.5494 -0.1155 -0.5339
10658TIP3    H153389   3.149   6.554   3.445 -0.2303  0.8790 -1.5979
10658TIP3    H253390   3.084   6.474   3.334  2.0890 -3.0097 -0.2784
10659TIP3   OH253391   0.793   0.403   6.341  0.1732 -0.2178 -0.1228
10659TIP3    H153392   0.766   0.329   6.285 -0.8033 -0.6578  0.9069
10659TIP3    H253393   0.798   0.365   6.429  1.4971  0.5231  0.1279
10660TIP3   OH253394   6.176   3.760   1.760  0.0071 -0.1396  0.0062
10660TIP3    H153395   6.117   3.754   1.685 -2.1980  3.5120  1.3256
10660TIP3    H253396   6.250   3.811   1.727  1.7174 -3.2023 -1.1354
10661TIP3   OH253397   2.185   4.244   0.810 -0.4028 -0.1502  0.0181
10661TIP3    H153398   2.161   4.301   0.737  0.0158 -0.4207 -0.3354
10661TIP3    H253399   2.117   4.259   0.876 -0.4080  0.6043 -0.1510
10662TIP3   OH253400   4.033   6.336   5.156  0.6088  0.1983  0.2470
10662TIP3    H153401   4.092   6.333   5.081  0.5278 -1.0723  0.2115
10662TIP3    H253402   3.946   6.343   5.117  0.6803  1.2102  0.2722
10663TIP3   OH253403   2.884   2.631   2.307 -1.0887  0.3199  0.4476
10663TIP3    H153404   2.866   2.723   2.286  1.2292  0.7381  0.1408
10663TIP3    H253405   2.814   2.582   2.265 -1.0557  1.7899 -1.3650
10664TIP3   OH253406   0.533   5.529  15.172 -0.1994 -0.2418  0.6185
10664TIP3    H153407   0.458   5.527  15.112  0.2466  1.1079 -0.0036
10664TIP3    H253408   0.550   5.438  15.193 -1.2911 -0.6292 -0.1602
10665TIP3   OH253409   1.330   0.188  10.610 -0.1784 -0.0577  0.4605
10665TIP3    H153410   1.399   0.123  10.627 -0.2533 -0.7115 -1.5381
10665TIP3    H253411   1.291   0.205  10.696  0.2850 -2.1696  1.1245
10666TIP3   OH253412   4.366   4.552  16.826 -0.0387 -0.2497  0.0400
10666TIP3    H153413   4.274   4.575  16.813  0.5275  1.7787 -0.6273
10666TIP3    H253414   4.368   4.508  16.911 -1.6042 -0.1890  0.1216
10667TIP3   OH253415   3.991   3.398   5.834 -0.2363  0.3397  0.5826
10667TIP3    H153416   3.944   3.378   5.916  0.0865  1.8378  1.1440
10667TIP3    H253417   4.000   3.493   5.834  1.5129  0.1960 -0.2394
10668TIP3   OH253418   6.389   6.383  16.825  0.4145 -0.8084 -0.3329
10668TIP3    H153419   6.446   6.440  16.877 -0.6461  1.2577 -1.3665
10668TIP3    H253420   6.309   6.375  16.878 -0.2216  0.3568 -1.0977
10669TIP3   OH253421   2.148   3.162  16.981  0.1865  0.6193 -0.2072
10669TIP3    H153422   2.153   3.150  17.075  2.8601 -1.3943 -0.5623
10669TIP3    H253423   2.099   3.086  16.949  1.0894  0.1906 -0.6136
10670TIP3   OH253424   3.224   2.266   6.174 -0.2237 -0.6343  0.0632
10670TIP3    H153425   3.144   2.224   6.142 -1.1772  0.6551  0.7000
10670TIP3    H253426   3.217   2.262   6.269  0.1758  0.0333  0.1242
10671TIP3   OH253427   0.372   4.048   2.735  0.0124  0.1734  0.1775
10671TIP3    H153428   0.388   4.101   2.657  0.8655 -0.5797 -0.1611
10671TIP3    H253429   0.459   4.023   2.765 -0.3725 -0.8139  0.4838
10672TIP3   OH253430   0.180   4.317   3.267  0.3986 -0.1098 -0.6223
10672TIP3    H153431   0.166   4.247   3.203  1.1337  0.7615 -1.7826
10672TIP3    H253432   0.093   4.349   3.288  0.1241 -0.6857 -0.8901
10673TIP3   OH253433   6.344   5.204   4.953 -0.3658  0.1394 -0.1237
10673TIP3    H153434   6.268   5.146   4.949 -1.9290  2.0932  0.8572
10673TIP3    H253435   6.350   5.229   5.045  1.2506  0.3024 -0.2646
10674TIP3   OH253436   2.575   5.711  16.934 -0.7704 -0.3638  0.5301
10674TIP3    H153437   2.631   5.787  16.946 -0.7969 -0.1719 -0.5693
10674TIP3    H253438   2.616   5.642  16.987  0.1836 -0.0672  0.1721
10675TIP3   OH253439   0.545   0.688  16.793  0.1437 -0.4167  0.2393
10675TIP3    H153440   0.541   0.658  16.702  0.2235  3.4225 -1.1464
10675TIP3    H253441   0.464   0.738  16.805  0.3824 -0.4458  2.1174
10676TIP3   OH253442   3.166   0.536   5.013 -0.1380 -0.1807 -0.5685
10676TIP3    H153443   3.118   0.612   5.046 -1.0184 -0.5568 -0.9853
10676TIP3    H253444   3.258   0.558   5.029 -0.3018  1.5042 -1.8048
10677TIP3   OH253445   5.465   1.065   5.710  0.6324  0.2313  0.7200
10677TIP3    H153446   5.540   1.095   5.659 -0.1996  1.8410  0.4246
10677TIP3    H253447   5.484   0.973   5.728  1.4349 -0.0770 -1.5760
10678TIP3   OH253448   5.049   5.356   2.562  0.2306  0.8747  0.3349
10678TIP3    H153449   5.091   5.388   2.642  1.3977  1.9292 -0.6851
10678TIP3    H253450   5.001   5.431   2.528 -0.9743  0.1846  0.4813
10679TIP3   OH253451   2.618   2.628  14.036 -0.4738  0.7231 -0.3143
10679TIP3    H153452   2.661   2.617  13.951  0.1979  3.0260 -0.3127
10679TIP3    H253453   2.566   2.708  14.026  2.4597  3.1369  2.4888
10680TIP3   OH253454   3.529   4.512  16.271  0.4704  0.1894 -0.1654
10680TIP3    H153455   3.466   4.562  16.220  0.2407  0.6960  0.6280
10680TIP3    H253456   3.527   4.550  16.358  0.6932 -0.8301  0.3017
10681TIP3   OH253457   6.307   2.347  12.929  0.5341 -0.4229  0.0294
10681TIP3    H153458   6.235   2.404  12.959  0.0193 -1.7421  1.3662
10681TIP3    H253459   6.278   2.315  12.844  0.4068  0.5576 -0.3075
10682TIP3   OH253460   0.805   2.710   1.319 -0.1848  0.1991 -0.2360
10682TIP3    H153461   0.847   2.671   1.395 -0.9695  0.5144  0.3708
10682TIP3    H253462   0.726   2.657   1.306 -0.7227  0.9455 -0.0369
10683TIP3   OH253463   4.784   4.156   2.713  0.1498 -0.4385 -0.6641
10683TIP3    H153464   4.718   4.225   2.705  2.1262  1.8588  1.4785
10683TIP3    H253465   4.789   4.139   2.807  2.4038 -0.7085 -0.7978
10684TIP3   OH253466   2.192   2.466  11.348 -0.3746 -0.1625 -0.2638
10684TIP3    H153467   2.098   2.472  11.366 -0.5012  0.4327 -1.0617
10684TIP3    H253468   2.196   2.431  11.259  0.1879 -1.3041  0.2001
10685TIP3   OH253469   3.822   0.208   2.667 -0.9436 -0.3039 -0.2846
10685TIP3    H153470   3.841   0.184   2.577 -0.6106 -0.3514 -0.2031
10685TIP3    H253471   3.781   0.130   2.704 -0.6892 -0.4334 -0.2751
10686TIP3   OH253472   6.002   1.918  12.709  0.4515  0.5019 -0.6130
10686TIP3    H153473   6.015   1.970  12.788 -0.2545  1.0615 -0.8624
10686TIP3    H253474   6.083   1.868  12.699  0.7205  0.7729  0.2065
10687TIP3   OH253475   4.112   3.987   4.172  0.1648 -0.3729 -0.0163
10687TIP3    H153476   4.092   3.918   4.235 -1.0441 -0.0680 -0.0551
10687TIP3    H253477   4.043   3.980   4.106  1.7958 -1.1276 -1.6962
10688TIP3   OH253478   5.415   0.643  13.639 -0.2126  0.6392  0.1701
10688TIP3    H153479   5.484   0.605  13.693  0.4314  1.0711 -0.3430
10688TIP3    H253480   5.374   0.709  13.695  0.3346  0.9566  0.2079
10689TIP3   OH253481   6.461   0.589  16.505  0.4950  0.3595  0.3644
10689TIP3    H153482   6.381   0.584  16.452  1.5043 -1.5561 -1.0493
10689TIP3    H253483   6.509   0.664  16.469 -0.2094  0.9107  0.5640
10690TIP3   OH253484   1.469   5.577  15.388 -0.1895 -0.2520 -0.0222
10690TIP3    H153485   1.472   5.671  15.402 -1.2580 -0.2972  0.5899
10690TIP3    H253486   1.379   5.561  15.357  0.1161 -1.0134 -0.5369
10691TIP3   OH253487   4.881   1.295   5.713 -0.4044  0.4086  0.5394
10691TIP3    H153488   4.935   1.264   5.785  0.5766  1.0380  0.0769
10691TIP3    H253489   4.943   1.328   5.648 -1.1415 -2.0058 -1.4931
10692TIP3   OH253490   0.242   6.344   5.911  0.0866  0.2148  0.1811
10692TIP3    H153491   0.234   6.319   5.818  1.5809 -1.7469  0.5420
10692TIP3    H253492   0.314   6.290   5.943 -0.9880  0.2533  2.7162
10693TIP3   OH253493   4.660   4.049  15.414  0.0051  0.0678  0.3709
10693TIP3    H153494   4.668   4.145  15.415  2.2840 -0.0895 -0.2859
10693TIP3    H253495   4.566   4.033  15.412 -0.4955  2.2578  3.2328
10694TIP3   OH253496   5.450   3.807  15.831 -1.2848  0.4595  0.0954
10694TIP3    H153497   5.409   3.799  15.917 -0.3140  1.1866  0.6509
10694TIP3    H253498   5.463   3.901  15.821 -1.5437  0.3833 -0.9225
10695TIP3   OH253499   6.572   4.657  14.558  0.2167 -0.6295  0.2283
10695TIP3    H153500   6.604   4.705  14.634  0.4283  0.8883 -0.7948
10695TIP3    H253501   6.479   4.679  14.553  0.4128  0.0887 -0.5119
10696TIP3   OH253502   0.119   4.387   4.487 -0.0034  0.3607  0.1800
10696TIP3    H153503   0.138   4.405   4.395 -1.3620 -0.1995 -0.2234
10696TIP3    H253504   0.038   4.336   4.485  0.9821 -1.2921  1.5922
10697TIP3   OH253505   1.174   3.283   0.341 -0.0793  0.1887  0.7131
10697TIP3    H153506   1.163   3.372   0.374  0.8986  0.0839  1.3521
10697TIP3    H253507   1.152   3.289   0.248  2.7411  1.7193  0.0869
10698TIP3   OH253508   4.743   3.075  16.996 -0.5102 -0.3002  0.7138
10698TIP3    H153509   4.818   3.107  16.945 -2.3728 -0.9111 -2.5853
10698TIP3    H253510   4.693   3.153  17.018 -0.2069 -0.1043  0.7013
10699TIP3   OH253511   3.900   0.524   4.517  0.1046 -0.0612 -0.6012
10699TIP3    H153512   3.815   0.539   4.477 -0.6037  0.6089  1.0950
10699TIP3    H253513   3.953   0.599   4.490 -1.0280  1.5253  1.4221
10700TIP3   OH253514   4.481   1.708  15.475  0.2062 -0.1874 -0.0417
10700TIP3    H153515   4.553   1.760  15.439  0.2521  0.5331  1.0892
10700TIP3    H253516   4.523   1.647  15.535 -0.0084 -0.5147 -0.2255
10701TIP3   OH253517   1.065   6.432   1.346 -0.0586  0.2138  0.1619
10701TIP3    H153518   1.112   6.447   1.428  1.5089  0.0193 -0.6818
10701TIP3    H253519   0.978   6.471   1.361  0.5118  0.9932  1.5756
10702TIP3   OH253520   2.724   2.549   4.136 -0.7882 -0.1598 -0.1302
10702TIP3    H153521   2.759   2.534   4.224  0.2670  0.3339 -0.4686
10702TIP3    H253522   2.636   2.583   4.151 -0.2352  0.8875  0.7441
10703TIP3   OH253523   1.607   0.640  11.519  0.0203  0.5172  0.1966
10703TIP3    H153524   1.631   0.548  11.529  3.5823  1.2477 -1.0276
10703TIP3    H253525   1.583   0.650  11.427 -0.9332  0.7216  0.4549
10704TIP3   OH253526   4.770   5.894  14.786 -0.3708  0.0441  0.0159
10704TIP3    H153527   4.791   5.935  14.702 -0.8403  1.0039  0.3616
10704TIP3    H253528   4.758   5.967  14.846  0.7660 -0.6611  1.1242
10705TIP3   OH253529   1.825   3.802  15.391  0.1245 -0.2431  0.3023
10705TIP3    H153530   1.869   3.839  15.314  3.2924 -0.4578  1.9824
10705TIP3    H253531   1.858   3.853  15.465 -3.8142  0.7927  1.5051
10706TIP3   OH253532   3.985   5.002  15.666  0.1943 -0.2122  0.3313
10706TIP3    H153533   3.933   4.925  15.691 -0.8716 -0.1011 -1.4632
10706TIP3    H253534   4.072   4.967  15.646  0.1840 -0.7072  1.1172
10707TIP3   OH253535   4.683   3.324   2.130  0.4874  0.3180 -0.3122
10707TIP3    H153536   4.603   3.281   2.160  0.3507  1.4452  0.9720
10707TIP3    H253537   4.655   3.382   2.060  0.7387 -1.9794 -2.3615
10708TIP3   OH253538   3.478   3.423   3.338 -0.3272 -0.0009 -0.1977
10708TIP3    H153539   3.411   3.393   3.277 -1.9705  0.4122  1.3839
10708TIP3    H253540   3.430   3.469   3.407  1.4742 -0.5678  1.4908
10709TIP3   OH253541   1.841   2.977   1.082  0.1289 -0.1912 -0.0045
10709TIP3    H153542   1.779   3.004   1.014  2.4177 -0.0658 -2.0976
10709TIP3    H253543   1.884   2.900   1.045  1.9047  0.2959  1.0161
10710TIP3   OH253544   4.899   5.943   2.859  0.2356  0.2364 -0.4853
10710TIP3    H153545   4.944   5.929   2.942  0.6460  2.4134 -0.3105
10710TIP3    H253546   4.968   5.932   2.793  0.5128  1.1666 -0.3612
10711TIP3   OH253547   2.312   5.734   1.650 -0.6879 -0.0004  0.2850
10711TIP3    H153548   2.220   5.748   1.627 -0.6581  1.1090  0.7932
10711TIP3    H253549   2.360   5.795   1.594 -0.2658 -0.5790  0.0217
10712TIP3   OH253550   4.629   0.078  10.717 -0.2555 -0.3592 -0.2961
10712TIP3    H153551   4.662   0.114  10.634 -1.3479  0.8631 -0.2174
10712TIP3    H253552   4.536   0.099  10.717 -0.6090 -1.8619  0.4797
10713TIP3   OH253553   4.395   4.994  16.865 -0.3355 -0.4066  0.3608
10713TIP3    H153554   4.409   4.934  16.792  0.0029  0.3163 -0.1761
10713TIP3    H253555   4.358   5.073  16.825 -0.0282  0.0394  0.9472
10714TIP3   OH253556   4.022   5.690  14.565  0.7762  0.7191 -0.1639
10714TIP3    H153557   3.929   5.671  14.554  1.1097 -1.1100 -0.0205
10714TIP3    H253558   4.062   5.605  14.585  2.5268  1.4182 -0.5485
10715TIP3   OH253559   0.088   5.869  11.763  0.6356  0.1149 -0.0948
10715TIP3    H153560   0.078   5.803  11.695  0.9994 -0.0185 -0.0196
10715TIP3    H253561  -0.001   5.884  11.795  0.6227 -0.7989  0.3197
10716TIP3   OH253562   0.738   1.029   1.214 -0.1706 -0.1604 -0.5997
10716TIP3    H153563   0.684   1.064   1.144  0.4206 -0.3663 -1.1548
10716TIP3    H253564   0.718   0.935   1.215 -1.7692  0.1544  0.8988
10717TIP3   OH253565   4.201   3.973   2.860  0.3230 -0.0316  0.3440
10717TIP3    H153566   4.162   3.965   2.947 -0.6268  2.1964  0.1530
10717TIP3    H253567   4.134   4.016   2.808  0.1980 -2.8865 -2.0001
10718TIP3   OH253568   0.229   3.664   4.166 -0.0409 -0.1663  0.1683
10718TIP3    H153569   0.322   3.682   4.158 -0.1659  0.5010  0.2417
10718TIP3    H253570   0.208   3.612   4.089  0.6448 -1.3528  0.7680
10719TIP3   OH253571   4.004   5.446  15.239  0.0181  0.7307  0.5973
10719TIP3    H153572   3.984   5.470  15.148 -0.0821 -0.6816  0.2381
10719TIP3    H253573   4.096   5.472  15.250  0.8419 -1.4843 -0.7544
10720TIP3   OH253574   3.990   5.991   5.433  0.5047  0.4404 -0.3881
10720TIP3    H153575   4.050   6.063   5.452  0.0833  0.4693  0.8511
10720TIP3    H253576   3.943   6.020   5.354 -1.0549  2.4182  1.2061
10721TIP3   OH253577   6.319   5.733   0.242 -0.8610  0.3297 -0.0148
10721TIP3    H153578   6.237   5.722   0.195 -0.7390 -0.0986 -0.1323
10721TIP3    H253579   6.302   5.697   0.330 -1.1187  1.2195  0.3034
10722TIP3   OH253580   2.229   3.151  16.105  0.2505 -0.0565 -0.0457
10722TIP3    H153581   2.177   3.080  16.143  2.3743 -1.6636 -0.0040
10722TIP3    H253582   2.203   3.229  16.153 -1.7705 -0.9083  0.2782
10723TIP3   OH253583   4.608   2.690  11.817 -0.3333 -0.4644  0.6402
10723TIP3    H153584   4.592   2.599  11.842  1.5940 -0.6886  1.1661
10723TIP3    H253585   4.702   2.702  11.831 -0.4985  1.4899  0.1833
10724TIP3   OH253586   1.304   4.661   5.186  0.2109 -0.7909  0.1575
10724TIP3    H153587   1.213   4.683   5.206 -0.5480 -1.9109 -1.9085
10724TIP3    H253588   1.339   4.739   5.143 -0.0734 -0.6884  0.1071
10725TIP3   OH253589   0.782   6.326   2.848 -0.0005 -0.1874 -0.2540
10725TIP3    H153590   0.859   6.285   2.808  1.0826 -0.0376  1.6194
10725TIP3    H253591   0.784   6.416   2.818 -0.1789 -0.4945 -1.2205
10726TIP3   OH253592   2.442   6.451  16.360  0.2375 -0.1118  0.0278
10726TIP3    H153593   2.415   6.496  16.280 -0.1199 -0.5611 -0.1040
10726TIP3    H253594   2.537   6.456  16.359  0.2502 -0.5548 -0.6742
10727TIP3   OH253595   0.068   0.562   1.953 -0.0681 -0.6265 -0.1644
10727TIP3    H153596   0.153   0.604   1.940  0.1204 -0.7354  0.6785
10727TIP3    H253597   0.022   0.620   2.014 -0.7184 -0.4111 -0.8514
10728TIP3   OH253598   0.896   1.582  13.945 -0.0034 -0.4772 -0.5560
10728TIP3    H153599   0.828   1.637  13.906  0.4100  0.9462  0.6668
10728TIP3    H253600   0.969   1.586  13.884  0.8255  2.1373  0.5133
10729TIP3   OH253601   2.888   2.060  13.736 -0.2967 -0.0795 -0.0289
10729TIP3    H153602   2.817   2.000  13.711 -0.0279 -0.6328  0.4991
10729TIP3    H253603   2.854   2.147  13.718 -0.5124 -0.4199 -1.2657
10730TIP3   OH253604   2.439   4.528   2.932  0.6679  0.4822 -0.1732
10730TIP3    H153605   2.508   4.521   2.999  1.0230 -0.0569 -0.5877
10730TIP3    H253606   2.373   4.585   2.971  0.9340  0.2733  0.5880
10731TIP3   OH253607   4.070   3.085   2.444 -0.2795  0.2250 -0.0933
10731TIP3    H153608   4.097   3.121   2.360 -1.7420  0.4577 -0.4637
10731TIP3    H253609   4.044   2.995   2.424 -0.0623  0.0928  0.2134
10732TIP3   OH253610   2.850   1.161  14.294 -0.4566  0.2528  0.2188
10732TIP3    H153611   2.859   1.068  14.313 -0.3135 -0.1510 -1.7508
10732TIP3    H253612   2.792   1.166  14.218  2.3307  1.5105 -1.9566
10733TIP3   OH253613   2.094   6.667  16.839  0.0852 -1.2502 -0.4707
10733TIP3    H153614   2.016   6.722  16.838  1.5825  0.9096 -1.6324
10733TIP3    H253615   2.155   6.712  16.896  1.1827 -1.9060 -1.1076
10734TIP3   OH253616   6.584   2.036  12.438  0.0289 -0.1275  0.5679
10734TIP3    H153617   6.659   2.068  12.388  0.2819  0.4601  1.3063
10734TIP3    H253618   6.508   2.068  12.390  0.2733  2.6505  1.9146
10735TIP3   OH253619   2.176   2.720  11.552  0.6136  0.0974 -0.3696
10735TIP3    H153620   2.085   2.695  11.572  0.2078  1.0220 -1.0362
10735TIP3    H253621   2.211   2.750  11.636  0.5236 -0.9230  0.0406
10736TIP3   OH253622   2.976   4.147   2.476  0.2631  0.1135 -0.3173
10736TIP3    H153623   3.036   4.114   2.542  0.3276 -1.8072 -1.3076
10736TIP3    H253624   3.024   4.141   2.393  0.0718  2.1860 -0.6109
10737TIP3   OH253625   0.636   3.262   3.380  0.1049  0.1670 -0.2179
10737TIP3    H153626   0.647   3.195   3.447 -0.3513 -0.1835 -0.4925
10737TIP3    H253627   0.549   3.299   3.397 -0.0529  0.0093 -0.6726
10738TIP3   OH253628   0.447   5.201   0.705  0.3625  0.2388  0.2590
10738TIP3    H153629   0.361   5.238   0.686  1.0286  2.5163  1.4668
10738TIP3    H253630   0.433   5.106   0.708 -1.9832  0.5576 -0.0807
10739TIP3   OH253631   3.845   6.616  14.098 -0.5308  0.1732  0.5586
10739TIP3    H153632   3.926   6.586  14.057 -1.9164 -0.2366 -2.0471
10739TIP3    H253633   3.847   6.579  14.186  2.3097  0.5969  0.7100
10740TIP3   OH253634   5.230   0.484   1.199 -0.1152 -0.1470  0.6487
10740TIP3    H153635   5.270   0.397   1.199 -1.1158 -0.6566 -2.3406
10740TIP3    H253636   5.274   0.530   1.127 -0.7635  1.2582  1.1364
10741TIP3   OH253637   2.796   3.360  15.455  0.2282  0.1576 -0.3129
10741TIP3    H153638   2.824   3.451  15.450  0.8511  0.0515  0.9439
10741TIP3    H253639   2.788   3.343  15.549  4.1412 -2.2508 -0.2847
10742TIP3   OH253640   4.458   4.230   5.242 -0.0636 -0.4188 -0.0848
10742TIP3    H153641   4.537   4.271   5.277  0.8008 -0.8969 -1.4800
10742TIP3    H253642   4.404   4.303   5.211 -0.2134 -0.0907  0.9304
10743TIP3   OH253643   3.040   6.785   3.513  0.0967  0.5085  0.0254
10743TIP3    H153644   3.024   6.802   3.420 -0.1998  1.5589  0.2606
10743TIP3    H253645   3.130   6.816   3.527  0.8915 -1.5209 -0.3513
10744TIP3   OH253646   0.148   6.098  16.853  0.0402 -0.8689  0.2031
10744TIP3    H153647   0.226   6.141  16.817 -1.8866  1.2964 -1.5989
10744TIP3    H253648   0.146   6.124  16.945  1.2046 -0.5967  0.1585
10745TIP3   OH253649   3.849   3.055   5.764  0.1621  0.5723 -0.5921
10745TIP3    H153650   3.838   3.121   5.695  0.0542  1.4753  0.2847
10745TIP3    H253651   3.926   3.005   5.737  0.6115  1.4468 -0.9489
10746TIP3   OH253652   2.965   4.639  14.942 -0.0949  0.6433 -0.1022
10746TIP3    H153653   3.026   4.582  14.988  0.0497  0.5079 -0.4619
10746TIP3    H253654   2.993   4.728  14.965 -0.3911  0.5752  0.5483
10747TIP3   OH253655   3.607   1.029  15.528  0.4884 -0.4026 -0.2745
10747TIP3    H153656   3.662   0.961  15.490  2.3308 -0.1507  1.8740
10747TIP3    H253657   3.549   0.983  15.589 -0.1611 -0.3654 -0.8476
10748TIP3   OH253658   4.010   5.857   1.014 -0.3289  0.1076  0.6383
10748TIP3    H153659   3.953   5.791   0.977 -1.8852 -0.3012  3.5938
10748TIP3    H253660   4.042   5.818   1.096  2.0685  1.3854  0.3665
10749TIP3   OH253661   5.009   0.329  12.285  0.2423 -0.4458  0.0414
10749TIP3    H153662   5.035   0.399  12.345 -0.4240  0.0529 -0.2333
10749TIP3    H253663   5.088   0.278  12.271  0.9161  0.6868 -0.3131
10750TIP3   OH253664   2.861   2.849   6.679  0.2838 -0.2737 -0.1148
10750TIP3    H153665   2.793   2.831   6.614  0.0674  2.7578 -0.7952
10750TIP3    H253666   2.918   2.913   6.636  0.4785  1.3461  2.4946
10751TIP3   OH253667   1.141   3.364  11.340  0.5057  0.9099 -0.0224
10751TIP3    H153668   1.169   3.284  11.384  0.0853  0.2924 -0.8463
10751TIP3    H253669   1.199   3.372  11.265  0.0942  0.9950 -0.3341
10752TIP3   OH253670   0.745   4.960  12.510 -0.1872 -0.5556  0.3688
10752TIP3    H153671   0.706   5.047  12.522  1.6480  0.0691  1.9995
10752TIP3    H253672   0.808   4.972  12.439 -1.0217 -0.9281 -0.4415
10753TIP3   OH253673   4.456   1.086  14.197 -0.1375 -0.2062  0.3736
10753TIP3    H153674   4.491   1.012  14.245  2.5024  0.1808 -0.8706
10753TIP3    H253675   4.493   1.163  14.242 -0.7755  0.2718  0.0842
10754TIP3   OH253676   3.584   1.940   4.415  0.0624 -0.4611  0.6843
10754TIP3    H153677   3.643   2.008   4.446 -2.3838  1.8155  0.5048
10754TIP3    H253678   3.607   1.929   4.322  1.2796 -0.7937  1.0126
10755TIP3   OH253679   3.419   4.175  14.926 -0.0744 -0.3393  0.3545
10755TIP3    H153680   3.338   4.200  14.972  0.1775  1.9404 -0.3628
10755TIP3    H253681   3.423   4.080  14.935 -3.7584 -0.7197 -1.0731
10756TIP3   OH253682   5.635   2.233   3.086  0.2946 -0.4776  0.0332
10756TIP3    H153683   5.654   2.224   2.993 -3.1344  0.4595 -0.8171
10756TIP3    H253684   5.664   2.322   3.108  0.5745 -0.4950 -0.2660
10757TIP3   OH253685   2.815   1.098  12.238  0.0120 -0.2010 -0.6280
10757TIP3    H153686   2.909   1.093  12.256 -0.0135  1.0670 -0.0676
10757TIP3    H253687   2.781   1.012  12.263  0.6590  0.1218  1.4642
10758TIP3   OH253688   5.619   5.028  14.388  0.0565  0.1291 -0.0361
10758TIP3    H153689   5.668   5.043  14.468  0.7165  0.6476 -0.5302
10758TIP3    H253690   5.683   5.042  14.318 -0.0816 -1.9109 -0.6179
10759TIP3   OH253691   2.728   1.250  13.076  0.4606 -0.0429 -0.7076
10759TIP3    H153692   2.700   1.226  13.165 -1.3765 -0.1582 -1.3121
10759TIP3    H253693   2.750   1.167  13.035 -1.5330 -0.2997 -1.3079
10760TIP3   OH253694   0.413   2.891  13.834  0.0650  0.3228  0.5761
10760TIP3    H153695   0.469   2.816  13.815 -0.9500  0.0020 -1.2215
10760TIP3    H253696   0.420   2.946  13.756 -1.3156  0.7756  0.7563
10761TIP3   OH253697   3.204   1.430   4.033  0.0231  0.1002 -0.1646
10761TIP3    H153698   3.270   1.499   4.028 -1.5393  1.5772 -0.8175
10761TIP3    H253699   3.131   1.469   4.082 -1.1300 -0.8587 -1.0717
10762TIP3   OH253700   2.049   6.263  15.474 -0.0626 -0.1264 -0.1696
10762TIP3    H153701   2.033   6.356  15.462 -0.4598  0.0872  1.8864
10762TIP3    H253702   1.966   6.221  15.451 -0.1206  0.0818 -0.3451
10763TIP3   OH253703   2.065   3.398   2.489 -0.4124  0.1157 -0.1283
10763TIP3    H153704   2.142   3.442   2.453  0.3779 -0.1672  1.1712
10763TIP3    H253705   2.096   3.357   2.570 -1.6872 -0.8660 -0.1125
10764TIP3   OH253706   5.913   1.418  14.726 -0.2627 -0.3151 -0.7439
10764TIP3    H153707   5.995   1.452  14.692 -0.4682  0.8111 -0.1506
10764TIP3    H253708   5.847   1.448  14.663 -0.3362 -0.3835 -0.6992
10765TIP3   OH253709   1.501   2.689  16.314  0.0310 -0.3635 -0.8374
10765TIP3    H153710   1.502   2.778  16.278 -1.6826  0.3375  0.7252
10765TIP3    H253711   1.562   2.692  16.387  0.5358 -0.6821 -1.2455
10766TIP3   OH253712   2.165   5.586  16.225  0.1749 -0.1763  0.3030
10766TIP3    H153713   2.186   5.515  16.286 -0.6608 -0.5461  0.1738
10766TIP3    H253714   2.095   5.551  16.171  0.0662  0.5958 -0.0627
10767TIP3   OH253715   4.877   3.105   1.571 -0.4003  0.3777  0.1133
10767TIP3    H153716   4.830   3.189   1.572 -0.8407  0.1370 -0.0745
10767TIP3    H253717   4.824   3.048   1.628 -0.0314  0.2646  0.3448
10768TIP3   OH253718   6.032   1.442  11.769 -0.1750 -0.0655 -0.1881
10768TIP3    H153719   5.974   1.515  11.747 -2.1755 -2.4358 -3.2980
10768TIP3    H253720   5.975   1.380  11.815  1.0313 -0.5562  0.6799
10769TIP3   OH253721   2.185   2.483   0.886 -0.5455  0.5740  0.4522
10769TIP3    H153722   2.250   2.414   0.901 -0.2095  0.3545 -1.7395
10769TIP3    H253723   2.103   2.446   0.918 -0.7166 -1.6452 -2.2747
10770TIP3   OH253724   2.364   1.918  12.687  0.6540  0.0533 -0.8756
10770TIP3    H153725   2.378   1.843  12.744 -0.6141 -1.1203 -2.0692
10770TIP3    H253726   2.272   1.941  12.700  1.3685  2.2705  0.4951
10771TIP3   OH253727   6.224   3.991  11.611 -0.7224  0.1802 -0.7287
10771TIP3    H153728   6.273   4.059  11.565 -0.8633  0.9182  0.2009
10771TIP3    H253729   6.238   4.010  11.704  0.8288 -2.1881 -0.4344
10772TIP3   OH253730   2.179   1.366  15.185 -0.2292  0.1464 -0.1926
10772TIP3    H153731   2.133   1.333  15.107  0.8712 -0.7533 -0.4922
10772TIP3    H253732   2.155   1.458  15.190 -1.9173 -0.2703 -0.4324
10773TIP3   OH253733   2.919   3.065  15.687  0.0310  0.0772  0.0530
10773TIP3    H153734   2.825   3.063  15.669  0.3710 -2.1974 -1.5556
10773TIP3    H253735   2.945   2.973  15.692  2.1486  0.6812  0.7318
10774TIP3   OH253736   2.589   0.647  13.993 -0.2879  0.0189  0.0266
10774TIP3    H153737   2.674   0.640  13.950 -0.4196 -1.1500 -0.0760
10774TIP3    H253738   2.581   0.565  14.042 -1.6450 -0.1865 -0.5136
10775TIP3   OH253739   2.131   6.538   4.582  0.0119 -0.5976  0.4479
10775TIP3    H153740   2.150   6.628   4.555 -0.1416 -1.2360 -1.9469
10775TIP3    H253741   2.195   6.519   4.650  2.3377  0.1926 -1.4267
10776TIP3   OH253742   1.116   4.991   2.760 -0.1947  0.7012 -0.2423
10776TIP3    H153743   1.180   5.005   2.690  0.1029 -2.3944 -0.6812
10776TIP3    H253744   1.032   5.015   2.721  0.4597  3.0180 -0.2634
10777TIP3   OH253745   5.062   1.000   5.207  0.2342 -0.2247 -0.4144
10777TIP3    H153746   5.089   0.990   5.116  0.5177 -2.2000 -0.1335
10777TIP3    H253747   5.131   0.958   5.258  0.4486  1.5184  0.7610
10778TIP3   OH253748   6.266   0.797   0.454 -0.1160 -0.2781  0.1168
10778TIP3    H153749   6.211   0.745   0.513  0.1934 -1.1850 -0.3921
10778TIP3    H253750   6.204   0.845   0.399 -0.4286  1.3751  1.8521
10779TIP3   OH253751   2.565   6.682   1.760 -0.1461  0.1599 -0.1880
10779TIP3    H153752   2.641   6.623   1.757  0.1183  0.4645  0.6299
10779TIP3    H253753   2.541   6.693   1.668 -0.7123 -1.8947 -0.3128
10780TIP3   OH253754   6.312   4.438   3.937 -0.4149  0.0094  0.1891
10780TIP3    H153755   6.286   4.514   3.885 -0.1290  0.0206  0.0624
10780TIP3    H253756   6.393   4.464   3.980  0.5759 -0.7756 -1.1398
10781TIP3   OH253757   6.450   2.666  15.009  0.2038  0.2582  0.4074
10781TIP3    H153758   6.461   2.664  15.104 -1.7773  1.1573  0.6883
10781TIP3    H253759   6.429   2.757  14.989  1.1079  0.1824 -0.9668
10782TIP3   OH253760   0.831   4.462  14.339  0.1628 -0.5883 -0.2491
10782TIP3    H153761   0.864   4.383  14.296  0.6088 -1.8598  2.2878
10782TIP3    H253762   0.907   4.520  14.344  0.8559 -1.5609  1.2241
10783TIP3   OH253763   5.342   1.443   4.062 -0.0296  0.8330 -0.1438
10783TIP3    H153764   5.273   1.445   3.996  0.9604 -0.0646 -1.2526
10783TIP3    H253765   5.364   1.350   4.071  2.2519  1.2317 -1.1585
10784TIP3   OH253766   6.725   6.657   4.326 -0.1004 -0.4411  0.1277
10784TIP3    H153767   6.742   6.563   4.330  1.2249 -0.3134 -1.8314
10784TIP3    H253768   6.667   6.668   4.250  2.1191  0.5980 -1.4812
10785TIP3   OH253769   0.391   5.981   2.773  0.6586  0.1040 -0.6513
10785TIP3    H153770   0.414   6.070   2.798 -1.6490  1.4275 -2.9127
10785TIP3    H253771   0.473   5.943   2.741  1.4022  1.9036 -0.9780
10786TIP3   OH253772   0.838   5.115  11.641  0.5640 -0.4284  0.1342
10786TIP3    H153773   0.806   5.134  11.553 -0.3939 -1.5209  0.2395
10786TIP3    H253774   0.779   5.047  11.674  0.6457  0.2695  1.7729
10787TIP3   OH253775   0.733   3.479  16.900 -0.3836  0.0285 -0.0102
10787TIP3    H153776   0.689   3.396  16.883 -0.3854 -0.1043  0.6327
10787TIP3    H253777   0.673   3.545  16.865 -0.7601 -0.1944  0.2148
10788TIP3   OH253778   5.603   2.872   2.571  0.3075 -0.3754 -0.2803
10788TIP3    H153779   5.611   2.960   2.607 -0.7953 -0.0667 -0.7595
10788TIP3    H253780   5.656   2.873   2.491 -0.0675 -0.0060 -0.5264
10789TIP3   OH253781   2.284   1.618  10.921 -0.6132 -0.1951 -0.2265
10789TIP3    H153782   2.371   1.582  10.933 -0.1676  1.1849  0.7235
10789TIP3    H253783   2.298   1.703  10.879 -1.5634 -0.4222 -1.0366
10790TIP3   OH253784   0.974   0.798   1.851  0.1982 -0.2359 -0.3468
10790TIP3    H153785   0.985   0.891   1.833  1.0896 -0.0839  0.9053
10790TIP3    H253786   0.901   0.794   1.912  0.5340 -0.3064  0.0523
10791TIP3   OH253787   0.381   6.559   1.410 -0.4429  0.1073  0.3408
10791TIP3    H153788   0.438   6.514   1.348  0.1721  1.5444 -0.1670
10791TIP3    H253789   0.298   6.569   1.364  0.2781  1.9533 -0.6257
10792TIP3   OH253790   5.125   4.372   5.733 -0.1039 -0.7783 -0.7802
10792TIP3    H153791   5.093   4.282   5.725  0.1982 -1.0170  0.6252
10792TIP3    H253792   5.066   4.413   5.795  1.5395 -0.8715  0.8825
10793TIP3   OH253793   1.310   1.559  14.836  0.0547  0.1834  0.7601
10793TIP3    H153794   1.329   1.652  14.846 -1.0619  0.5184 -0.1148
10793TIP3    H253795   1.383   1.524  14.785  1.9485 -0.0216  3.4872
10794TIP3   OH253796   1.478   3.887  10.692 -0.3609 -0.0217  0.0457
10794TIP3    H153797   1.442   3.945  10.626  0.1337 -1.7801 -1.8278
10794TIP3    H253798   1.572   3.887  10.676 -0.1566  0.0842  1.2077
10795TIP3   OH253799   2.604   2.613   2.716  0.1031  0.5656 -0.3988
10795TIP3    H153800   2.673   2.568   2.667 -0.1245  1.4331 -1.5209
10795TIP3    H253801   2.650   2.682   2.764  0.1816  0.3587 -0.1723
10796TIP3   OH253802   3.499   2.399   3.993  0.5867  0.1332 -0.4147
10796TIP3    H153803   3.430   2.387   3.927  1.1509 -0.3807 -0.9124
10796TIP3    H253804   3.510   2.493   4.000 -0.1702  0.2183 -0.3329
10797TIP3   OH253805   5.474   2.141   2.188 -0.4259  0.1762  0.5103
10797TIP3    H153806   5.532   2.188   2.128 -1.4237  2.0472  0.9825
10797TIP3    H253807   5.393   2.129   2.138 -0.1300 -1.1734  0.3479
10798TIP3   OH253808   4.335   4.982   1.079  0.5459 -0.2860  0.4325
10798TIP3    H153809   4.332   4.907   1.018  1.6143 -0.8703  1.0852
10798TIP3    H253810   4.277   4.957   1.150 -0.3998  0.2293 -0.1514
10799TIP3   OH253811   5.939   0.867  16.482  0.2161 -0.3850 -0.0549
10799TIP3    H153812   5.952   0.821  16.398 -1.7010 -1.4862  0.2335
10799TIP3    H253813   6.007   0.934  16.482  0.2920 -0.3899 -2.4864
10800TIP3   OH253814   2.165   4.388   2.262 -0.1535 -0.4901 -0.3877
10800TIP3    H153815   2.094   4.437   2.220  0.1040 -1.1480 -1.5826
10800TIP3    H253816   2.234   4.453   2.275 -1.7593  0.7194  2.8247
10801TIP3   OH253817   0.229   1.620  17.118 -0.3187 -0.1010 -0.2788
10801TIP3    H153818   0.150   1.619  17.173 -0.0921 -1.2090  0.0494
10801TIP3    H253819   0.278   1.696  17.149 -0.4301 -0.4257  0.7371
10802TIP3   OH253820   2.344   6.313  16.614 -0.6635 -0.8013  0.2557
10802TIP3    H153821   2.387   6.380  16.668  0.2758  0.3263 -1.8355
10802TIP3    H253822   2.356   6.344  16.524 -3.3664 -1.9412 -0.5523
10803TIP3   OH253823   5.990   2.007  17.192  0.2429 -0.7608 -0.0720
10803TIP3    H153824   6.067   1.961  17.159 -0.7368 -1.8555 -0.8678
10803TIP3    H253825   5.939   1.940  17.236 -0.4915 -0.1391  0.0400
10804TIP3   OH253826   3.676   6.064  12.295 -0.3695 -0.2788  0.3130
10804TIP3    H153827   3.611   6.117  12.343 -0.8080 -0.4754 -0.0564
10804TIP3    H253828   3.636   5.977  12.290  0.5445 -0.7571  1.2925
10805TIP3   OH253829   3.548   5.939  13.501  0.1301  0.0011  0.4465
10805TIP3    H153830   3.550   6.030  13.529  0.5478  0.4301 -0.9747
10805TIP3    H253831   3.627   5.900  13.539  0.1611  0.3313  0.7195
10806TIP3   OH253832   3.984   6.105   5.869  0.2415 -0.6878 -0.2917
10806TIP3    H153833   4.009   6.197   5.876  0.2367 -0.7225  0.1625
10806TIP3    H253834   3.957   6.095   5.777 -1.7765  0.2763  0.1574
10807TIP3   OH253835   4.214   5.227   2.136  0.7368  0.1977  0.6004
10807TIP3    H153836   4.297   5.269   2.113  1.4097 -1.2333  0.3182
10807TIP3    H253837   4.200   5.249   2.228  0.7384  1.5747  0.2787
10808TIP3   OH253838   1.928   2.598  11.617  0.1208 -0.6557 -0.0383
10808TIP3    H153839   1.909   2.525  11.558  1.5469 -0.3326 -0.9220
10808TIP3    H253840   1.875   2.580  11.694 -3.6173  0.1243 -2.2943
10809TIP3   OH253841   5.309   5.612  14.580  0.3604  0.2610  0.0517
10809TIP3    H153842   5.240   5.583  14.521  0.3313 -0.0593  0.2436
10809TIP3    H253843   5.389   5.573  14.545  0.4674  0.7355 -0.2448
10810TIP3   OH253844   6.253   3.599   5.611  0.0821  0.0339 -0.4889
10810TIP3    H153845   6.317   3.590   5.539 -0.5957  0.6615 -1.1698
10810TIP3    H253846   6.217   3.687   5.601  0.9606  0.6482  1.4555
10811TIP3   OH253847   3.146   1.686   1.896  0.1103  0.2289  0.0840
10811TIP3    H153848   3.182   1.620   1.955  0.6486  1.6160  1.3312
10811TIP3    H253849   3.160   1.769   1.941  0.5015  1.3195 -1.9651
10812TIP3   OH253850   6.564   1.527   6.623 -0.1298  0.2832  0.1189
10812TIP3    H153851   6.536   1.475   6.548 -1.7222 -0.2487  1.0589
10812TIP3    H253852   6.483   1.554   6.666  0.7381  1.3580  1.1253
10813TIP3   OH253853   4.348   1.498   3.575  0.2301 -0.2411 -0.5074
10813TIP3    H153854   4.385   1.479   3.661  0.1248  0.4646 -0.3041
10813TIP3    H253855   4.345   1.413   3.531  2.2410 -0.2847 -0.6029
10814TIP3   OH253856   2.492   2.277   1.475 -0.1366 -0.3573  0.4387
10814TIP3    H153857   2.502   2.182   1.480  0.1422 -0.3061  0.8632
10814TIP3    H253858   2.535   2.301   1.393  0.2550 -0.5338  0.5916
10815TIP3   OH253859   6.419   3.636  10.988  0.6086 -0.4067 -0.6225
10815TIP3    H153860   6.483   3.616  10.919  1.3971 -1.4091  0.3740
10815TIP3    H253861   6.473   3.664  11.063 -0.2187  0.3285 -0.2920
10816TIP3   OH253862   5.531   3.505  16.359 -0.1262  0.7990  0.4445
10816TIP3    H153863   5.554   3.548  16.442  0.9777  0.7308  0.1830
10816TIP3    H253864   5.553   3.570  16.292  0.1045  0.4099  0.1397
10817TIP3   OH253865   5.399   2.638  15.585 -0.3537  0.0018 -0.2158
10817TIP3    H153866   5.359   2.699  15.524 -0.9397 -1.0798 -0.9337
10817TIP3    H253867   5.493   2.641  15.564 -0.4574  0.2032 -0.6472
10818TIP3   OH253868   2.361   4.516  16.108 -0.2958  0.7645  0.2140
10818TIP3    H153869   2.454   4.491  16.111  0.4060  3.1138 -0.3325
10818TIP3    H253870   2.346   4.561  16.192 -1.3434 -0.8561  0.9096
10819TIP3   OH253871   2.093   1.174   5.261  0.0266  0.0714  0.4615
10819TIP3    H153872   2.024   1.175   5.327  1.3788  0.0339  1.9112
10819TIP3    H253873   2.173   1.153   5.310  1.1477  0.5744 -1.0994
10820TIP3   OH253874   6.148   1.008   3.984 -0.1536 -0.8395  0.2185
10820TIP3    H153875   6.128   1.002   3.890  2.4484  0.1565 -0.4306
10820TIP3    H253876   6.147   1.101   4.003  1.4117 -0.9134  0.7085
10821TIP3   OH253877   1.547   5.297   2.912  0.0962  0.0163 -0.2443
10821TIP3    H153878   1.635   5.277   2.882  0.5871 -0.7459  1.6198
10821TIP3    H253879   1.536   5.244   2.991 -2.2465 -0.3273 -0.7683
10822TIP3   OH253880   5.814   2.169   0.250  0.7671  0.5076  0.5362
10822TIP3    H153881   5.801   2.159   0.156 -1.8003  2.2671  0.6713
10822TIP3    H253882   5.750   2.110   0.290  2.8053 -1.3084  1.2170
10823TIP3   OH253883   0.601   5.349   5.037 -0.1941  0.4185  0.0872
10823TIP3    H153884   0.629   5.277   4.979  0.5096 -0.4140  1.4308
10823TIP3    H253885   0.588   5.423   4.978  0.1690 -0.5096 -1.1892
10824TIP3   OH253886   4.554   2.778   4.846  0.3240  0.0890 -0.0272
10824TIP3    H153887   4.463   2.775   4.817  0.4026  2.1910 -0.5851
10824TIP3    H253888   4.604   2.796   4.767  1.0057  1.0374  0.5997
10825TIP3   OH253889   4.118   2.839  16.620  0.2893 -0.3323  0.3130
10825TIP3    H153890   4.207   2.869  16.599 -0.8397  2.8938 -0.1106
10825TIP3    H253891   4.069   2.854  16.539 -0.7586 -1.7682  0.6617
10826TIP3   OH253892   0.809   5.394  11.232 -0.8384  0.0685 -0.2043
10826TIP3    H153893   0.732   5.341  11.253 -0.6777  0.1791  0.6878
10826TIP3    H253894   0.870   5.378  11.304  0.1667 -0.3738 -1.1212
10827TIP3   OH253895   2.677   4.244   5.533  0.4412 -0.4579  0.3573
10827TIP3    H153896   2.646   4.187   5.462 -1.1975 -0.7339  1.2619
10827TIP3    H253897   2.751   4.197   5.572 -0.1356 -1.3980  0.3181
10828TIP3   OH253898   4.724   1.216  13.824  0.0526  0.0585 -0.6327
10828TIP3    H153899   4.637   1.186  13.798  0.6701 -2.5213  0.0626
10828TIP3    H253900   4.782   1.144  13.798  1.3433 -0.3665  3.1044
10829TIP3   OH253901   5.542   3.602   0.379  0.0750  0.0246 -0.0185
10829TIP3    H153902   5.563   3.549   0.457 -0.4707 -1.2271 -0.7029
10829TIP3    H253903   5.591   3.560   0.309  0.6510  1.2255 -0.3271
10830TIP3   OH253904   6.516   1.171  12.669  0.1778 -0.1999  0.2009
10830TIP3    H153905   6.429   1.137  12.647  0.4341  0.4536 -1.9633
10830TIP3    H253906   6.538   1.129  12.752 -1.3234 -1.9973 -0.2784
10831TIP3   OH253907   5.374   6.469  15.298  0.7845 -0.2685  0.2440
10831TIP3    H153908   5.328   6.552  15.309  0.1831 -0.5507 -0.1619
10831TIP3    H253909   5.440   6.487  15.231 -0.1100 -0.4209 -0.6956
10832TIP3   OH253910   0.137   2.712  13.987  0.5772  0.2849 -0.4789
10832TIP3    H153911   0.125   2.726  13.893 -0.6983 -0.9233 -0.5165
10832TIP3    H253912   0.049   2.718  14.024  1.0444  0.5512  0.6127
10833TIP3   OH253913   1.863   6.582  13.841 -0.2997  0.1065  0.3974
10833TIP3    H153914   1.957   6.589  13.821 -0.1459 -0.3453  0.9090
10833TIP3    H253915   1.819   6.585  13.756  0.2280 -0.3580  0.1035
10834TIP3   OH253916   6.378   5.457   0.317  0.2876 -0.0215 -0.4720
10834TIP3    H153917   6.369   5.430   0.409 -1.5173 -2.0678 -1.1962
10834TIP3    H253918   6.462   5.420   0.289  0.3270 -0.3349  0.0467
10835TIP3   OH253919   3.327   4.855  12.954  0.1939 -0.3615 -0.2865
10835TIP3    H153920   3.401   4.814  12.997 -0.9304 -0.4176  1.6539
10835TIP3    H253921   3.321   4.811  12.869  1.8066 -0.9715 -0.0956
10836TIP3   OH253922   3.929   3.254   4.430  0.5857 -0.2979  0.1663
10836TIP3    H153923   3.945   3.345   4.457 -0.9490  0.8170 -2.4187
10836TIP3    H253924   3.854   3.226   4.481  0.9023 -0.0167  0.7854
10837TIP3   OH253925   1.771   0.226   3.587  0.4644  0.3272 -0.4031
10837TIP3    H153926   1.784   0.133   3.606 -0.6083  0.0141 -1.1755
10837TIP3    H253927   1.703   0.254   3.648  1.0774  0.7058  0.1088
10838TIP3   OH253928   1.905   5.831  12.440 -0.2845 -0.9298 -0.0914
10838TIP3    H153929   1.863   5.775  12.505 -1.0497 -0.0823  0.1683
10838TIP3    H253930   1.835   5.890  12.411  0.5661  0.0722 -0.1418
10839TIP3   OH253931   0.026   6.120   6.060  0.1903 -0.2635  0.0094
10839TIP3    H153932   0.086   6.073   6.118 -1.8558 -1.6497  1.0410
10839TIP3    H253933  -0.038   6.160   6.119  0.1413  1.3006 -1.0754
10840TIP3   OH253934   5.460   4.927  11.403  0.4284  0.5975 -0.1317
10840TIP3    H153935   5.468   5.008  11.354  0.7368 -0.1714 -1.3831
10840TIP3    H253936   5.516   4.939  11.480  0.2843  1.6446 -0.1868
10841TIP3   OH253937   1.475   1.268   5.716 -0.0312  0.0627 -0.1516
10841TIP3    H153938   1.395   1.247   5.668 -0.1372  0.1145  0.0048
10841TIP3    H253939   1.485   1.363   5.706  0.0729  0.0412 -0.2669
10842TIP3   OH253940   5.721   6.467   0.908 -0.3623  0.0886 -0.3796
10842TIP3    H153941   5.674   6.449   0.990 -1.8490  0.7970 -1.0607
10842TIP3    H253942   5.713   6.386   0.857  2.4355 -1.1496  1.0097
10843TIP3   OH253943   0.242   2.735  10.440 -0.3461 -0.3986  0.2478
10843TIP3    H153944   0.225   2.657  10.387  0.5101  0.3010 -1.0722
10843TIP3    H253945   0.213   2.711  10.528 -4.1590 -0.7291 -1.0033
10844TIP3   OH253946   4.146   0.667   3.940  0.4463  0.3714 -0.3828
10844TIP3    H153947   4.068   0.646   3.889  0.2464  1.7639 -0.6630
10844TIP3    H253948   4.116   0.670   4.030  0.4307 -0.3203 -0.3653
10845TIP3   OH253949   4.309   5.433   1.389  0.4442  0.3892 -0.3071
10845TIP3    H153950   4.309   5.497   1.318  1.9112  1.4874  0.6776
10845TIP3    H253951   4.400   5.405   1.397  0.0633 -0.7113  0.2723
10846TIP3   OH253952   5.544   4.549   2.706 -0.0541 -1.0623 -0.4731
10846TIP3    H153953   5.633   4.516   2.700 -0.8988 -3.7520  1.0186
10846TIP3    H253954   5.543   4.626   2.650  3.4456 -0.4178  0.2940
10847TIP3   OH253955   2.499   6.048   2.726  0.1366 -0.2497 -0.0855
10847TIP3    H153956   2.406   6.030   2.719  0.1612 -0.7332  0.7887
10847TIP3    H253957   2.542   5.963   2.713  0.3653 -0.3672  1.3736
10848TIP3   OH253958   2.090   3.610  16.589 -0.0642  0.3062  0.4174
10848TIP3    H153959   2.017   3.550  16.572 -0.0262  0.0409  1.1962
10848TIP3    H253960   2.051   3.684  16.635 -0.0972  0.8575 -0.4827
10849TIP3   OH253961   4.030   1.404  11.593 -0.3589  0.1885  0.2063
10849TIP3    H153962   4.111   1.353  11.604  0.0165  0.8018  0.2783
10849TIP3    H253963   4.002   1.423  11.682 -1.1947 -0.9803  0.2040
10850TIP3   OH253964   6.122   2.521  11.586 -0.1845  0.0520 -0.4670
10850TIP3    H153965   6.151   2.607  11.615 -2.1199  1.3711 -2.3485
10850TIP3    H253966   6.081   2.482  11.664  0.1419  1.0798  0.2241
10851TIP3   OH253967   1.284   0.564   6.201 -0.1581  0.1217  0.5180
10851TIP3    H153968   1.342   0.557   6.277  0.8104 -0.5328 -0.2736
10851TIP3    H253969   1.204   0.519   6.227  0.0477  0.1835  1.2640
10852TIP3   OH253970   2.220   3.487  12.519  0.1586 -0.6959 -0.1480
10852TIP3    H153971   2.250   3.415  12.574  0.3005  0.9019  1.9333
10852TIP3    H253972   2.267   3.476  12.437  1.4932 -1.9712  0.7638
10853TIP3   OH253973   3.405   3.642  15.794 -0.1937  0.2562  0.2628
10853TIP3    H153974   3.473   3.621  15.731  2.2456  1.5537  2.3724
10853TIP3    H253975   3.418   3.580  15.865 -1.0662  0.6780  0.7993
10854TIP3   OH253976   4.361   5.815  14.459  0.0690  0.4262 -0.3236
10854TIP3    H153977   4.398   5.727  14.449  2.9334  1.6105 -0.7750
10854TIP3    H253978   4.285   5.816  14.401  1.0789 -1.1561 -1.7227
10855TIP3   OH253979   6.641   2.598  14.191 -0.0940 -0.5420  0.0525
10855TIP3    H153980   6.563   2.551  14.220  0.7186 -0.5179  2.3125
10855TIP3    H253981   6.608   2.660  14.126 -1.4912 -2.6352 -1.3153
10856TIP3   OH253982   5.273   2.716   0.919 -0.1067 -0.5069 -0.0347
10856TIP3    H153983   5.211   2.661   0.966 -5.2166  3.4240 -1.6759
10856TIP3    H253984   5.258   2.697   0.827  1.6710  0.0265 -0.4596
10857TIP3   OH253985   2.206   0.460   3.100 -0.1360 -0.2897  0.3789
10857TIP3    H153986   2.233   0.368   3.103  1.9174  0.2925  0.0464
10857TIP3    H253987   2.251   0.496   3.023 -0.8177  1.0448  0.5874
10858TIP3   OH253988   0.983   6.014   5.954  0.3427 -0.0136  0.2096
10858TIP3    H153989   1.023   6.003   6.040  4.1148 -1.2754 -1.6279
10858TIP3    H253990   0.937   5.931   5.939  1.6506 -0.7219  0.0369
10859TIP3   OH253991   3.069   0.530  14.032 -0.1242 -0.1002 -0.1582
10859TIP3    H153992   3.022   0.568  14.106 -0.6368  1.6887 -1.3593
10859TIP3    H253993   3.137   0.476  14.072 -0.0803  1.2127  1.6279
10860TIP3   OH253994   4.529   1.577  14.726  0.0253 -0.3324  0.2292
10860TIP3    H153995   4.478   1.651  14.694 -3.1412 -2.1774  0.7703
10860TIP3    H253996   4.523   1.583  14.822  1.4119 -0.1982  0.3170
10861TIP3   OH253997   6.336   3.512   5.090 -0.1216 -0.2967  0.9134
10861TIP3    H153998   6.352   3.431   5.042  1.6073 -0.1835  1.2946
10861TIP3    H253999   6.291   3.485   5.170 -0.9001 -0.7109  0.3488
10862TIP3   OH254000   0.583   4.485  15.545 -0.5746  0.5382 -0.3039
10862TIP3    H154001   0.565   4.564  15.493 -2.2440 -0.5707 -1.4415
10862TIP3    H254002   0.612   4.420  15.481  0.9489  0.2506  0.6559
10863TIP3   OH254003   6.693   1.170  16.371  0.1168 -0.1006  0.1702
10863TIP3    H154004   6.732   1.126  16.446 -1.5611 -0.3503  0.9069
10863TIP3    H254005   6.673   1.259  16.402 -1.0725 -0.3702  0.1933
10864TIP3   OH254006   3.256   5.663  11.859 -0.5336  0.6056 -0.4180
10864TIP3    H154007   3.258   5.587  11.917 -0.1316  1.3973  0.6191
10864TIP3    H254008   3.330   5.650  11.800 -2.1126 -1.2010 -2.0747
10865TIP3   OH254009   4.661   4.442  12.002  0.5995  0.4419 -0.2265
10865TIP3    H154010   4.669   4.404  11.915  0.6618 -0.7105  0.2670
10865TIP3    H254011   4.749   4.470  12.024  0.8846 -0.6608  0.0738
10866TIP3   OH254012   3.728   4.011   2.382 -0.1747 -0.6963 -0.4237
10866TIP3    H154013   3.678   3.976   2.456  0.3811  1.1816  0.8798
10866TIP3    H254014   3.721   4.106   2.392  2.3936 -0.4264 -1.0844
10867TIP3   OH254015   1.599   6.217   2.488 -0.0032  0.4665 -0.0287
10867TIP3    H154016   1.671   6.268   2.524 -0.9272  0.0859  2.4825
10867TIP3    H254017   1.535   6.282   2.459  1.2288  0.7994 -2.0868
10868TIP3   OH254018   3.485   6.757  12.663 -0.0742  0.1452 -0.5351
10868TIP3    H154019   3.403   6.737  12.618 -0.3712 -1.9722  0.8557
10868TIP3    H254020   3.551   6.705  12.617  0.0137 -0.2660  0.0534
10869TIP3   OH254021   1.754   0.672   1.256  0.2298  0.0174  0.1713
10869TIP3    H154022   1.794   0.666   1.169  1.0350  1.1847  0.4437
10869TIP3    H254023   1.686   0.739   1.246  1.2750  1.1961  0.7712
10870TIP3   OH254024   4.996   4.339   5.257 -0.0427 -0.0913 -0.4920
10870TIP3    H154025   4.996   4.391   5.338 -2.1289  1.0053 -1.1754
10870TIP3    H254026   5.027   4.400   5.190  0.8365 -0.7537 -0.7077
10871TIP3   OH254027   4.993   3.163   2.422  0.0928  0.1735  0.6361
10871TIP3    H154028   4.902   3.193   2.431  0.3398  1.0455  0.3259
10871TIP3    H254029   4.986   3.072   2.393 -0.6840 -0.2563  2.1359
10872TIP3   OH254030   5.943   2.099  12.432  0.6647 -0.0139  0.0229
10872TIP3    H154031   5.982   2.185  12.448 -0.8241  0.6987 -0.1001
10872TIP3    H254032   5.959   2.050  12.513 -0.6026  1.2012  1.0304
10873TIP3   OH254033   0.634   0.089   3.899 -0.5883  0.0655 -0.1176
10873TIP3    H154034   0.607   0.059   3.986  0.9252 -0.0556  0.3290
10873TIP3    H254035   0.705   0.150   3.916 -1.0864  0.9671 -1.2223
10874TIP3   OH254036   4.958   5.319   4.924  0.1499 -0.1589  0.1990
10874TIP3    H154037   4.899   5.355   4.858 -0.1479 -0.5544  0.2463
10874TIP3    H254038   4.950   5.224   4.913  0.2975 -0.2210  0.6294
10875TIP3   OH254039   1.164   5.025   5.857  0.6584 -0.0799  0.2246
10875TIP3    H154040   1.158   4.950   5.916  1.5186  0.2364  0.7284
10875TIP3    H254041   1.128   4.993   5.774  0.0248 -0.7152  0.7381
10876TIP3   OH254042   0.459   6.179  13.762  0.2635 -0.1625  0.0006
10876TIP3    H154043   0.479   6.254  13.706 -0.6523  0.2534  0.2172
10876TIP3    H254044   0.419   6.115  13.703  1.8639 -0.8568 -0.3649
10877TIP3   OH254045   4.716   3.206  16.572  0.1360  0.3940  0.2343
10877TIP3    H154046   4.803   3.189  16.535 -0.0133  3.6364 -1.8182
10877TIP3    H254047   4.662   3.133  16.542  1.8437 -1.0203  0.5133
10878TIP3   OH254048   1.270   0.280   5.385  0.0967  0.4647  0.5630
10878TIP3    H154049   1.191   0.239   5.351 -0.1635  1.4128  0.0030
10878TIP3    H254050   1.288   0.235   5.467  0.0461 -1.0277 -0.2327
10879TIP3   OH254051   6.080   4.362   5.854  0.2033 -0.0370 -0.4828
10879TIP3    H154052   6.051   4.450   5.879 -2.7783 -0.4453 -2.3080
10879TIP3    H254053   6.104   4.320   5.937 -1.4997  1.3932  0.7683
10880TIP3   OH254054   6.765   5.430  14.716 -0.1385 -0.5002  0.3647
10880TIP3    H154055   6.745   5.510  14.669  1.7344  0.0597  0.4753
10880TIP3    H254056   6.745   5.449  14.808  0.3377 -0.1265  0.3961
10881TIP3   OH254057   6.340   1.809   2.561  0.1079 -0.4080 -0.0226
10881TIP3    H154058   6.380   1.891   2.531  1.4926 -0.2492  2.1735
10881TIP3    H254059   6.281   1.784   2.490 -0.4389  2.5488 -0.6664
10882TIP3   OH254060   3.102   5.778  14.701 -0.0074 -0.2612 -0.0434
10882TIP3    H154061   3.171   5.776  14.635 -0.1591  1.7398 -0.2982
10882TIP3    H254062   3.113   5.863  14.745  0.1715 -1.6040  2.6063
10883TIP3   OH254063   6.337   1.375  14.607 -0.2148  0.1114 -0.1553
10883TIP3    H154064   6.341   1.329  14.523  0.9667  0.4956 -0.3097
10883TIP3    H254065   6.259   1.430  14.600  0.2762  0.6691 -1.2660
10884TIP3   OH254066   6.185   3.375   4.799 -0.2713  0.5045  0.3896
10884TIP3    H154067   6.117   3.419   4.850 -0.0534  0.9903  0.2564
10884TIP3    H254068   6.257   3.437   4.797  0.4924 -0.3428  1.2386
10885TIP3   OH254069   4.837   1.219   4.995 -0.1450 -0.4932  0.2631
10885TIP3    H154070   4.840   1.315   5.005 -1.1014 -0.3591 -0.6497
10885TIP3    H254071   4.777   1.189   5.063  0.3177 -0.4622  0.6840
10886TIP3   OH254072   4.934   0.484   4.961  0.6342  0.0291  0.5747
10886TIP3    H154073   4.924   0.579   4.954  5.2176  0.5061 -1.7710
10886TIP3    H254074   4.880   0.448   4.891  0.3566  1.0532  0.2604
10887TIP3   OH254075   2.403   1.759  12.392 -0.4982 -0.4384  0.7331
10887TIP3    H154076   2.384   1.669  12.418  1.4603 -0.4123  2.3163
10887TIP3    H254077   2.358   1.813  12.458 -3.2929 -0.1549 -1.2908
10888TIP3   OH254078   6.249   0.072  13.080  0.3357 -0.2050 -0.5334
10888TIP3    H154079   6.280   0.087  12.991  1.3339  0.1894 -0.1300
10888TIP3    H254080   6.289   0.143  13.132 -0.6065 -0.1577  0.1395
10889TIP3   OH254081   0.864   0.288  14.645 -0.1420 -0.4952 -0.1503
10889TIP3    H154082   0.930   0.253  14.705  0.9103  0.3172 -0.8077
10889TIP3    H254083   0.832   0.368  14.688 -2.0083 -1.8058  1.0017
10890TIP3   OH254084   4.392   4.255   4.742 -0.1331  0.2455  0.5996
10890TIP3    H154085   4.322   4.309   4.781  0.7743  1.0619  1.1174
10890TIP3    H254086   4.455   4.243   4.813  1.5138  1.6807 -0.5922
10891TIP3   OH254087   4.088   2.438  16.057 -0.3435 -0.2075  0.8235
10891TIP3    H154088   4.136   2.380  15.998  1.2606 -0.3019  2.1642
10891TIP3    H254089   4.005   2.394  16.072 -0.4625 -0.5473 -0.7580
10892TIP3   OH254090   6.752   0.560  15.456  1.1396 -0.2504  0.0620
10892TIP3    H154091   6.714   0.625  15.396 -1.1964 -1.5563  0.0779
10892TIP3    H254092   6.815   0.512  15.402  1.0536  0.3849 -0.6191
10893TIP3   OH254093   1.426   6.083   1.230 -0.1108 -0.3122 -0.0494
10893TIP3    H154094   1.470   6.018   1.284  1.2406  2.0155  1.7129
10893TIP3    H254095   1.476   6.084   1.148  0.5076 -0.7224  0.3221
10894TIP3   OH254096   0.963   1.854   0.750 -1.6595 -0.0188 -0.1555
10894TIP3    H154097   1.028   1.923   0.735 -2.1285  0.3818 -0.3598
10894TIP3    H254098   0.994   1.780   0.698  0.4009 -0.9687  2.2654
10895TIP3   OH254099   6.739   1.490   2.458  0.0816  0.0284  0.5841
10895TIP3    H154100   6.713   1.471   2.368 -0.7238 -1.4251  1.1084
10895TIP3    H254101   6.698   1.574   2.478 -2.8715 -1.4096  0.8207
10896TIP3   OH254102   1.855   3.580  12.631  0.2049 -0.0760 -0.2320
10896TIP3    H154103   1.861   3.493  12.591 -2.0057 -0.2368 -0.2778
10896TIP3    H254104   1.826   3.637  12.561 -0.2263  0.3294  0.2705
10897TIP3   OH254105   6.692   3.792  16.931  0.2494 -0.0871  0.0722
10897TIP3    H154106   6.647   3.713  16.963  1.2592 -0.4589  0.6015
10897TIP3    H254107   6.748   3.760  16.860  0.3696  0.2107  0.0355
10898TIP3   OH254108   2.864   1.739   2.393 -0.5697 -0.1324  0.1418
10898TIP3    H154109   2.852   1.827   2.429 -2.1856 -0.5031  0.5208
10898TIP3    H254110   2.818   1.740   2.309 -0.9630 -0.7515  0.3464
10899TIP3   OH254111   3.568   4.211  13.790  0.3421 -0.4075 -0.8493
10899TIP3    H154112   3.573   4.145  13.859 -1.0578  0.4443  0.0907
10899TIP3    H254113   3.562   4.161  13.709  3.2760 -1.4260 -0.4871
10900TIP3   OH254114   6.345   6.245   3.123 -0.0658  0.3760 -0.5921
10900TIP3    H154115   6.408   6.306   3.086  0.4575  0.2933  0.1507
10900TIP3    H254116   6.333   6.179   3.055  3.7511 -1.8479  0.7660
10901TIP3   OH254117   1.198   5.068   3.379 -0.4665  0.3228 -0.0477
10901TIP3    H154118   1.238   4.986   3.408  0.1126  0.1740 -1.2317
10901TIP3    H254119   1.111   5.068   3.419  0.4720  0.3527  2.0431
10902TIP3   OH254120   3.344   0.092   3.729 -0.7382  0.1308  0.5096
10902TIP3    H154121   3.430   0.054   3.710 -0.0350  0.9375  1.9827
10902TIP3    H254122   3.361   0.186   3.739 -2.0517  0.5126 -0.6831
10903TIP3   OH254123   2.033   5.854   0.469  0.2462 -0.3275 -0.4723
10903TIP3    H154124   2.104   5.803   0.507  1.6011  2.2179  0.4990
10903TIP3    H254125   2.073   5.901   0.396 -0.3756  1.3051  0.2271
10904TIP3   OH254126   4.623   4.717   1.440 -0.1617  0.5163  0.3354
10904TIP3    H154127   4.535   4.685   1.419  0.4621 -0.7473 -0.3553
10904TIP3    H254128   4.660   4.743   1.356  0.1805  0.9153  0.6101
10905TIP3   OH254129   0.513   2.691  15.531  0.5025  0.2896 -0.1175
10905TIP3    H154130   0.525   2.750  15.456 -1.7161 -0.6170 -1.2424
10905TIP3    H254131   0.565   2.614  15.509  1.8022  0.9992  0.4244
10906TIP3   OH254132   0.043   3.102   1.498  0.4702 -0.0730  0.5447
10906TIP3    H154133  -0.040   3.057   1.480  0.9459 -1.2033  1.1295
10906TIP3    H254134   0.084   3.050   1.566  0.8343  1.5280  1.5783
10907TIP3   OH254135   5.644   6.242  15.798  0.0738  0.1668  0.7174
10907TIP3    H154136   5.567   6.270  15.749  0.0734  2.0821  1.7509
10907TIP3    H254137   5.717   6.259  15.739 -0.1276  0.2037  0.4773
10908TIP3   OH254138   3.558   2.027   0.048  0.2883 -0.1913  0.3938
10908TIP3    H154139   3.594   1.988   0.128  0.1260 -0.7607  0.1961
10908TIP3    H254140   3.463   2.027   0.062  0.2660 -0.1932  0.2448
10909TIP3   OH254141   3.514   2.949  14.781 -0.1632  0.6025  0.0161
10909TIP3    H154142   3.551   2.938  14.693  0.0075 -0.7149  0.2325
10909TIP3    H254143   3.424   2.918  14.773 -0.6546  2.0582 -0.0796
10910TIP3   OH254144   0.062   2.007   4.464  0.8852 -0.2509 -0.1848
10910TIP3    H154145   0.094   2.068   4.530  1.5896 -1.5719  0.7171
10910TIP3    H254146  -0.016   1.968   4.502 -0.7681  1.5989 -1.6193
10911TIP3   OH254147   1.694   1.755   0.592 -0.3922 -0.0147 -0.2767
10911TIP3    H154148   1.654   1.797   0.668  1.1838 -1.7287  1.5470
10911TIP3    H254149   1.650   1.795   0.517 -0.1445  3.6741  1.4161
10912TIP3   OH254150   6.431   5.039  16.287 -0.8169 -0.3755  0.6924
10912TIP3    H154151   6.463   5.005  16.204  1.1677 -1.0861  1.7041
10912TIP3    H254152   6.508   5.040  16.344 -1.6259  2.2496  1.8518
10913TIP3   OH254153   2.447   4.353   5.643  0.1395 -0.2781 -0.1508
10913TIP3    H154154   2.480   4.370   5.732  0.7722  2.7244 -0.9067
10913TIP3    H254155   2.517   4.302   5.602  2.1317  2.5029 -0.4198
10914TIP3   OH254156   2.903   4.676   0.330 -0.2846 -0.0806 -0.1627
10914TIP3    H154157   2.809   4.676   0.349 -0.4644 -0.3725 -1.0483
10914TIP3    H254158   2.908   4.659   0.236  0.6417  0.3085 -0.1807
10915TIP3   OH254159   3.916   6.225  14.429  0.5578  0.1168 -0.3016
10915TIP3    H154160   3.903   6.130  14.432  1.1581 -0.0025 -1.3877
10915TIP3    H254161   3.980   6.243  14.498 -0.4213 -0.1185  0.6760
10916TIP3   OH254162   2.314   2.065   5.732 -0.3334 -0.4515 -0.2071
10916TIP3    H154163   2.302   2.057   5.637 -0.0627  0.4706 -0.3276
10916TIP3    H254164   2.246   2.010   5.770 -0.5995 -0.6265 -0.9342
10917TIP3   OH254165   4.981   0.926   2.547 -0.5675  0.0198  0.0160
10917TIP3    H154166   5.052   0.990   2.540 -0.0524 -0.5974 -0.3944
10917TIP3    H254167   4.906   0.969   2.505 -0.4892  0.7342  0.5897
10918TIP3   OH254168   2.162   0.952   0.487 -0.5126  0.3293 -0.5915
10918TIP3    H154169   2.089   0.974   0.545 -0.4885  0.0323 -0.4434
10918TIP3    H254170   2.217   0.893   0.540  0.8422  2.0395 -0.0091
10919TIP3   OH254171   0.823   4.713   2.099  0.1683  0.7297  0.3501
10919TIP3    H154172   0.876   4.792   2.111 -0.4679  1.3922 -1.0568
10919TIP3    H254173   0.831   4.666   2.182  1.9638  1.4154  0.5899
10920TIP3   OH254174   5.022   1.401   2.326  0.1954 -0.0124 -0.4986
10920TIP3    H154175   5.066   1.467   2.273 -1.3657  0.4520 -1.2627
10920TIP3    H254176   5.036   1.429   2.416  0.5055  0.7494 -0.7798
10921TIP3   OH254177   4.943   0.338   4.450  0.1592  0.4865 -0.5431
10921TIP3    H154178   4.979   0.249   4.450  1.2555  0.9108  0.3249
10921TIP3    H254179   4.914   0.352   4.360 -1.5211 -1.3237 -0.3208
10922TIP3   OH254180   5.807   1.029  14.626 -0.3492  0.3496 -0.1681
10922TIP3    H154181   5.781   1.068  14.543 -1.1215  0.2825  0.0324
10922TIP3    H254182   5.872   1.089  14.661 -0.3235  0.5961 -0.6306
10923TIP3   OH254183   3.784   1.048  16.602 -0.3368  0.1452  0.4416
10923TIP3    H154184   3.864   1.058  16.653 -1.2829  0.2866  1.9330
10923TIP3    H254185   3.747   0.965  16.630 -0.9894  0.3327  0.1594
10924TIP3   OH254186   3.330   0.960  13.264 -0.4103  0.3468 -0.5750
10924TIP3    H154187   3.407   0.993  13.311 -0.7539 -0.0412  0.2649
10924TIP3    H254188   3.363   0.884  13.217 -0.7803 -1.2173  1.6262
10925TIP3   OH254189   5.096   2.198  13.450 -0.5090  0.6575  0.0370
10925TIP3    H154190   5.007   2.164  13.440 -0.3574 -0.1163  1.2320
10925TIP3    H254191   5.151   2.120  13.457  0.1989  1.1367 -0.0733
10926TIP3   OH254192   4.126   1.939   5.162  0.1408 -0.3691 -0.1378
10926TIP3    H154193   4.036   1.961   5.186 -0.5303 -0.8360 -2.1484
10926TIP3    H254194   4.134   1.846   5.183  0.0413 -0.4136 -0.2973
10927TIP3   OH254195   4.571   2.865   4.010 -0.4936 -0.7587  0.1615
10927TIP3    H154196   4.587   2.944   4.062  1.5949 -0.4626 -0.8485
10927TIP3    H254197   4.498   2.821   4.053 -0.4239  0.7574  1.8583
10928TIP3   OH254198   4.000   2.336   1.020  0.4118  0.7247  0.2094
10928TIP3    H154199   4.061   2.362   1.089 -0.7592 -0.0244  1.5463
10928TIP3    H254200   4.033   2.252   0.989 -0.5970 -0.2507  1.7496
10929TIP3   OH254201   0.022   1.665   0.044  0.2945  0.0289 -0.2432
10929TIP3    H154202  -0.052   1.681  -0.015  0.9461  1.2055 -0.7472
10929TIP3    H254203   0.044   1.751   0.080  2.0177 -0.1468 -0.8123
10930TIP3   OH254204   2.796   3.821  16.830  0.1024  0.3567  0.2402
10930TIP3    H154205   2.885   3.787  16.838 -0.2090 -0.5374 -0.1101
10930TIP3    H254206   2.764   3.786  16.747 -0.5639  0.7020  0.3462
10931TIP3   OH254207   3.975   5.000  13.511  0.5052 -0.6052 -1.0358
10931TIP3    H154208   4.058   4.979  13.554  0.0411  0.4070  0.3942
10931TIP3    H254209   3.911   4.945  13.556 -0.2212  1.5389  0.6199
10932TIP3   OH254210   6.784   3.105   4.103 -0.6900  0.3214 -0.2566
10932TIP3    H154211   6.876   3.108   4.076 -0.4308 -0.2013  0.5572
10932TIP3    H254212   6.736   3.144   4.029  0.0719 -0.4359 -1.1676
10933TIP3   OH254213   4.442   1.359  12.400  0.4967  0.1147  0.3553
10933TIP3    H154214   4.394   1.369  12.482 -1.6460  0.6840 -0.9385
10933TIP3    H254215   4.448   1.448  12.364  0.4693 -0.2709 -0.6284
10934TIP3   OH254216   5.849   3.024  12.300 -0.4236  0.1579 -0.4909
10934TIP3    H154217   5.793   2.947  12.306  1.9372 -1.7020 -1.7787
10934TIP3    H254218   5.938   2.991  12.315  0.8891  2.2107 -3.2775
10935TIP3   OH254219   5.797   5.115   2.217  0.1656 -0.6764  0.4762
10935TIP3    H154220   5.747   5.143   2.141 -1.5749 -0.9321  1.4974
10935TIP3    H254221   5.855   5.046   2.184 -1.0381 -1.2433 -0.4791
10936TIP3   OH254222   5.716   1.914   0.662  0.0838  0.0070 -0.8899
10936TIP3    H154223   5.747   1.837   0.711  2.2521  1.1870 -0.3535
10936TIP3    H254224   5.623   1.921   0.685  0.3038 -1.3674  0.5289
10937TIP3   OH254225   6.313   4.238  13.118  0.2641  0.3961  0.8598
10937TIP3    H154226   6.293   4.310  13.179  0.2143  0.8761  0.2845
10937TIP3    H254227   6.374   4.183  13.166  0.9667  1.2796  0.9949
10938TIP3   OH254228   3.887   5.528   3.791 -0.3521  0.4584  0.1295
10938TIP3    H154229   3.932   5.482   3.861  0.5891  0.8335 -0.2211
10938TIP3    H254230   3.805   5.479   3.779  0.4866 -0.9345 -0.0304
10939TIP3   OH254231   3.560   1.893  13.204  0.1036  0.5961  0.0608
10939TIP3    H154232   3.589   1.984  13.193  0.3878  0.2910 -1.9579
10939TIP3    H254233   3.608   1.861  13.280 -0.0949  2.1654  0.8671
10940TIP3   OH254234   5.681   5.531  16.530  0.1264 -0.0507  0.4117
10940TIP3    H154235   5.727   5.613  16.548  1.4052 -0.5868 -0.3957
10940TIP3    H254236   5.609   5.556  16.472  1.0501  0.3568 -0.5618
10941TIP3   OH254237   4.657   0.906   4.176  0.4999 -0.7844  0.0664
10941TIP3    H154238   4.672   0.988   4.223  0.1427  0.4429 -1.9087
10941TIP3    H254239   4.686   0.838   4.236  2.0661  0.8675  1.2084
10942TIP3   OH254240   3.776   4.962   0.680 -0.2836 -0.1828  0.3136
10942TIP3    H154241   3.735   5.011   0.752 -0.4271  0.2209 -0.0405
10942TIP3    H254242   3.798   5.029   0.616 -0.3766 -0.5757 -0.1255
10943TIP3   OH254243   1.480   0.884  11.377  0.5919 -0.5752 -0.1464
10943TIP3    H154244   1.540   0.822  11.336 -0.9367 -2.1722 -0.0365
10943TIP3    H254245   1.427   0.917  11.304  0.0869 -0.9246  0.0534
10944TIP3   OH254246   4.599   5.035  15.603  0.7508  0.2173  0.0542
10944TIP3    H154247   4.557   4.991  15.677 -0.9988 -0.3696 -1.2448
10944TIP3    H254248   4.622   4.964  15.543 -0.4941  0.8872 -1.2591
10945TIP3   OH254249   0.628   0.113   5.501  0.1770  0.4031  0.6771
10945TIP3    H154250   0.559   0.110   5.435 -0.1095 -2.2022  1.0662
10945TIP3    H254251   0.701   0.157   5.457 -0.5715  0.1510 -0.8442
10946TIP3   OH254252   3.875   2.930  14.344  0.5365 -0.0655  0.8360
10946TIP3    H154253   3.859   2.902  14.254  0.8447  1.3840  0.3179
10946TIP3    H254254   3.964   2.899  14.363  0.4175 -0.4956  0.6928
10947TIP3   OH254255   4.701   1.916  15.956 -0.0691 -0.1627  1.0440
10947TIP3    H154256   4.760   1.866  16.012  0.4593  0.0498  0.6803
10947TIP3    H254257   4.737   1.906  15.868  0.0242  0.8199  0.9627
10948TIP3   OH254258   6.639   2.067   6.595 -0.4740 -0.0139  0.1985
10948TIP3    H154259   6.605   1.979   6.582 -0.6387  0.2528 -1.2168
10948TIP3    H254260   6.575   2.124   6.551 -0.7762  0.8794  1.7479
10949TIP3   OH254261   3.661   2.292  14.359 -0.2449 -0.2056 -0.8186
10949TIP3    H154262   3.569   2.264  14.355 -0.2615 -0.0612 -1.5779
10949TIP3    H254263   3.671   2.351  14.284  0.8237 -1.2710 -1.5319
10950TIP3   OH254264   6.033   5.807   2.407 -0.2184 -0.0327 -0.0196
10950TIP3    H154265   6.023   5.833   2.498 -1.3988  0.5369 -0.3010
10950TIP3    H254266   6.050   5.889   2.360 -0.9526 -0.1429 -0.4895
10951TIP3   OH254267   0.358   4.515   3.141 -0.1921 -0.0539  0.3272
10951TIP3    H154268   0.440   4.467   3.130  0.1477  0.2506  1.5337
10951TIP3    H254269   0.298   4.452   3.181 -0.4761 -0.1972 -0.3149
10952TIP3   OH254270   3.301   2.255   1.889 -0.1462  0.0655  0.0935
10952TIP3    H154271   3.218   2.297   1.910 -1.0844 -1.8348  0.3063
10952TIP3    H254272   3.309   2.262   1.794 -0.5113  0.3077  0.0803
10953TIP3   OH254273   6.074   1.113   0.744  0.1634  0.4794  0.2544
10953TIP3    H154274   5.994   1.090   0.697  1.0321 -0.6227 -0.7156
10953TIP3    H254275   6.115   1.181   0.690  0.8709 -0.3753 -0.2981
10954TIP3   OH254276   2.894   5.352   6.039 -0.2724 -1.0847 -0.2392
10954TIP3    H154277   2.848   5.357   5.955 -1.7890  0.2142  0.6531
10954TIP3    H254278   2.950   5.429   6.041 -1.3098 -0.3468  0.5595
10955TIP3   OH254279   5.474   4.235   4.308  0.4686  0.0750 -0.1711
10955TIP3    H154280   5.472   4.324   4.272 -2.3664 -0.1304 -0.6454
10955TIP3    H254281   5.437   4.180   4.238 -0.0571 -1.1312  1.0252
10956TIP3   OH254282   4.600   3.060   0.860 -0.4070  0.4190  0.0666
10956TIP3    H154283   4.651   3.141   0.867 -2.0574  1.5087 -0.2796
10956TIP3    H254284   4.620   3.012   0.940 -0.1972  1.6384  0.7571
10957TIP3   OH254285   0.308   1.866  15.253  0.3141 -0.2525 -0.0597
10957TIP3    H154286   0.232   1.874  15.196 -0.0917  1.0460  0.6337
10957TIP3    H254287   0.274   1.825  15.333  0.0374  1.5438  0.7709
10958TIP3   OH254288   4.349   2.253  13.601  0.2235 -0.3684 -0.1503
10958TIP3    H154289   4.362   2.226  13.510  0.6857  0.6155 -0.3764
10958TIP3    H254290   4.254   2.262  13.610  0.0940 -1.6153 -0.2004
10959TIP3   OH254291   5.562   0.639   1.296 -0.4970 -0.0081  0.5116
10959TIP3    H154292   5.561   0.556   1.248  1.0720 -0.9255  2.0013
10959TIP3    H254293   5.583   0.614   1.386  2.3232  2.1995  0.5251
10960TIP3   OH254294   6.068   5.788   1.259 -0.0179 -0.2403  0.0955
10960TIP3    H154295   6.053   5.812   1.168 -0.2708 -0.5012  0.0658
10960TIP3    H254296   5.990   5.738   1.284  0.8877 -1.8002 -0.1235
10961TIP3   OH254297   3.234   6.776   5.020 -0.1912 -0.1238 -0.1002
10961TIP3    H154298   3.296   6.742   5.085 -0.9799  0.7078  1.1014
10961TIP3    H254299   3.151   6.781   5.066 -0.7103  0.7067 -1.1022
10962TIP3   OH254300   3.159   3.802   5.769  0.2810  0.0763  0.3190
10962TIP3    H154301   3.072   3.819   5.806  0.0226  0.3744 -0.4073
10962TIP3    H254302   3.193   3.889   5.747  0.8629 -0.0239  0.8169
10963TIP3   OH254303   2.335   1.882   4.944  0.1706  0.1983  0.2019
10963TIP3    H154304   2.419   1.901   4.985  0.5331 -2.2981  0.6771
10963TIP3    H254305   2.357   1.838   4.862 -0.6641 -0.7402  0.4684
10964TIP3   OH254306   2.316   1.114  13.932  0.1826 -0.4015 -0.0519
10964TIP3    H154307   2.271   1.033  13.956 -1.8797  1.1438  1.4680
10964TIP3    H254308   2.256   1.158  13.872  0.7344  0.5941  0.1154
10965TIP3   OH254309   5.895   5.072   2.896  0.0471  0.3936  0.3180
10965TIP3    H154310   5.952   5.071   2.973  1.0304  0.3611 -0.4135
10965TIP3    H254311   5.808   5.052   2.932  0.3977  0.9272  1.4989
10966TIP3   OH254312   6.325   0.969  13.042 -0.2467 -0.0326 -0.3995
10966TIP3    H154313   6.317   1.062  13.023 -0.1835  0.0347 -0.1057
10966TIP3    H254314   6.346   0.928  12.958  0.4627  0.3135 -0.3925
10967TIP3   OH254315   0.619   3.537   4.028  0.0326 -0.4878  0.1648
10967TIP3    H154316   0.586   3.601   4.092 -0.8981  0.5816 -1.3745
10967TIP3    H254317   0.541   3.499   3.989  0.6134 -0.2665 -1.2136
10968TIP3   OH254318   3.695   5.839   5.772  0.3151  0.0033  0.2977
10968TIP3    H154319   3.713   5.854   5.865  1.8443 -1.2673  0.2334
10968TIP3    H254320   3.756   5.897   5.726 -0.2738  0.4510  0.0642
10969TIP3   OH254321   6.556   1.965   2.066 -0.2983  0.0420  0.1456
10969TIP3    H154322   6.608   1.900   2.019 -1.2746  1.0099 -2.3724
10969TIP3    H254323   6.494   1.913   2.117 -0.7727 -1.0500 -1.4878
10970TIP3   OH254324   2.642   6.054  17.197 -0.7187  0.2534 -0.3618
10970TIP3    H154325   2.671   6.110  17.125 -1.6308 -0.0160 -0.9336
10970TIP3    H254326   2.559   6.091  17.225 -1.8361 -1.3948 -1.4091
10971TIP3   OH254327   2.761   2.441  16.376 -0.2764  0.2178  0.5986
10971TIP3    H154328   2.765   2.386  16.299  2.3613 -2.0696  2.2732
10971TIP3    H254329   2.694   2.506  16.356 -0.4841 -1.0374 -3.0925
10972TIP3   OH254330   2.892   6.689  12.219 -0.0714  0.5968  0.0146
10972TIP3    H154331   2.810   6.702  12.172 -0.1927  1.3569  0.4240
10972TIP3    H254332   2.960   6.703  12.153 -0.2743 -0.8481 -0.5227
10973TIP3   OH254333   6.327   3.133  12.695  0.1702  0.1333 -0.0552
10973TIP3    H154334   6.311   3.193  12.767  1.0455 -0.5842  0.7471
10973TIP3    H254335   6.310   3.185  12.616  2.7191  1.9869  0.5628
10974TIP3   OH254336   1.455   4.178  12.443 -0.2668 -0.9324 -0.3006
10974TIP3    H154337   1.412   4.201  12.526 -0.0094 -0.0080 -0.4220
10974TIP3    H254338   1.453   4.259  12.392  0.8540 -1.1202 -0.6479
10975TIP3   OH254339   2.499   0.320   0.933  0.1926 -0.1683  0.3910
10975TIP3    H154340   2.568   0.254   0.921  0.6037  0.1739  0.8652
10975TIP3    H254341   2.534   0.380   0.999  0.5123  1.4490 -1.1854
10976TIP3   OH254342   1.321   0.592  10.396 -0.2878  0.1716  0.2511
10976TIP3    H154343   1.293   0.503  10.377 -0.4119  0.2379  0.1157
10976TIP3    H254344   1.263   0.647  10.343  0.5375  0.2874 -0.5614
10977TIP3   OH254345   5.704   1.218  14.472  0.2220 -1.1783 -0.6040
10977TIP3    H154346   5.623   1.205  14.521 -1.6940 -0.1944 -3.4077
10977TIP3    H254347   5.735   1.304  14.498  0.7823 -1.8476  1.0033
10978TIP3   OH254348   0.519   6.635  14.810 -0.1181 -0.2652  1.4883
10978TIP3    H154349   0.587   6.573  14.783  1.4424  1.1365  2.0336
10978TIP3    H254350   0.494   6.606  14.898  0.8809  0.0596  1.8969
10979TIP3   OH254351   1.526   0.416  14.470  0.2959  0.4154  0.3731
10979TIP3    H154352   1.528   0.389  14.378 -0.1005 -0.5203  0.6297
10979TIP3    H254353   1.617   0.411  14.498  0.2365 -0.6874  0.4097
10980TIP3   OH254354   6.162   0.728  13.688 -0.6764 -0.0011  0.3983
10980TIP3    H154355   6.121   0.759  13.768  0.4900  0.4490  0.8339
10980TIP3    H254356   6.179   0.635  13.704 -0.7304  0.0139  0.5422
10981TIP3   OH254357   3.234   2.113   0.910  0.3484  0.0935  0.0343
10981TIP3    H154358   3.319   2.150   0.887  0.0068  0.4831 -0.6191
10981TIP3    H254359   3.247   2.019   0.910  0.7460  0.1494 -0.2122
10982TIP3   OH254360   5.635   5.713  12.473  0.2073  0.4773 -0.9921
10982TIP3    H154361   5.615   5.768  12.398  1.6775  0.5735 -1.3272
10982TIP3    H254362   5.636   5.623  12.439 -3.0534  0.1016 -0.2763
10983TIP3   OH254363   5.368   4.349   3.103  0.0520 -0.2919 -0.2857
10983TIP3    H154364   5.293   4.296   3.077  0.2099 -0.0217 -1.3013
10983TIP3    H254365   5.440   4.317   3.049  0.1673  0.9043 -0.8488
10984TIP3   OH254366   4.240   5.568   3.829 -0.1693  0.4299 -0.2490
10984TIP3    H154367   4.265   5.593   3.740  1.8065  0.4160  0.2727
10984TIP3    H254368   4.234   5.652   3.876 -3.2171  0.6077 -0.8444
10985TIP3   OH254369   2.398   3.351   3.225  0.2248  0.0890 -0.2268
10985TIP3    H154370   2.395   3.413   3.153  2.5123  1.0645  0.4960
10985TIP3    H254371   2.439   3.398   3.297 -1.8673 -0.9178  1.7131
10986TIP3   OH254372   6.674   2.696  15.532  0.2320 -0.0438 -0.4091
10986TIP3    H154373   6.662   2.647  15.614 -0.0723  0.4764 -0.1408
10986TIP3    H254374   6.750   2.655  15.491  0.9712  0.3086  0.5901
10987TIP3   OH254375   3.519   1.383   3.890 -0.1796  0.5015  0.5602
10987TIP3    H154376   3.445   1.376   3.830  0.0231 -0.6643  0.4273
10987TIP3    H254377   3.514   1.472   3.924 -2.8644 -0.1619  2.0892
10988TIP3   OH254378   5.958   3.380   3.672  0.3256  0.1366 -0.0165
10988TIP3    H154379   6.026   3.445   3.685  0.8317 -0.7168  1.7918
10988TIP3    H254380   5.901   3.389   3.748 -0.3474 -0.6380 -0.4161
10989TIP3   OH254381   6.326   2.840   2.921  0.1843  0.8585 -0.3514
10989TIP3    H154382   6.360   2.926   2.947 -0.7560  0.2022  3.4693
10989TIP3    H254383   6.239   2.836   2.961 -0.2585 -1.4037 -1.4543
10990TIP3   OH254384   6.562   0.041  15.359 -0.0110  0.4783  0.4883
10990TIP3    H154385   6.513   0.094  15.423 -1.2879 -0.1339  0.0346
10990TIP3    H254386   6.508   0.044  15.280 -0.1556 -1.6122  0.4949
10991TIP3   OH254387   1.485   6.020   1.776  0.0487 -0.0440  0.4406
10991TIP3    H154388   1.567   6.068   1.771  0.0553 -0.0082  0.8570
10991TIP3    H254389   1.422   6.076   1.730  0.6794 -1.0051 -1.6333
10992TIP3   OH254390   6.722   5.788   1.424 -0.0909  0.1863 -0.5461
10992TIP3    H154391   6.647   5.729   1.433 -0.4194  0.6511 -0.1786
10992TIP3    H254392   6.754   5.799   1.514 -0.3249  0.9394 -0.5502
10993TIP3   OH254393   1.133   0.833  16.399  0.9545 -0.1132 -0.6739
10993TIP3    H154394   1.223   0.806  16.419  0.5667 -0.5380  0.5121
10993TIP3    H254395   1.122   0.916  16.447  0.2924 -0.7219  0.2494
10994TIP3   OH254396   5.766   5.165   0.149  0.4684  0.6256 -0.0659
10994TIP3    H154397   5.782   5.119   0.067 -0.2582 -0.2645  0.2870
10994TIP3    H254398   5.803   5.108   0.216 -1.4865 -0.0295  0.4788
10995TIP3   OH254399   0.156   4.325   1.446 -0.0884  0.3050  0.1286
10995TIP3    H154400   0.130   4.398   1.502 -2.7793 -2.2423  2.3671
10995TIP3    H254401   0.075   4.277   1.429  0.7817  0.3964 -5.2662
10996TIP3   OH254402   1.877   1.617  15.284  0.5168  0.1551 -0.5064
10996TIP3    H154403   1.918   1.680  15.344  1.0948  0.5931 -1.3509
10996TIP3    H254404   1.783   1.630  15.295  0.5856 -0.8196  1.4133
10997TIP3   OH254405   5.891   2.028   6.336  0.5793  0.1981  0.2847
10997TIP3    H154406   5.879   1.964   6.406  0.8363  0.2376  0.3638
10997TIP3    H254407   5.954   1.987   6.277  1.0763  0.5618  0.5584
10998TIP3   OH254408   2.563   1.416   3.492 -0.1484  0.4700  0.2793
10998TIP3    H154409   2.622   1.341   3.486  1.3978  1.4803  2.1446
10998TIP3    H254410   2.483   1.381   3.530  0.1520 -0.4333  0.0928
10999TIP3   OH254411   5.747   1.346  16.473 -0.3665  0.5459 -0.0497
10999TIP3    H154412   5.761   1.406  16.547  0.3267 -0.3801  0.5795
10999TIP3    H254413   5.789   1.264  16.500 -1.8997 -0.4421 -0.5971
11000TIP3   OH254414   1.852   2.116   4.378  0.3099 -0.2416 -0.0153
11000TIP3    H154415   1.919   2.182   4.364 -0.0258  0.1179  0.0601
11000TIP3    H254416   1.796   2.152   4.447  0.2389 -0.6890  0.1664
11001TIP3   OH254417   3.888   2.180   5.603 -0.0718 -0.1868  0.2302
11001TIP3    H154418   3.877   2.213   5.514 -1.8887 -0.6199  0.2672
11001TIP3    H254419   3.902   2.258   5.656 -0.5122  0.2064 -0.2311
11002TIP3   OH254420   4.216   1.389  16.625 -0.2027  0.2525  0.4460
11002TIP3    H154421   4.171   1.307  16.647  0.3887  0.0034  0.7164
11002TIP3    H254422   4.187   1.409  16.536  2.5487 -2.2157 -1.0660
11003TIP3   OH254423   0.755   6.657  13.101  0.4362  0.2321  0.0150
11003TIP3    H154424   0.729   6.724  13.037 -0.3808 -0.0277  0.0644
11003TIP3    H254425   0.692   6.667  13.172  1.0640  0.2147  0.5781
11004TIP3   OH254426   3.627   3.961  15.230 -0.0034 -0.4965 -0.1770
11004TIP3    H154427   3.538   3.990  15.253 -0.4484 -0.9360 -1.2900
11004TIP3    H254428   3.675   4.041  15.214 -0.0947 -0.2409  0.8233
11005TIP3   OH254429   2.372   3.074  15.812  0.1136  0.1940 -0.6773
11005TIP3    H154430   2.296   3.091  15.869 -0.7991 -0.5650 -1.6323
11005TIP3    H254431   2.335   3.024  15.739  1.8671 -1.8790 -0.2004
11006TIP3   OH254432   1.539   0.135   6.034  0.1951 -0.1391  0.3364
11006TIP3    H154433   1.537   0.151   6.129  1.1002 -1.4135  0.5831
11006TIP3    H254434   1.506   0.216   5.996 -0.7209  0.1876  1.7677
11007TIP3   OH254435   2.580   0.850  10.650 -0.3444 -0.2297  0.0762
11007TIP3    H154436   2.525   0.918  10.690  0.3461 -0.4511  1.4270
11007TIP3    H254437   2.614   0.891  10.570 -1.0892  0.5068  0.1304
11008TIP3   OH254438   3.327   1.519   3.233  0.5407  0.4047 -0.2671
11008TIP3    H154439   3.298   1.487   3.148 -2.1801  0.3544  0.6565
11008TIP3    H254440   3.330   1.441   3.289  0.4838  0.7391  0.2047
11009TIP3   OH254441   2.530   2.037   3.090  0.1193 -0.5181  0.3854
11009TIP3    H154442   2.470   1.968   3.121 -0.9758  0.5294  0.6233
11009TIP3    H254443   2.478   2.087   3.027  1.0860 -0.2232 -0.1778
11010TIP3   OH254444   2.822   0.750  10.719 -0.0797 -0.0297 -0.3112
11010TIP3    H154445   2.740   0.789  10.688  0.0440 -0.3910 -1.1071
11010TIP3    H254446   2.804   0.656  10.721 -0.5737  0.0968  2.1894
11011TIP3   OH254447   4.767   4.924  15.308 -0.5686 -0.0793 -0.0904
11011TIP3    H154448   4.749   4.982  15.235 -0.7036  0.5337  0.4216
11011TIP3    H254449   4.687   4.872  15.319 -0.5935 -0.0840 -0.2907
11012TIP3   OH254450   1.432   1.474  10.902  0.5031  0.2454  0.5696
11012TIP3    H154451   1.396   1.419  10.972  0.6013 -0.5209  0.0235
11012TIP3    H254452   1.397   1.436  10.821 -0.5019  1.7971  0.2535
11013TIP3   OH254453   3.817   5.239  11.634 -0.1547  0.3976 -0.1650
11013TIP3    H154454   3.837   5.318  11.584  0.2972 -0.0306 -0.6607
11013TIP3    H254455   3.722   5.228  11.624 -0.2786  1.0894  0.2196
11014TIP3   OH254456   0.789   2.196  13.184 -0.0652  0.0379 -0.1556
11014TIP3    H154457   0.807   2.157  13.099  1.1922  1.5763 -0.6359
11014TIP3    H254458   0.716   2.257  13.168 -0.6172 -0.5431  0.1321
11015TIP3   OH254459   4.418   4.308  14.429  0.0080  0.1896  0.1738
11015TIP3    H154460   4.397   4.401  14.432 -2.2390 -0.2700 -0.4670
11015TIP3    H254461   4.475   4.299  14.353  0.4737  1.0741  0.4088
11016TIP3   OH254462   3.826   4.157  16.546  0.0473 -1.2847  0.0425
11016TIP3    H154463   3.823   4.179  16.639  0.3039  1.3536 -0.5537
11016TIP3    H254464   3.799   4.237  16.501  1.8381 -1.9224 -2.2382
11017TIP3   OH254465   6.135   6.216  11.437 -0.1636  0.4968  0.4449
11017TIP3    H154466   6.067   6.219  11.505 -0.5373  0.7944  0.0580
11017TIP3    H254467   6.094   6.255  11.360  0.0318 -0.4425 -0.1536
11018TIP3   OH254468   4.153   6.407  15.469 -0.3706 -0.0779 -0.0880
11018TIP3    H154469   4.151   6.502  15.457 -0.0884 -0.0925 -0.2490
11018TIP3    H254470   4.068   6.386  15.506  0.9387  0.7572  3.6732
11019TIP3   OH254471   1.157   3.410   5.373 -0.1534  0.2357  0.6533
11019TIP3    H154472   1.231   3.365   5.413  0.6861 -0.3702 -1.5081
11019TIP3    H254473   1.097   3.429   5.446  1.1678 -1.1110  2.1045
11020TIP3   OH254474   1.255   5.582   1.473 -0.1972  0.1652 -0.0341
11020TIP3    H154475   1.208   5.594   1.555 -0.4778 -0.8585 -0.0349
11020TIP3    H254476   1.346   5.566   1.499 -0.4418 -1.0006  0.1259
11021TIP3   OH254477   6.137   2.197  13.186 -0.2479 -0.4030  0.4652
11021TIP3    H154478   6.078   2.272  13.171  0.8665  0.9130  2.3758
11021TIP3    H254479   6.196   2.228  13.255  1.8039 -2.1970 -0.4701
11022TIP3   OH254480   0.468   0.961   1.870  0.7172  0.2845 -0.3245
11022TIP3    H154481   0.541   0.975   1.931  0.3311  1.6116 -0.1562
11022TIP3    H254482   0.392   0.945   1.926  1.1293 -2.6974 -0.4973
11023TIP3   OH254483   1.087   1.566   5.070  0.0918  0.0992  0.0612
11023TIP3    H154484   1.025   1.547   5.140 -0.3221  0.0127 -0.3292
11023TIP3    H254485   1.115   1.656   5.087 -1.5456  0.8001 -0.8257
11024TIP3   OH254486   3.167   2.872   2.650  0.1145  0.5511 -0.0856
11024TIP3    H154487   3.257   2.849   2.675 -0.1697  0.9451  1.3647
11024TIP3    H254488   3.140   2.802   2.591  0.8222 -0.4516  0.7515
11025TIP3   OH254489   0.817   3.949  13.167  0.4741  0.3207  0.6267
11025TIP3    H154490   0.806   3.870  13.115  2.8640  0.4214 -0.1135
11025TIP3    H254491   0.808   3.920  13.258  1.6988 -0.8915  0.3698
11026TIP3   OH254492   3.821   5.885  13.519 -0.2097 -0.1308  0.0599
11026TIP3    H154493   3.873   5.830  13.577  1.6582  0.2123 -1.2350
11026TIP3    H254494   3.873   5.964  13.508 -1.2346  0.4240 -0.8821
11027TIP3   OH254495   5.478   3.997   2.136  0.6479 -0.6684  0.0689
11027TIP3    H154496   5.552   3.936   2.132  1.1204 -0.1284  0.4628
11027TIP3    H254497   5.401   3.942   2.122  1.2504 -0.9449 -2.3671
11028TIP3   OH254498   1.429   5.788   0.388  0.1218  0.6776  0.6079
11028TIP3    H154499   1.513   5.793   0.341  0.4573  2.7495  1.3596
11028TIP3    H254500   1.367   5.832   0.330 -0.4602 -0.7935  0.0874
11029TIP3   OH254501   2.045   4.262   5.698  0.0279 -0.4193 -0.3717
11029TIP3    H154502   2.024   4.302   5.782  0.0441 -1.9609  0.3870
11029TIP3    H254503   2.105   4.190   5.720  0.7908 -0.2478 -1.8040
11030TIP3   OH254504   1.370   2.374  14.895 -0.1352  0.0341 -0.1805
11030TIP3    H154505   1.357   2.463  14.862 -1.7403 -0.0140  0.3113
11030TIP3    H254506   1.311   2.320  14.843  0.4172 -0.6612 -0.0845
11031TIP3   OH254507   2.546   5.170  12.197 -0.2989 -0.2453 -0.0233
11031TIP3    H154508   2.623   5.118  12.173 -0.5281 -0.7854  0.3774
11031TIP3    H254509   2.557   5.186  12.291 -0.3369  0.2517 -0.1059
11032TIP3   OH254510   5.694   3.621  10.985  0.1689  0.5019  0.3921
11032TIP3    H154511   5.774   3.569  10.988 -0.3656 -0.3242  0.8327
11032TIP3    H254512   5.678   3.637  10.892  0.8335  0.6487  0.3057
11033TIP3   OH254513   3.688   5.059  10.726 -0.1053 -0.9217  0.1395
11033TIP3    H154514   3.664   5.021  10.810 -1.6434  0.8120  0.5143
11033TIP3    H254515   3.605   5.074  10.682  0.7062 -2.4488 -2.0075
11034TIP3   OH254516   1.238   5.577  14.206  0.7547 -0.0406  0.1953
11034TIP3    H154517   1.260   5.668  14.221  2.7558 -0.3128 -0.8651
11034TIP3    H254518   1.224   5.540  14.293 -0.9936  1.4696  0.5764
11035TIP3   OH254519   2.435   1.368   5.956  0.4389 -0.2535  0.4424
11035TIP3    H154520   2.504   1.431   5.934  1.7070 -1.4594  0.8212
11035TIP3    H254521   2.360   1.421   5.981  1.0609  1.0976 -0.5201
11036TIP3   OH254522   1.555   4.387  11.784 -0.6676  0.2035 -0.5790
11036TIP3    H154523   1.553   4.391  11.688  1.8583 -0.1084 -0.6615
11036TIP3    H254524   1.553   4.478  11.812 -1.0962  0.3018 -0.9214
11037TIP3   OH254525   5.152   2.351  11.350 -0.6558 -0.3590 -0.0966
11037TIP3    H154526   5.179   2.277  11.296 -2.0764 -0.0020 -1.3278
11037TIP3    H254527   5.209   2.423  11.324  0.6720 -0.9586  1.0442
11038TIP3   OH254528   6.121   3.152  14.699 -0.5237 -0.3427  0.3691
11038TIP3    H154529   6.063   3.209  14.649 -1.2770 -1.1486  0.3033
11038TIP3    H254530   6.154   3.089  14.635  1.3794  0.8298  0.1612
11039TIP3   OH254531   1.870   0.881  12.389 -0.1384 -0.3660  0.5864
11039TIP3    H154532   1.816   0.804  12.407 -0.5852 -0.2447 -0.2127
11039TIP3    H254533   1.955   0.860  12.428 -0.5556 -0.8402  1.2551
11040TIP3   OH254534   1.095   2.448  11.618 -0.2386 -0.2952 -0.3595
11040TIP3    H154535   1.079   2.455  11.712 -1.3386 -1.4545 -0.4592
11040TIP3    H254536   1.149   2.370  11.608  0.7644  0.4248 -0.5877
11041TIP3   OH254537   5.965   1.536  13.626 -0.2650  0.3199 -0.0885
11041TIP3    H154538   5.869   1.537  13.626 -0.3134 -0.9841  1.7213
11041TIP3    H254539   5.988   1.479  13.553 -0.9274 -0.5960  0.3933
11042TIP3   OH254540   3.628   2.940  13.732 -0.4908  0.3701  0.6915
11042TIP3    H154541   3.642   2.904  13.644 -0.6847  2.3113 -0.1632
11042TIP3    H254542   3.716   2.943  13.771 -0.3260  0.0744  0.3470
11043TIP3   OH254543   2.527   5.944  14.273  0.9589  0.3152 -0.0995
11043TIP3    H154544   2.599   5.968  14.332  1.2265  1.0981 -0.7467
11043TIP3    H254545   2.533   6.006  14.201  0.4930 -0.5070 -0.8569
11044TIP3   OH254546   0.051   5.453  15.796  0.5337 -0.0492  0.8337
11044TIP3    H154547   0.146   5.459  15.786  0.7482 -1.1702  2.0376
11044TIP3    H254548   0.037   5.369  15.841 -0.9768  0.3860  1.2106
11045TIP3   OH254549   0.788   6.594  12.113  0.3916  0.3318  0.3460
11045TIP3    H154550   0.719   6.636  12.061  0.3939  1.4760  1.2463
11045TIP3    H254551   0.824   6.527  12.055 -1.3064 -0.1193 -0.2393
11046TIP3   OH254552   5.430   6.759  11.989  0.2628  0.5619  0.1020
11046TIP3    H154553   5.355   6.701  11.997 -1.7104  3.0836  0.4703
11046TIP3    H254554   5.439   6.775  11.895  0.9841 -0.4945 -0.0255
11047TIP3   OH254555   1.163   3.394   1.941 -0.0288  0.8181  0.1403
11047TIP3    H154556   1.088   3.429   1.894  1.0153 -0.9346 -2.9923
11047TIP3    H254557   1.148   3.299   1.942  0.5881  0.7289  2.2971
11048TIP3   OH254558   4.545   3.433  13.229 -0.2461 -0.1530  0.0043
11048TIP3    H154559   4.491   3.455  13.305 -1.4192  1.2204 -1.1795
11048TIP3    H254560   4.521   3.499  13.163  2.4011  0.0521 -0.7923
11049TIP3   OH254561   6.640   1.658   6.331  0.0190 -0.2753 -1.0197
11049TIP3    H154562   6.546   1.636   6.329  0.0408 -0.4538 -0.3002
11049TIP3    H254563   6.649   1.717   6.406  0.3177  0.5131 -1.6834
11050TIP3   OH254564   4.001   0.691  15.050  0.2061 -0.2523 -0.3117
11050TIP3    H154565   3.954   0.672  14.968 -0.9609 -0.4591  0.3991
11050TIP3    H254566   3.944   0.752  15.096  0.8513 -0.1626  0.3643
11051TIP3   OH254567   4.426   3.658  11.862  0.2995 -0.3672 -0.0697
11051TIP3    H154568   4.344   3.679  11.908 -0.0032 -0.3650 -0.6092
11051TIP3    H254569   4.449   3.738  11.816  1.1287 -0.0623  0.8560
11052TIP3   OH254570   6.740   3.096  15.066  0.3981  0.9509  0.5769
11052TIP3    H154571   6.834   3.103  15.052  0.5336 -0.0875  0.8871
11052TIP3    H254572   6.723   3.001  15.066 -0.7291  1.1392 -0.0453
11053TIP3   OH254573   1.657   5.998   0.721 -0.0071 -0.5375  0.6525
11053TIP3    H154574   1.729   5.934   0.729  1.3944  0.8468 -0.5519
11053TIP3    H254575   1.696   6.072   0.676 -2.3865 -0.0167 -0.6472
11054TIP3   OH254576   3.870   5.784  14.159  0.1065 -0.3055 -0.3792
11054TIP3    H154577   3.849   5.697  14.193 -1.7994  0.1909 -0.2468
11054TIP3    H254578   3.786   5.828  14.152  1.0418  1.4892 -0.5890
11055TIP3   OH254579   1.725   6.119   4.285  0.0014 -0.2460 -0.2637
11055TIP3    H154580   1.715   6.114   4.190  0.4308  0.5596 -0.3539
11055TIP3    H254581   1.641   6.087   4.320  0.1544 -1.3608 -0.8958
11056TIP3   OH254582   4.574   3.366  13.807  0.6499  0.4878  0.0736
11056TIP3    H154583   4.556   3.325  13.722  1.6167 -1.5951  0.8476
11056TIP3    H254584   4.489   3.395  13.838  0.3113  1.4491 -1.6908
11057TIP3   OH254585   4.845   2.090  16.289 -0.6431 -0.4133 -0.3625
11057TIP3    H154586   4.852   2.111  16.382 -1.4590 -1.5858 -0.0258
11057TIP3    H254587   4.918   2.030  16.272  1.5030  2.3584 -1.2548
11058TIP3   OH254588   1.416   4.498   0.229  0.4281  0.3868 -0.0259
11058TIP3    H154589   1.347   4.447   0.187  0.2558  0.6581 -0.0742
11058TIP3    H254590   1.479   4.515   0.158  2.0000 -2.3040  0.6330
11059TIP3   OH254591   1.142   4.911   1.853 -0.0591  0.0327 -0.3060
11059TIP3    H154592   1.064   4.966   1.851 -1.1505 -1.4447  1.3218
11059TIP3    H254593   1.111   4.825   1.878  1.6360 -1.4241 -2.9618
11060TIP3   OH254594   4.274   2.890  13.418 -0.0060  0.4624  0.3695
11060TIP3    H154595   4.272   2.845  13.503 -3.7425 -1.7765 -0.8028
11060TIP3    H254596   4.342   2.844  13.369  0.3903  0.0765  1.2664
11061TIP3   OH254597   1.356   2.183   2.097 -0.6983  0.4304 -0.3199
11061TIP3    H154598   1.442   2.220   2.077 -0.2513  0.5835  1.7937
11061TIP3    H254599   1.369   2.089   2.097 -0.7871  0.4132 -1.0666
11062TIP3   OH254600   6.003   2.784   2.572 -0.4556  0.8020  0.4440
11062TIP3    H154601   6.042   2.756   2.489 -2.9379 -0.1248 -0.4682
11062TIP3    H254602   6.064   2.754   2.639 -0.1050 -1.5304 -0.8645
11063TIP3   OH254603   3.399   0.082  12.422 -0.1197 -0.0882  0.3083
11063TIP3    H154604   3.375   0.028  12.346 -0.4684  0.9248 -0.3054
11063TIP3    H254605   3.422   0.167  12.385 -1.2026  0.7023  1.4160
11064TIP3   OH254606   6.094   2.745  17.179  0.0213 -0.1122  0.0191
11064TIP3    H154607   6.049   2.742  17.095  0.7673 -0.8358 -0.3629
11064TIP3    H254608   6.069   2.663  17.223  1.1552 -0.6266 -0.2950
11065TIP3   OH254609   6.252   4.487  15.911 -0.2880  0.3449  0.6692
11065TIP3    H154610   6.243   4.551  15.982  1.8104  0.9770  0.3846
11065TIP3    H254611   6.222   4.405  15.951  0.0938  0.8492  2.0496
11066TIP3   OH254612   2.562   3.225  11.159 -0.3244  0.6403 -0.1010
11066TIP3    H154613   2.575   3.140  11.202 -1.3571  1.3915  1.7549
11066TIP3    H254614   2.508   3.206  11.083  0.2216 -0.4966 -0.2100
11067TIP3   OH254615   0.068   0.664  11.646 -0.0261 -0.2444  0.4919
11067TIP3    H154616  -0.004   0.623  11.597  0.9758 -1.3483 -0.0661
11067TIP3    H254617   0.143   0.607  11.631  0.8170  0.5528  1.6074
11068TIP3   OH254618   4.196   4.009   0.152 -0.1233  0.0195 -0.0477
11068TIP3    H154619   4.169   3.961   0.231 -1.4687 -0.2838 -0.6645
11068TIP3    H254620   4.248   3.945   0.103  0.3060  0.0492  0.3640
11069TIP3   OH254621   2.707   0.084  11.622  0.4674 -0.1806  0.3159
11069TIP3    H154622   2.720   0.170  11.661  0.7043 -0.0079 -0.1313
11069TIP3    H254623   2.612   0.072  11.620  0.4845 -0.6233  1.8596
11070TIP3   OH254624   5.112   3.461  17.211 -0.1595 -0.0198  0.5825
11070TIP3    H154625   5.066   3.420  17.138 -0.8080  1.7921 -0.0374
11070TIP3    H254626   5.044   3.470  17.279 -0.4605  1.6213  0.0738
11071TIP3   OH254627   3.489   3.096   6.740  0.1974 -0.6701 -0.0211
11071TIP3    H154628   3.502   3.169   6.679 -0.3966 -1.2863 -0.9030
11071TIP3    H254629   3.406   3.057   6.713  1.5093 -2.9485 -0.9162
11072TIP3   OH254630   1.771   4.241  16.170 -0.3792  0.4267  0.5053
11072TIP3    H154631   1.852   4.207  16.132  1.2650  3.1043  1.4907
11072TIP3    H254632   1.751   4.181  16.242  0.0370 -0.9340 -0.4908
11073TIP3   OH254633   1.140   3.552   3.035 -0.1489 -0.3593 -0.0448
11073TIP3    H154634   1.234   3.569   3.031 -0.6599  2.7067 -0.4128
11073TIP3    H254635   1.110   3.557   2.945 -0.8084 -0.2389  0.1754
11074TIP3   OH254636   0.153   0.697   5.093 -0.2271 -0.2583  0.2115
11074TIP3    H154637   0.096   0.638   5.142 -0.6210 -1.0948 -1.2182
11074TIP3    H254638   0.201   0.640   5.032 -0.3973  0.8485 -0.9910
11075TIP3   OH254639   1.306   6.357   5.567 -0.5386  0.5470 -0.3540
11075TIP3    H154640   1.325   6.340   5.474  0.2974  1.4829 -0.3614
11075TIP3    H254641   1.234   6.298   5.587 -0.1504 -0.3044 -1.3704
11076TIP3   OH254642   5.677   3.097   1.106 -0.0371  0.3449 -0.6168
11076TIP3    H154643   5.764   3.102   1.144  0.3459 -2.0349 -1.0777
11076TIP3    H254644   5.622   3.062   1.176  0.3962 -2.7545 -1.7611
11077TIP3   OH254645   6.642   4.238  16.981  0.1620 -0.2856 -0.0590
11077TIP3    H154646   6.553   4.205  16.970  0.4337 -2.0270  2.4970
11077TIP3    H254647   6.638   4.292  17.060  1.1165  0.5869 -0.6027
11078TIP3   OH254648   0.435   2.025   5.259 -0.3180  0.0858 -0.9558
11078TIP3    H154649   0.382   1.952   5.288 -2.0009  2.1247  1.2533
11078TIP3    H254650   0.444   2.081   5.336  3.2428  0.8749 -1.8520
11079TIP3   OH254651   5.617   4.165   4.539  0.0540  0.4779 -0.1122
11079TIP3    H154652   5.580   4.221   4.470 -0.2780  0.3158 -0.0713
11079TIP3    H254653   5.572   4.081   4.527  1.1228 -0.0146 -0.6644
11080TIP3   OH254654   0.570   2.768  10.911 -0.1904 -0.1979  0.0245
11080TIP3    H154655   0.593   2.828  10.840  1.6670  0.7192  1.3648
11080TIP3    H254656   0.643   2.705  10.914  0.6721  0.8348  2.2434
11081TIP3   OH254657   6.248   2.488  13.826 -0.3886 -0.3959  0.0530
11081TIP3    H154658   6.224   2.435  13.901  0.0087 -0.5580  0.0708
11081TIP3    H254659   6.219   2.576  13.848 -0.7643 -0.5458  0.1610
11082TIP3   OH254660   2.278   2.728   5.005  0.3304  0.2778  0.0117
11082TIP3    H154661   2.362   2.768   4.981  0.3380  1.2323  1.5171
11082TIP3    H254662   2.223   2.802   5.031 -0.9682 -0.3501 -0.8879
11083TIP3   OH254663   4.752   5.973  12.179 -0.1940 -0.6790  0.2182
11083TIP3    H154664   4.674   5.919  12.168 -0.0177 -1.0484  0.7551
11083TIP3    H254665   4.720   6.052  12.224 -0.5872  0.0239 -1.2527
11084TIP3   OH254666   6.083   2.766   3.637 -0.0394  0.7106 -0.2940
11084TIP3    H154667   5.991   2.754   3.613  0.2664  1.1279 -1.6942
11084TIP3    H254668   6.080   2.805   3.724 -1.1812  0.2412 -0.1163
11085TIP3   OH254669   4.068   3.205   1.234 -0.1803  0.2660 -0.4835
11085TIP3    H154670   4.050   3.222   1.326  0.8369  0.5191 -0.3206
11085TIP3    H254671   4.005   3.138   1.209 -0.1872 -0.1062  0.5099
11086TIP3   OH254672   0.849   6.155   5.776  0.1699 -0.0473  0.2035
11086TIP3    H154673   0.842   6.239   5.820  0.8476 -0.2067  0.6189
11086TIP3    H254674   0.874   6.094   5.845 -0.0923 -0.5519 -0.1389
11087TIP3   OH254675   3.791   2.853  16.346 -0.0001  0.7078  0.2038
11087TIP3    H154676   3.766   2.831  16.436 -1.6314 -1.3434 -0.7232
11087TIP3    H254677   3.750   2.938  16.330  1.1398  1.5792  1.7041
11088TIP3   OH254678   0.601   2.373  12.919 -0.1327  0.1406 -0.0758
11088TIP3    H154679   0.675   2.323  12.886  0.5732  1.7572 -0.9989
11088TIP3    H254680   0.641   2.450  12.960 -1.2781  0.8000 -0.1788
11089TIP3   OH254681   2.614   1.171   2.891 -0.1737 -0.6975  0.3306
11089TIP3    H154682   2.579   1.108   2.829  1.8171 -1.2848 -0.2438
11089TIP3    H254683   2.622   1.252   2.841  0.4137 -0.8880  0.1063
11090TIP3   OH254684   0.234   1.580   0.671 -1.2567  0.2419  0.2661
11090TIP3    H154685   0.154   1.627   0.649 -0.5139  1.1232 -0.6288
11090TIP3    H254686   0.293   1.648   0.705 -0.2287 -0.0429 -0.8881
11091TIP3   OH254687   4.792   2.745  15.673 -0.2892 -0.4507 -0.9185
11091TIP3    H154688   4.838   2.679  15.620 -0.2327  0.5101 -2.0795
11091TIP3    H254689   4.828   2.733  15.761  1.7494 -0.1534 -1.6737
11092TIP3   OH254690   4.341   5.886  13.154 -0.1204  0.0316  0.4910
11092TIP3    H154691   4.284   5.814  13.126 -0.0495  0.5625 -1.0574
11092TIP3    H254692   4.283   5.961  13.162  0.2700  0.4877 -0.7430
11093TIP3   OH254693   1.714   0.557   4.369  0.4039  0.0717  0.3950
11093TIP3    H154694   1.668   0.490   4.317  0.9160 -1.0794  1.3891
11093TIP3    H254695   1.649   0.584   4.434  0.3008  0.3060  0.1944
11094TIP3   OH254696   0.973   4.422   1.798 -0.1989 -0.1194  0.1835
11094TIP3    H154697   0.979   4.454   1.708 -0.5370 -1.9203 -0.5133
11094TIP3    H254698   0.965   4.327   1.788 -0.9121 -0.2700  2.0876
11095TIP3   OH254699   3.814   4.924   2.809 -0.0421  0.0479  0.7855
11095TIP3    H154700   3.784   4.906   2.898 -1.5828 -0.0483  0.2528
11095TIP3    H254701   3.782   5.012   2.790 -1.8669 -0.8901 -0.5781
11096TIP3   OH254702   0.256   2.341   0.118  0.3529 -0.6753  0.4437
11096TIP3    H154703   0.164   2.317   0.128 -0.1410  0.9213 -0.1711
11096TIP3    H254704   0.261   2.432   0.147  1.7530 -0.7562  0.5124
11097TIP3   OH254705   2.928   5.455  16.337 -0.3929 -0.2121 -0.2526
11097TIP3    H154706   3.022   5.437  16.326 -0.3302 -0.7797  1.0111
11097TIP3    H254707   2.885   5.372  16.316 -0.5547 -0.1195 -0.2826
11098TIP3   OH254708   5.105   3.163  11.050  0.0863 -0.1916 -0.0407
11098TIP3    H154709   5.063   3.152  10.965 -0.4013 -0.3977  0.2273
11098TIP3    H254710   5.171   3.231  11.035 -0.1819 -0.0309 -0.5167
11099TIP3   OH254711   4.938   6.154   1.550 -0.4847  0.3602 -0.7759
11099TIP3    H154712   4.998   6.082   1.572  0.6695  1.1791 -1.1663
11099TIP3    H254713   4.940   6.159   1.455 -1.2041  0.3692 -0.7894
11100TIP3   OH254714   5.031   0.567   5.430 -0.5220  0.2567  0.1629
11100TIP3    H154715   5.052   0.523   5.513 -1.5203  0.7443  0.6802
11100TIP3    H254716   5.034   0.497   5.365 -3.2792 -0.8664  1.1580
11101TIP3   OH254717   1.972   5.020  14.196 -0.7371  0.4186 -0.0412
11101TIP3    H154718   1.945   4.951  14.135 -0.4716 -0.0309  0.3508
11101TIP3    H254719   1.929   4.998  14.279  0.9136 -0.3803  0.6318
11102TIP3   OH254720   4.319   4.949  15.807 -0.0397  0.7390  0.8117
11102TIP3    H154721   4.338   4.862  15.842 -0.2593  0.6715  0.7615
11102TIP3    H254722   4.273   4.933  15.725  1.3254  0.8871  0.0044
11103TIP3   OH254723   3.598   2.004   2.985  0.3176  0.6589 -0.2239
11103TIP3    H154724   3.649   1.979   3.062  0.6242  2.6067  0.2490
11103TIP3    H254725   3.548   2.080   3.013  0.0071  1.0483 -1.7771
11104TIP3   OH254726   2.773   2.226  12.530 -0.1738  0.2426 -0.2304
11104TIP3    H154727   2.809   2.170  12.461 -1.7831 -0.0844 -0.8226
11104TIP3    H254728   2.712   2.169  12.577 -0.0474  0.8357  0.6545
11105TIP3   OH254729   3.176   4.169  16.274  0.3247  0.6535  0.2978
11105TIP3    H154730   3.152   4.214  16.355  0.0007 -0.3846  0.7816
11105TIP3    H254731   3.229   4.233  16.226 -0.4598  1.6874  0.8012
11106TIP3   OH254732   3.369   3.453  14.453 -0.2668  0.4375 -0.0243
11106TIP3    H154733   3.433   3.396  14.410 -2.4276  0.5933 -3.6986
11106TIP3    H254734   3.413   3.538  14.459  0.9354 -0.1920  0.2762
11107TIP3   OH254735   6.344   2.398  15.180  0.0170  0.2889 -0.1043
11107TIP3    H154736   6.427   2.431  15.215  0.3091  0.4331 -0.9180
11107TIP3    H254737   6.349   2.303  15.192 -0.3748  0.4361  1.2799
11108TIP3   OH254738   4.503   3.197  13.607  0.2661 -0.3267 -0.0521
11108TIP3    H154739   4.544   3.112  13.592  1.0018 -0.0729  0.4888
11108TIP3    H254740   4.495   3.235  13.519  0.6928 -0.6143 -0.2174
11109TIP3   OH254741   2.000   6.497  16.363 -0.3001 -0.3331 -0.5621
11109TIP3    H154742   2.020   6.403  16.369  0.1943 -0.2213 -0.4582
11109TIP3    H254743   1.948   6.515  16.441 -0.1467 -0.4626 -0.4295
11110TIP3   OH254744   2.075   4.860   4.273  0.1491 -0.0429 -0.0756
11110TIP3    H154745   2.079   4.927   4.341  0.1419 -0.3251  0.2034
11110TIP3    H254746   2.070   4.909   4.191 -1.2917  0.2992  0.2098
11111TIP3   OH254747   0.422   2.302   1.230 -0.9640 -0.0357 -0.9163
11111TIP3    H154748   0.327   2.311   1.221 -0.9365  1.4777  0.2352
11111TIP3    H254749   0.456   2.390   1.216  0.1627 -0.3098  0.0494
11112TIP3   OH254750   2.514   6.065  13.950  0.1949 -0.2974  0.4011
11112TIP3    H154751   2.527   6.138  13.889  1.3918 -0.4576  0.4618
11112TIP3    H254752   2.421   6.071  13.975 -0.4415 -0.5080 -1.7966
11113TIP3   OH254753   1.185   1.666  12.850  0.0900 -0.3332  0.6102
11113TIP3    H154754   1.212   1.582  12.888 -0.6294 -0.6720  0.3696
11113TIP3    H254755   1.166   1.721  12.925 -0.1941 -0.6343  0.7622
11114TIP3   OH254756   1.081   4.320  14.458 -0.3870 -0.3842  0.3184
11114TIP3    H154757   1.081   4.225  14.470  0.7415 -0.4944 -0.4213
11114TIP3    H254758   1.173   4.345  14.464 -0.3015  0.2342 -2.5202
11115TIP3   OH254759   0.978   2.971  11.879  0.4605  0.8600  0.3246
11115TIP3    H154760   0.941   2.938  11.798  0.9663  1.4550 -0.1506
11115TIP3    H254761   0.993   2.892  11.932  1.2306  0.3663 -0.6167
11116TIP3   OH254762   5.522   3.312  11.882 -0.3067  0.2055  0.1531
11116TIP3    H154763   5.484   3.312  11.970  0.7894  2.2160  0.6683
11116TIP3    H254764   5.589   3.380  11.886  0.8827 -0.8260 -1.7745
11117TIP3   OH254765   6.227   3.827  14.680 -0.3226  0.2316  0.0485
11117TIP3    H154766   6.148   3.852  14.632  0.1111  0.6993 -0.4295
11117TIP3    H254767   6.299   3.865  14.630  0.2171 -0.2839  0.4190
11118TIP3   OH254768   2.972   5.541  14.695 -0.2997 -0.1933  0.7235
11118TIP3    H154769   2.999   5.617  14.745 -2.2885  2.5008 -2.1448
11118TIP3    H254770   2.910   5.495  14.752  0.3431  0.7044  2.1794
11119TIP3   OH254771   3.543   5.565  17.081 -0.1718 -0.5559 -0.1519
11119TIP3    H154772   3.551   5.655  17.112 -1.1035 -0.6847  0.4899
11119TIP3    H254773   3.495   5.572  16.998  2.2011 -0.2227 -1.5225
11120TIP3   OH254774   1.278   6.294  14.116 -0.1063 -0.0089 -0.4010
11120TIP3    H154775   1.353   6.354  14.122  0.5783 -0.8748 -0.3022
11120TIP3    H254776   1.228   6.311  14.196  0.3880  0.0344 -0.0975
11121TIP3   OH254777   0.535   6.376  13.558 -0.4621 -0.2318 -0.0189
11121TIP3    H154778   0.511   6.338  13.474  0.3237  0.7167 -0.6797
11121TIP3    H254779   0.623   6.412  13.545  0.4082 -1.6610  1.7175
11122TIP3   OH254780   6.193   1.340   0.648 -0.1735 -0.0483 -0.6125
11122TIP3    H154781   6.117   1.368   0.596 -0.2929  3.0211  1.1217
11122TIP3    H254782   6.269   1.364   0.595 -0.3380  1.3021 -0.2498
11123TIP3   OH254783   4.027   2.397   1.403  0.0414  0.1298 -0.2520
11123TIP3    H154784   3.959   2.440   1.455  1.1344 -0.7552  1.9612
11123TIP3    H254785   4.072   2.469   1.359  1.1594  1.2125  2.5547
11124TIP3   OH254786   2.418   3.322   0.528 -0.6711  0.7852  0.2927
11124TIP3    H154787   2.470   3.324   0.448 -0.6850  2.9119  0.3237
11124TIP3    H254788   2.327   3.335   0.499 -1.1713 -2.2375  0.3060
11125TIP3   OH254789   1.005   0.105   6.529  0.0427  0.4550  0.4919
11125TIP3    H154790   0.926   0.114   6.582  0.8027  1.7073  1.4364
11125TIP3    H254791   0.980   0.044   6.459 -2.3254  2.3272 -0.3497
11126TIP3   OH254792   6.205   6.248  10.983 -0.1911  0.0510  0.4449
11126TIP3    H154793   6.232   6.163  10.948 -1.6366 -0.8847  1.5391
11126TIP3    H254794   6.213   6.308  10.908  0.6385 -1.0729 -0.3943
11127TIP3   OH254795   4.583   0.072  15.746  0.0263  0.8133 -0.3962
11127TIP3    H154796   4.569   0.029  15.830  1.1081 -0.3968 -0.8254
11127TIP3    H254797   4.514   0.138  15.741 -1.6375 -0.8299  0.3047
11128TIP3   OH254798   0.346   2.258   3.188 -0.5277  0.2288  0.4675
11128TIP3    H154799   0.305   2.316   3.252  0.5215  1.8112 -0.2531
11128TIP3    H254800   0.435   2.292   3.178  0.8959 -2.9056  1.7228
11129TIP3   OH254801   0.717   6.201  10.454  0.0025 -0.0849 -0.4063
11129TIP3    H154802   0.655   6.270  10.431 -0.9811 -1.0050 -0.5619
11129TIP3    H254803   0.796   6.223  10.405  0.6430  2.4467  1.6909
11130TIP3   OH254804   6.509   6.314  10.684  0.2373  0.3014 -0.1367
11130TIP3    H154805   6.494   6.334  10.776  1.4093  0.3887  0.0341
11130TIP3    H254806   6.483   6.394  10.637 -0.4665  0.2149  0.1023
11131TIP3   OH254807   6.497   2.592  12.239 -0.3903 -0.1034  0.2078
11131TIP3    H154808   6.463   2.623  12.322 -0.0457 -0.6664  0.5678
11131TIP3    H254809   6.437   2.627  12.173 -1.0708 -0.2448  0.7509
11132TIP3   OH254810   5.629   2.660  15.251  0.0665 -0.2813 -0.0062
11132TIP3    H154811   5.593   2.689  15.167 -1.0578 -1.9771 -0.1352
11132TIP3    H254812   5.627   2.564  15.246  0.7649 -0.3901  1.6299
11133TIP3   OH254813   0.782   5.281   6.086 -0.1349 -0.1871  0.6812
11133TIP3    H154814   0.776   5.215   6.155 -0.0300 -1.7099 -0.7521
11133TIP3    H254815   0.694   5.287   6.049  0.3563 -1.1778 -0.6891
11134TIP3   OH254816   4.141   0.006   2.154 -0.3640 -0.2109  1.0109
11134TIP3    H154817   4.201   0.078   2.175 -0.1424  0.1460 -0.7302
11134TIP3    H254818   4.152  -0.007   2.059 -0.6578 -2.3099  1.2366
11135TIP3   OH254819   5.828   5.783  13.589  0.2603  0.2609  0.3004
11135TIP3    H154820   5.867   5.866  13.562 -1.8403  0.9752 -0.6793
11135TIP3    H254821   5.902   5.723  13.597  1.5099  1.4636 -1.7915
11136TIP3   OH254822   3.773   0.501   4.107 -0.0783  0.3206 -0.4859
11136TIP3    H154823   3.859   0.540   4.095 -0.4261  1.3781  0.3627
11136TIP3    H254824   3.727   0.517   4.024  0.0129  1.1168 -0.3815
11137TIP3   OH254825   0.732   0.597   1.633 -0.0843 -0.3377  0.3016
11137TIP3    H154826   0.636   0.604   1.636 -0.1100 -0.6035  0.0154
11137TIP3    H254827   0.762   0.688   1.642 -0.3468 -0.3217  1.0644
11138TIP3   OH254828   3.491   3.981  16.737  0.2024 -0.1797 -0.0358
11138TIP3    H154829   3.429   3.917  16.701 -1.1846  0.7795  0.5953
11138TIP3    H254830   3.463   4.065  16.699  0.9332  0.3028  0.4840
11139TIP3   OH254831   5.112   5.826  14.066  0.1972  0.1447 -0.5833
11139TIP3    H154832   5.189   5.816  14.011 -0.2187  1.3232 -1.3848
11139TIP3    H254833   5.146   5.828  14.156  1.3682  3.3933 -1.0583
11140TIP3   OH254834   6.476   0.887  16.145  0.1822 -0.2638  0.2245
11140TIP3    H154835   6.489   0.804  16.099 -0.9409  0.6357 -1.8171
11140TIP3    H254836   6.387   0.881  16.181  0.1991 -0.0729  0.3014
11141TIP3   OH254837   1.408   6.057  15.663 -0.4281  0.0502  0.2195
11141TIP3    H154838   1.459   6.138  15.666  1.1231 -0.9162  0.6578
11141TIP3    H254839   1.471   5.989  15.686 -1.8127 -1.2364  0.2447
11142TIP3   OH254840   1.485   6.249   0.613 -0.6215 -0.1357  0.4958
11142TIP3    H154841   1.402   6.226   0.572 -0.6065 -0.1986  0.5001
11142TIP3    H254842   1.526   6.310   0.553  0.2386 -1.6600 -0.4875
11143TIP3   OH254843   5.124   1.546   2.962 -0.2573  0.4776 -0.5358
11143TIP3    H154844   5.142   1.639   2.977  1.0701  0.1495 -0.0914
11143TIP3    H254845   5.032   1.544   2.933 -0.6554  1.8092  0.5884
11144TIP3   OH254846   1.394   1.569  15.691  0.7448  0.2704  0.6048
11144TIP3    H154847   1.332   1.631  15.729 -0.0708  0.2356 -0.6375
11144TIP3    H254848   1.372   1.567  15.598  1.0831 -1.5039  0.5426
11145TIP3   OH254849   3.569   5.320   3.199  0.3316 -0.2436 -0.1207
11145TIP3    H154850   3.514   5.298   3.274 -0.3649  0.5502 -0.3950
11145TIP3    H254851   3.528   5.397   3.161  0.6283 -0.7029 -1.3840
11146TIP3   OH254852   1.803   3.080  17.085  0.0954 -0.2676  0.1288
11146TIP3    H154853   1.755   2.999  17.070 -0.6928  0.0872  0.7250
11146TIP3    H254854   1.895   3.053  17.086 -0.2372 -1.4418  2.0680
11147TIP3   OH254855   4.501   4.093  13.848 -0.2574 -0.2058  0.3671
11147TIP3    H154856   4.432   4.156  13.827 -1.5881 -1.6763  0.2222
11147TIP3    H254857   4.466   4.008  13.820  1.8534 -0.9177 -0.2455
11148TIP3   OH254858   4.364   6.154  10.398 -0.4827  0.0062 -0.0492
11148TIP3    H154859   4.308   6.194  10.331  0.2427  1.2622  0.0847
11148TIP3    H254860   4.356   6.060  10.383 -0.9737  0.2559 -1.3829
11149TIP3   OH254861   3.036   0.086   5.239  0.3096 -0.2960  0.3459
11149TIP3    H154862   2.987   0.004   5.240 -0.9956  0.4663 -0.4157
11149TIP3    H254863   2.983   0.145   5.186  1.4828  0.8968  0.4838
11150TIP3   OH254864   2.091   0.244   1.562 -0.0566  0.2695 -0.4603
11150TIP3    H154865   2.103   0.275   1.472  1.2175 -0.1818 -0.4579
11150TIP3    H254866   2.033   0.168   1.554  1.4463 -0.8388 -1.1170
11151TIP3   OH254867   3.914   6.030   1.910  0.0806  0.2164  0.3692
11151TIP3    H154868   3.825   6.055   1.935  0.4340  0.2052  1.6751
11151TIP3    H254869   3.912   6.027   1.815 -1.7996 -1.5669  0.4320
11152TIP3   OH254870   3.997   4.773   0.017  0.9989 -0.2613 -0.3673
11152TIP3    H154871   4.079   4.724   0.008  1.6697  1.0043 -1.3305
11152TIP3    H254872   4.011   4.852  -0.034 -0.9046 -0.1086 -0.6760
11153TIP3   OH254873   5.967   6.678  16.071  0.5793 -0.3725 -0.1541
11153TIP3    H154874   5.945   6.754  16.016  1.9380 -0.5287 -0.9212
11153TIP3    H254875   5.951   6.709  16.161  0.8143  0.7318 -0.4777
11154TIP3   OH254876   0.980   2.464  16.476  0.4522  0.0050 -0.2261
11154TIP3    H154877   0.941   2.426  16.555 -0.3713 -0.2910 -0.7752
11154TIP3    H254878   0.908   2.512  16.434  0.7413 -0.3244 -1.1004
11155TIP3   OH254879   3.487   3.028   0.175  0.3812  0.5326 -0.0631
11155TIP3    H154880   3.582   3.030   0.186  0.1981  2.3685  1.3788
11155TIP3    H254881   3.451   3.029   0.264 -1.0074 -0.1997 -0.5858
11156TIP3   OH254882   3.274   3.838  16.636  0.3399 -0.2187 -0.1575
11156TIP3    H154883   3.207   3.791  16.686 -0.2663 -0.8929 -1.5655
11156TIP3    H254884   3.273   3.795  16.550  2.8803 -0.5097 -0.0676
11157TIP3   OH254885   3.725   2.436   0.518  0.3715 -0.2875 -0.4711
11157TIP3    H154886   3.712   2.343   0.501 -0.8559  0.2079 -2.4006
11157TIP3    H254887   3.680   2.452   0.601  0.0848 -1.2775 -0.4277
11158TIP3   OH254888   1.662   2.970   3.913 -0.2967 -0.0436  0.1949
11158TIP3    H154889   1.598   3.017   3.967 -1.9031  0.1010 -1.7946
11158TIP3    H254890   1.680   3.030   3.841  0.2222 -1.1061 -0.5569
11159TIP3   OH254891   2.677   5.793   4.760  0.0204 -0.5597  0.1197
11159TIP3    H154892   2.609   5.835   4.813  0.3723 -0.1887  0.2761
11159TIP3    H254893   2.757   5.842   4.779 -0.1903  0.7356 -2.0720
11160TIP3   OH254894   3.708   3.749   0.011  0.5436 -0.3915 -0.1306
11160TIP3    H154895   3.655   3.676  -0.022  1.7618 -1.8426  1.0203
11160TIP3    H254896   3.650   3.825   0.006 -0.9918 -1.5753 -0.7293
11161TIP3   OH254897   2.288   4.110   6.454 -0.7611 -0.7033  0.0241
11161TIP3    H154898   2.291   4.152   6.539  0.7989  1.2585 -0.9670
11161TIP3    H254899   2.199   4.126   6.422  0.1795  3.1789 -0.9285
11162TIP3   OH254900   3.933   4.269   4.288  0.0988  0.1418  0.2172
11162TIP3    H154901   3.887   4.186   4.276  1.6227 -0.7057  0.1264
11162TIP3    H254902   3.918   4.316   4.206  2.1689 -1.5275 -1.1700
11163TIP3   OH254903   0.457   3.424  16.091 -0.0057  0.1951  0.0059
11163TIP3    H154904   0.465   3.330  16.079 -0.1679  0.2246 -0.3249
11163TIP3    H254905   0.368   3.445  16.066  0.3533  0.5940 -0.9596
11164TIP3   OH254906   5.354   1.578  13.744  0.2982 -0.1312 -0.3427
11164TIP3    H154907   5.429   1.521  13.727  0.5154 -0.0283  0.2726
11164TIP3    H254908   5.334   1.565  13.837 -2.1757 -2.2474 -1.1030
11165TIP3   OH254909   4.151   2.368  12.978 -0.1723  0.1336  0.5213
11165TIP3    H154910   4.122   2.456  12.953 -0.9125  0.0907  1.2113
11165TIP3    H254911   4.081   2.310  12.949  1.2932 -0.5189 -1.9497
11166TIP3   OH254912   6.181   1.462  14.192 -0.1102 -0.1849  0.4576
11166TIP3    H154913   6.085   1.456  14.194 -0.0372 -1.4151  2.6366
11166TIP3    H254914   6.201   1.544  14.237 -0.1194 -1.2491  2.5163
11167TIP3   OH254915   3.970   0.152  11.189  0.2133  0.7628  0.3307
11167TIP3    H154916   4.029   0.217  11.151  0.2586  0.3889 -0.2484
11167TIP3    H254917   3.957   0.180  11.280  2.3596  0.1157  0.8736
11168TIP3   OH254918   6.431   4.035   3.550  0.3498 -0.5078  0.3771
11168TIP3    H154919   6.433   4.116   3.499  0.3523 -0.9187 -0.2806
11168TIP3    H254920   6.521   4.022   3.579  1.1830 -2.4117 -2.9183
11169TIP3   OH254921   3.501   5.169  16.638  0.4865 -0.5059  0.2054
11169TIP3    H154922   3.523   5.230  16.709 -0.1734  0.1275 -0.1328
11169TIP3    H254923   3.434   5.111  16.676  1.4367 -1.3141  0.6664
11170TIP3   OH254924   1.568   6.360  14.808  0.1605 -0.0129 -0.9784
11170TIP3    H154925   1.531   6.278  14.775  1.2207 -0.2232 -1.6431
11170TIP3    H254926   1.547   6.425  14.742  1.3514 -0.2192 -1.5644
11171TIP3   OH254927   1.711   4.323   4.576  0.0632  0.1801  0.2010
11171TIP3    H154928   1.751   4.286   4.655 -0.1895 -1.1064 -0.2467
11171TIP3    H254929   1.751   4.409   4.566  1.0271 -0.1607  1.0303
11172TIP3   OH254930   0.874   5.620  12.776 -0.3717  0.1090 -0.3108
11172TIP3    H154931   0.935   5.637  12.704 -1.0118  2.4534 -0.3185
11172TIP3    H254932   0.907   5.674  12.848 -1.7953  0.5292  0.0300
11173TIP3   OH254933   6.208   1.298   3.796 -0.5266  0.3177  0.2576
11173TIP3    H154934   6.217   1.367   3.730  0.3562  0.3847  0.4448
11173TIP3    H254935   6.117   1.269   3.788 -1.1144  1.9951  0.6601
11174TIP3   OH254936   6.643   3.038  10.929 -0.5502 -0.1900  0.1710
11174TIP3    H154937   6.696   2.959  10.939  0.4425  0.2359 -1.4420
11174TIP3    H254938   6.556   3.006  10.908 -0.2079 -0.8637 -0.2482
11175TIP3   OH254939   1.627   0.788  12.274 -0.3496 -0.0124  0.2308
11175TIP3    H154940   1.695   0.729  12.306  0.8126  0.8660 -0.5652
11175TIP3    H254941   1.608   0.757  12.185 -1.3612 -0.5605  0.6277
11176TIP3   OH254942   3.355   0.382   3.348 -0.1183 -0.7838  0.3744
11176TIP3    H154943   3.306   0.430   3.415  0.3423 -0.0612  0.2049
11176TIP3    H254944   3.443   0.421   3.351 -0.5785  0.5030 -1.8930
11177TIP3   OH254945   1.235   1.028  15.482 -0.2155 -0.5387  0.0877
11177TIP3    H154946   1.195   1.009  15.398 -0.0399  0.4865 -0.2317
11177TIP3    H254947   1.181   0.981  15.546 -2.4632  1.5128 -0.2439
11178TIP3   OH254948   6.287   5.676  16.756  0.0708 -0.9194 -0.3000
11178TIP3    H154949   6.326   5.605  16.807 -0.8837 -0.3923  1.2028
11178TIP3    H254950   6.344   5.752  16.772  0.2626 -0.9653 -0.7384
11179TIP3   OH254951   4.868   1.487   2.888  0.3897  0.3374  0.2421
11179TIP3    H154952   4.803   1.519   2.951  0.0437 -1.2264  0.7149
11179TIP3    H254953   4.823   1.490   2.803  0.8565  2.4519  0.0520
11180TIP3   OH254954   0.319   4.844  12.289  0.2931 -0.6111  0.3311
11180TIP3    H154955   0.304   4.782  12.218  1.0077 -0.5410  0.1098
11180TIP3    H254956   0.383   4.800  12.346  0.0122 -0.5111  0.7283
11181TIP3   OH254957   3.739   3.220   1.357  0.3424  0.4179  0.1306
11181TIP3    H154958   3.673   3.193   1.293 -1.3135 -0.2884  2.0508
11181TIP3    H254959   3.708   3.305   1.389 -0.3408 -0.4825  1.9333
11182TIP3   OH254960   3.773   4.348   5.044  0.2709  0.1833  0.0276
11182TIP3    H154961   3.730   4.379   4.964  2.5947 -1.8076 -2.0607
11182TIP3    H254962   3.861   4.383   5.039  0.7979 -0.9468  1.1522
11183TIP3   OH254963   2.176   2.481  16.325 -0.1509  0.0653  0.3787
11183TIP3    H154964   2.187   2.411  16.260  0.4745  1.0214 -0.5601
11183TIP3    H254965   2.082   2.489  16.336 -0.2310 -0.8523  0.4087
11184TIP3   OH254966   4.039   4.415  13.951 -0.2844 -1.1793 -0.0170
11184TIP3    H154967   3.991   4.421  14.034 -0.7160 -0.8260 -0.2831
11184TIP3    H254968   4.131   4.421  13.975 -0.4340 -0.3967  0.3877
11185TIP3   OH254969   3.870   1.405   0.083  0.1443 -0.2932  0.3113
11185TIP3    H154970   3.866   1.312   0.060  2.1163  0.0544 -1.6077
11185TIP3    H254971   3.947   1.414   0.139 -1.1931 -0.1149  2.1726
11186TIP3   OH254972   3.548   2.134   1.176 -0.0022  0.2710 -0.0086
11186TIP3    H154973   3.598   2.212   1.154 -1.0161  0.8293 -0.3988
11186TIP3    H254974   3.551   2.130   1.272  2.0001 -0.5317 -0.0849
11187TIP3   OH254975   2.197   5.455   3.119 -0.2781  0.2612 -0.6242
11187TIP3    H154976   2.124   5.421   3.066 -0.1778 -0.2724 -0.4155
11187TIP3    H254977   2.224   5.381   3.174 -0.1880  0.7263 -0.0344
11188TIP3   OH254978   0.604   2.929  11.494  0.2134 -0.4472 -0.4544
11188TIP3    H154979   0.531   2.967  11.543  1.9444  1.7811  0.4971
11188TIP3    H254980   0.573   2.843  11.467 -2.8847  0.6021 -0.3813
11189TIP3   OH254981   1.988   5.780   4.125 -0.3626  0.4495 -0.2350
11189TIP3    H154982   1.952   5.869   4.128 -0.8027  0.2582  0.1725
11189TIP3    H254983   2.083   5.792   4.129 -0.4592  0.8477  1.0688
11190TIP3   OH254984   2.249   0.968   6.377 -0.2664  0.2182 -0.0716
11190TIP3    H154985   2.168   0.930   6.343 -2.1502  1.8148  2.4682
11190TIP3    H254986   2.292   0.896   6.423  0.9775 -1.2430 -3.3694
11191TIP3   OH254987   1.147   0.517  16.649 -0.4712 -0.1667  0.3921
11191TIP3    H154988   1.220   0.578  16.635 -0.7575  0.1674  0.3545
11191TIP3    H254989   1.171   0.470  16.728 -0.5008  0.3636  0.7150
11192TIP3   OH254990   3.840   1.810   2.408 -0.0110 -0.2087 -0.2412
11192TIP3    H154991   3.894   1.888   2.418  1.8759 -1.2096 -2.2509
11192TIP3    H254992   3.752   1.844   2.390  0.3550  1.4295  0.9384
11193TIP3   OH254993   4.630   0.633   6.405 -0.0920  0.1204  0.0287
11193TIP3    H154994   4.633   0.612   6.498  0.9071  0.5988  0.1161
11193TIP3    H254995   4.671   0.558   6.362  2.6655  1.4110  0.2721
11194TIP3   OH254996   2.717   0.664  12.143 -0.3390  0.3155  0.4484
11194TIP3    H154997   2.777   0.695  12.075 -1.1440  2.8184  0.8299
11194TIP3    H254998   2.637   0.640  12.095 -1.7025  4.1253  0.6038
11195TIP3   OH254999   4.786   6.323  13.088 -0.2842  0.0944 -0.0655
11195TIP3    H155000   4.719   6.288  13.147  0.1599  0.7169  0.8091
11195TIP3    H255001   4.837   6.246  13.063  0.5649  0.0499  1.7082
11196TIP3   OH255002   2.532   0.705  11.201 -0.1131 -0.1524  0.7081
11196TIP3    H155003   2.444   0.691  11.236 -0.3485 -0.8076 -0.1420
11196TIP3    H255004   2.519   0.731  11.110  0.5097  1.4568  1.0610
11197TIP3   OH255005   3.507   4.438  14.077  0.0581 -0.5460  0.0350
11197TIP3    H155006   3.534   4.409  13.989 -1.4154 -2.1026  0.0568
11197TIP3    H255007   3.412   4.432  14.075 -0.0312  0.4035  1.4223
11198TIP3   OH255008   4.285   2.866   0.946 -0.0829 -0.0221  0.2181
11198TIP3    H155009   4.198   2.904   0.937 -0.1414 -0.1979  0.0412
11198TIP3    H255010   4.339   2.913   0.882 -0.2594 -0.5432 -0.3265
11199TIP3   OH255011   2.674   2.834   0.852 -0.0453 -0.6248 -0.2817
11199TIP3    H155012   2.705   2.745   0.870 -1.5916 -0.6022  2.6692
11199TIP3    H255013   2.579   2.827   0.853 -0.1838  1.0288 -0.3178
11200TIP3   OH255014   5.481   6.652  15.113 -0.3346  0.2050  0.8332
11200TIP3    H155015   5.497   6.742  15.142  1.1500  0.2029  0.0433
11200TIP3    H255016   5.537   6.640  15.037 -2.7380 -0.4357 -0.9013
11201TIP3   OH255017   4.173   3.116  17.175  0.2356 -0.7055 -0.5890
11201TIP3    H155018   4.219   3.193  17.143  1.2034 -0.3060  1.6437
11201TIP3    H255019   4.123   3.084  17.100  1.0229  1.1996 -1.9508
11202TIP3   OH255020   0.837   1.528  12.678  0.2199  0.4004 -0.2108
11202TIP3    H155021   0.777   1.590  12.636  0.8209  0.8259 -0.4464
11202TIP3    H255022   0.784   1.485  12.745 -0.5108  0.3465 -0.8150
11203TIP3   OH255023   1.921   2.531   1.016 -0.4033 -0.4517 -0.1698
11203TIP3    H155024   1.885   2.446   1.041 -2.2403  0.4428  0.3940
11203TIP3    H255025   1.880   2.593   1.077 -1.0334  1.1505 -2.1524
11204TIP3   OH255026   3.625   3.608  14.409 -0.4524  0.5133  0.3873
11204TIP3    H155027   3.671   3.627  14.491 -0.3959  1.2332  0.1981
11204TIP3    H255028   3.681   3.546  14.363 -0.1111  0.6977  0.5554
11205TIP3   OH255029   4.113   4.929   2.158  0.2484 -0.0587 -0.1970
11205TIP3    H155030   4.120   4.927   2.062 -3.8979  1.0059 -0.5904
11205TIP3    H255031   4.183   4.990   2.185  2.6999 -1.8088 -2.3056
11206TIP3   OH255032   2.205   2.939  15.649 -0.2020 -0.3608 -0.1166
11206TIP3    H155033   2.135   2.947  15.714 -0.0265 -0.1388  0.0497
11206TIP3    H255034   2.231   2.847  15.652  1.1668  0.0501  1.5781
11207TIP3   OH255035   2.994   0.019   4.837 -0.2042  0.4712 -0.0972
11207TIP3    H155036   2.951   0.101   4.861 -0.5167  0.7217 -1.4419
11207TIP3    H255037   3.069   0.045   4.784  0.4614 -0.0559  0.5836
11208TIP3   OH255038   1.256   1.158   5.567  0.8263  0.1896  0.2734
11208TIP3    H155039   1.228   1.227   5.506 -0.9731  0.6851  1.6156
11208TIP3    H255040   1.229   1.076   5.525  0.1620  0.4928  0.1030
11209TIP3   OH255041   1.432   2.617  17.108  0.1393 -0.0713  0.1107
11209TIP3    H155042   1.374   2.560  17.158 -0.4391 -1.3313 -1.9284
11209TIP3    H255043   1.446   2.571  17.025  1.4511  1.7283 -0.7187
11210TIP3   OH255044   0.722   6.356   0.829 -0.2930 -0.3815  0.3056
11210TIP3    H155045   0.661   6.398   0.889 -1.0767  0.6727 -1.2072
11210TIP3    H255046   0.779   6.304   0.886 -0.0667  1.7519  2.1031
11211TIP3   OH255047   3.745   4.887  12.506  0.0780  0.2910  0.1989
11211TIP3    H155048   3.702   4.933  12.578 -0.1169  1.2961 -0.5486
11211TIP3    H255049   3.802   4.823  12.549  0.5177  1.3692  1.2646
11212TIP3   OH255050   3.321   5.873   5.568 -0.0523  0.4182  0.1266
11212TIP3    H155051   3.311   5.888   5.662  0.1971 -0.3147  0.2741
11212TIP3    H255052   3.237   5.898   5.530 -1.5067 -2.8695  0.9989
11213TIP3   OH255053   5.410   2.898   5.354 -1.0479 -0.1073 -0.3931
11213TIP3    H155054   5.369   2.882   5.439  1.3445 -0.7343  0.6937
11213TIP3    H255055   5.375   2.829   5.297 -0.7599 -1.2149  0.7591
11214TIP3   OH255056   1.527   1.165  14.369 -0.0077  0.0098 -0.1082
11214TIP3    H155057   1.602   1.130  14.416 -0.0709 -1.2935 -0.9517
11214TIP3    H255058   1.498   1.239  14.422 -0.3472 -1.6776  2.1516
11215TIP3   OH255059   1.063   2.776  13.315 -0.2173 -0.4491  0.3730
11215TIP3    H155060   0.974   2.777  13.280  0.0217 -2.5862 -0.3604
11215TIP3    H255061   1.069   2.694  13.363  1.7245 -0.8714 -0.5367
11216TIP3   OH255062   3.470   3.372  12.850  0.0679  0.2643 -0.2788
11216TIP3    H155063   3.379   3.394  12.871  0.4668  1.5386  0.1332
11216TIP3    H255064   3.467   3.279  12.828 -1.3858  0.3517 -0.5406
11217TIP3   OH255065   6.449   5.956   0.703  0.6139  0.3009 -0.2335
11217TIP3    H155066   6.377   5.951   0.641  1.4463 -0.2776 -1.1546
11217TIP3    H255067   6.429   5.891   0.770  1.5919 -1.7542 -1.8805
11218TIP3   OH255068   4.931   2.213   6.658  0.4057 -0.0926  0.2697
11218TIP3    H155069   4.922   2.171   6.743  2.5572  0.1817  0.6514
11218TIP3    H255070   4.858   2.276   6.655 -0.4981 -1.0644  1.3171
11219TIP3   OH255071   6.787   0.659  13.913  0.0867 -0.1939  0.0600
11219TIP3    H155072   6.747   0.613  13.988  2.4248  1.2161  2.2322
11219TIP3    H255073   6.811   0.589  13.853 -0.2263 -1.5172  1.4326
11220TIP3   OH255074   5.268   3.300   5.652 -0.2910 -0.0253 -0.0859
11220TIP3    H155075   5.290   3.374   5.596 -0.5650 -0.2530 -0.4921
11220TIP3    H255076   5.340   3.239   5.640 -0.6512 -0.3385 -0.6542
11221TIP3   OH255077   6.549   1.313   5.765  0.2396 -0.6804 -1.1435
11221TIP3    H155078   6.509   1.344   5.846  2.7621 -0.4853  0.0714
11221TIP3    H255079   6.494   1.239   5.738 -2.1646  0.8877 -0.7275
11222TIP3   OH255080   4.061   4.738  14.393 -0.4569  0.2617 -0.0383
11222TIP3    H155081   3.987   4.726  14.333 -1.5897 -0.9144  1.5442
11222TIP3    H255082   4.023   4.777  14.471  0.5261 -0.6702  0.9246
11223TIP3   OH255083   5.738   1.826  11.506  0.0285 -0.4301  0.3004
11223TIP3    H155084   5.816   1.878  11.484  0.3349 -0.6822  0.7772
11223TIP3    H255085   5.665   1.879  11.475  0.3645  0.0497  0.3132
11224TIP3   OH255086   1.060   2.710  13.974 -0.1002  0.0878  0.4913
11224TIP3    H155087   0.999   2.746  14.038  0.6942  0.7426  0.9067
11224TIP3    H255088   1.009   2.697  13.895 -0.2079  3.0611  0.0339
11225TIP3   OH255089   4.729   0.495   3.484 -0.3723 -0.2673  0.0958
11225TIP3    H155090   4.746   0.450   3.401 -0.5441 -1.2184  0.5695
11225TIP3    H255091   4.810   0.485   3.533  0.5808  2.3373 -0.8548
11226TIP3   OH255092   4.865   2.296   0.277 -0.4585 -0.6131  0.1543
11226TIP3    H155093   4.864   2.369   0.216 -2.2671  1.0346  2.0509
11226TIP3    H255094   4.772   2.273   0.289 -0.1470 -1.0387  2.0671
11227TIP3   OH255095   4.660   5.321  16.078  0.2230 -0.0849  0.0065
11227TIP3    H155096   4.588   5.350  16.135  1.0207  1.9484  0.0418
11227TIP3    H255097   4.616   5.280  16.003 -0.9890  0.9918  0.0966
11228TIP3   OH255098   0.964   3.360  13.375 -0.4935 -0.0841 -0.0889
11228TIP3    H155099   1.055   3.349  13.404 -0.1949  0.8717 -0.6427
11228TIP3    H255100   0.928   3.425  13.434 -0.7738 -0.3341  0.0175
11229TIP3   OH255101   2.374   4.061  15.554  0.3096 -0.1045  0.3758
11229TIP3    H155102   2.343   3.971  15.563  0.1060 -0.1728 -0.9239
11229TIP3    H255103   2.304   4.114  15.592 -0.2076 -0.4132 -0.1436
11230TIP3   OH255104   2.129   3.920   2.310 -0.1079  0.6165 -0.3953
11230TIP3    H155105   2.074   3.973   2.251  0.3237  0.4197 -0.9789
11230TIP3    H255106   2.200   3.979   2.335  0.6563  0.1522 -1.4607
11231TIP3   OH255107   0.028   3.814   5.692 -0.2188 -0.3905 -0.3075
11231TIP3    H155108   0.033   3.877   5.620  1.1327  0.3912  0.4590
11231TIP3    H255109   0.053   3.864   5.770  1.6543 -2.0486  0.1973
11232TIP3   OH255110   3.106   6.347   1.390  0.1597  0.3815  0.5556
11232TIP3    H155111   3.152   6.276   1.434 -1.6507 -0.4630  1.1213
11232TIP3    H255112   3.054   6.388   1.458  1.5933  2.6326  0.3562
11233TIP3   OH255113   3.309   4.170  11.983  0.1376  0.2692 -0.0659
11233TIP3    H155114   3.239   4.113  12.015  1.2060 -1.8381 -1.3753
11233TIP3    H255115   3.388   4.115  11.985  1.3940  2.0040 -0.4526
11234TIP3   OH255116   5.454   2.730   4.493 -0.1210  0.3945  0.0581
11234TIP3    H155117   5.402   2.807   4.469 -0.4637  0.8459  2.2094
11234TIP3    H255118   5.534   2.766   4.531  0.4737 -0.3146 -0.5139
11235TIP3   OH255119   4.597   1.524  16.364  0.3845 -0.2444 -0.8369
11235TIP3    H155120   4.546   1.571  16.430  0.3497 -0.6374 -0.5854
11235TIP3    H255121   4.553   1.439  16.355 -0.1881  0.1568 -2.0631
11236TIP3   OH255122   2.434   3.310  15.356  0.3621 -0.3942  0.0174
11236TIP3    H155123   2.463   3.398  15.378  0.7783 -0.3090 -0.8689
11236TIP3    H255124   2.494   3.281  15.287  0.8874 -1.7646  1.0325
11237TIP3   OH255125   1.159   0.490  14.584 -0.0234 -0.1143  0.4965
11237TIP3    H155126   1.212   0.438  14.524  0.4210 -0.0011  0.7834
11237TIP3    H255127   1.092   0.530  14.529  0.5381  0.1997  0.0425
11238TIP3   OH255128   0.443   5.363  13.112 -0.3125 -0.1752  0.1715
11238TIP3    H155129   0.511   5.303  13.081 -0.0306  0.8255 -1.2041
11238TIP3    H255130   0.387   5.309  13.168  1.0044 -1.2670  0.4749
11239TIP3   OH255131   0.646   1.197   0.254  0.1583  0.3074 -0.0308
11239TIP3    H155132   0.694   1.161   0.329  0.3083  0.9450  0.1811
11239TIP3    H255133   0.696   1.168   0.178  0.4033  0.2528  0.1505
11240TIP3   OH255134   3.913   0.967   1.531 -0.0083  0.9653 -0.4719
11240TIP3    H155135   3.823   0.996   1.545  0.1208  0.7316  0.9795
11240TIP3    H255136   3.966   1.044   1.551  0.3165 -0.0565  3.0408
11241TIP3   OH255137   5.696   0.722  13.990 -0.0045  0.0750  0.3573
11241TIP3    H155138   5.719   0.630  13.978 -2.1540 -0.2584 -1.4743
11241TIP3    H255139   5.603   0.726  13.970  0.0555  2.6424  0.4827
11242TIP3   OH255140   0.193   2.078  12.164 -0.4962  0.3944 -0.6172
11242TIP3    H155141   0.179   1.989  12.197  0.4555  0.5122  0.1232
11242TIP3    H255142   0.287   2.091  12.170 -0.4511  0.8977 -2.1903
11243TIP3   OH255143   2.275   0.909  13.249  0.5265  0.7980 -0.0605
11243TIP3    H155144   2.359   0.879  13.212  0.5634 -0.1148  0.7445
11243TIP3    H255145   2.291   1.001  13.272  1.2257  0.7080 -0.1552
11244TIP3   OH255146   0.324   5.553  11.996 -0.2579  0.4657 -0.4784
11244TIP3    H155147   0.384   5.491  11.955  0.0182  0.7533 -0.5106
11244TIP3    H255148   0.237   5.520  11.974 -0.1168  0.6777 -1.4152
11245TIP3   OH255149   5.409   1.308   2.095 -0.8173  0.4502  0.3111
11245TIP3    H155150   5.402   1.273   2.183  1.0284 -1.1404 -0.1373
11245TIP3    H255151   5.363   1.392   2.098 -0.9942  0.2831  2.6977
11246TIP3   OH255152   1.520   0.296   0.045  0.1867 -0.0175 -0.0837
11246TIP3    H155153   1.572   0.371   0.015 -0.6224  1.4132  1.9585
11246TIP3    H255154   1.430   0.327   0.043 -0.0880 -0.6238  1.5926
11247TIP3   OH255155   1.151   3.761   0.557  0.4162  0.1373  0.0461
11247TIP3    H155156   1.056   3.754   0.556  0.4770 -0.6855 -1.3289
11247TIP3    H255157   1.170   3.828   0.491  0.8335 -0.3496 -0.3304
11248TIP3   OH255158   0.152   5.983   4.754 -0.1592 -0.4136  0.3772
11248TIP3    H155159   0.148   5.908   4.695 -2.1398  0.5330 -0.7606
11248TIP3    H255160   0.236   5.974   4.799 -0.0370 -2.8818 -0.2812
11249TIP3   OH255161   3.194   2.277  14.852 -0.2768  0.1880  0.0728
11249TIP3    H155162   3.114   2.233  14.826  1.0104 -0.8490 -2.2576
11249TIP3    H255163   3.189   2.363  14.811 -0.1284  0.0646 -0.2042
11250TIP3   OH255164   6.140   2.968  16.543 -0.3461 -0.2197 -0.5986
11250TIP3    H155165   6.098   2.972  16.458  1.3730  2.0379 -1.4035
11250TIP3    H255166   6.229   3.000  16.527 -0.2579  1.0887  2.1687
11251TIP3   OH255167   3.761   3.108  16.359 -0.1354  0.2953 -0.1742
11251TIP3    H155168   3.839   3.158  16.385  1.4972 -2.2642 -0.0642
11251TIP3    H255169   3.699   3.121  16.431  0.3064  2.0257 -0.0824
11252TIP3   OH255170   1.921   2.035  13.610  0.4560 -0.4864 -0.2770
11252TIP3    H155171   1.919   2.128  13.586  1.3754 -0.8552 -1.8425
11252TIP3    H255172   1.998   2.026  13.665 -1.3012  0.2389  2.3706
11253TIP3   OH255173   6.202   3.986   0.430 -0.0293  0.3379 -0.4250
11253TIP3    H155174   6.157   4.070   0.436 -1.3658 -0.4081  0.2983
11253TIP3    H255175   6.135   3.926   0.397  0.8321 -0.5009 -0.6460
11254TIP3   OH255176   4.237   3.602   3.257 -0.1063 -0.0405  0.0176
11254TIP3    H155177   4.263   3.608   3.165  1.4788  0.6670  0.4987
11254TIP3    H255178   4.192   3.685   3.274 -1.0411 -0.4713 -0.2981
11255TIP3   OH255179   4.250   4.270   3.406  0.1425 -0.1805 -0.1946
11255TIP3    H155180   4.189   4.322   3.459 -0.2257 -1.3399  0.5162
11255TIP3    H255181   4.204   4.188   3.389  0.4939 -0.0679 -1.8058
11256TIP3   OH255182   1.894   5.826   1.846  0.5951 -0.6786 -0.6862
11256TIP3    H155183   1.964   5.865   1.899  0.7725  0.2108 -1.5448
11256TIP3    H255184   1.893   5.734   1.872  2.5592 -0.8686 -1.1434
11257TIP3   OH255185   1.936   2.849  13.298 -0.0305  0.3648 -0.3875
11257TIP3    H155186   2.023   2.848  13.258  0.5083  1.5108  0.6911
11257TIP3    H255187   1.953   2.853  13.392 -1.2597  0.7012 -0.1659
11258TIP3   OH255188   0.542   0.977  15.344  0.4252  0.1365  0.0138
11258TIP3    H155189   0.585   1.034  15.407 -0.4720  0.5810  0.2185
11258TIP3    H255190   0.614   0.927  15.305  0.9506 -0.3937  1.6202
11259TIP3   OH255191   6.014   5.796  15.070  0.3690  0.4843  0.5438
11259TIP3    H155192   6.101   5.837  15.073  1.7207 -2.3005  2.1685
11259TIP3    H255193   6.010   5.755  14.984  1.1642 -0.3158  0.8726
11260TIP3   OH255194   1.648   2.056  15.288  0.2528  0.0132 -0.3183
11260TIP3    H155195   1.692   1.996  15.227  0.0080 -0.3378 -0.1495
11260TIP3    H255196   1.560   2.021  15.298  0.5728 -0.4870  0.9705
11261TIP3   OH255197   1.717   2.441  12.515 -0.0323  0.5874 -0.0959
11261TIP3    H155198   1.719   2.353  12.478  0.2706  0.0306  1.2193
11261TIP3    H255199   1.702   2.499  12.439  2.7943 -0.3160 -1.4229
11262TIP3   OH255200   2.258   1.443   2.082  0.3398 -0.1362  0.0477
11262TIP3    H155201   2.293   1.530   2.062 -3.7539  1.2953 -1.2799
11262TIP3    H255202   2.226   1.451   2.172  1.6477 -0.8737  0.5905
11263TIP3   OH255203   0.572   5.541   2.588  0.0340 -0.6538  0.0302
11263TIP3    H155204   0.644   5.532   2.526 -0.5322 -1.3237 -0.5473
11263TIP3    H255205   0.584   5.469   2.650  0.4136 -0.1821  0.5003
11264TIP3   OH255206   0.087   3.549   6.220 -0.0078 -0.0810 -0.8567
11264TIP3    H155207   0.131   3.517   6.299 -1.1581 -1.3490 -0.7193
11264TIP3    H255208   0.141   3.517   6.148  1.5195  1.7936 -0.6012
11265TIP3   OH255209   1.413   3.355   0.894  0.3206 -0.1757 -0.0286
11265TIP3    H155210   1.420   3.259   0.899 -0.6859 -0.2165  0.6331
11265TIP3    H255211   1.384   3.372   0.804 -1.7124 -0.6294  0.5183
11266TIP3   OH255212   6.373   5.255  15.177 -0.1181  0.0398  0.4474
11266TIP3    H155213   6.322   5.282  15.101  0.4090 -0.3222 -0.0418
11266TIP3    H255214   6.332   5.173  15.206 -1.7669  1.3720  1.9779
11267TIP3   OH255215   2.381   4.298   6.043 -0.4653 -0.6901 -0.1709
11267TIP3    H155216   2.406   4.287   6.134 -0.7250 -0.4455 -0.0680
11267TIP3    H255217   2.461   4.330   6.000 -0.3508 -0.7778 -0.0243
11268TIP3   OH255218   3.496   6.271  11.795 -0.1809 -0.1379  0.0054
11268TIP3    H155219   3.564   6.233  11.739 -1.1205 -0.9628 -0.5897
11268TIP3    H255220   3.476   6.201  11.857  0.9732  0.8334  1.4870
11269TIP3   OH255221   0.093   5.299  13.310 -0.1692  0.4466  0.2724
11269TIP3    H155222   0.024   5.365  13.318 -1.7822 -1.2447  0.5281
11269TIP3    H255223   0.156   5.320  13.379 -0.7002  1.6684  0.3845
11270TIP3   OH255224   6.224   0.733   3.624 -0.3321  0.1763 -0.0383
11270TIP3    H155225   6.230   0.638   3.630 -1.3542 -0.0473 -2.1890
11270TIP3    H255226   6.165   0.749   3.551 -1.9690  2.4562  1.7001
11271TIP3   OH255227   4.439   4.707  15.594 -0.3210 -0.0282 -0.1111
11271TIP3    H155228   4.424   4.613  15.599  1.5069 -0.3560 -0.2419
11271TIP3    H255229   4.534   4.716  15.603 -0.4579  1.7868 -0.3307
11272TIP3   OH255230   3.174   2.627  13.378  0.8611 -0.3718 -0.2956
11272TIP3    H155231   3.148   2.591  13.462 -0.8436  1.6728  0.0836
11272TIP3    H255232   3.127   2.574  13.313  1.6527 -1.5117  0.0544
11273TIP3   OH255233   6.574   3.529  10.594  0.6987  0.1945  0.5302
11273TIP3    H155234   6.529   3.610  10.572 -0.1734 -0.6626 -0.8820
11273TIP3    H255235   6.520   3.489  10.662  0.2469  0.0115  0.0680
11274TIP3   OH255236   6.235   4.662   3.799 -0.3193 -0.0749 -0.1896
11274TIP3    H155237   6.211   4.733   3.739 -0.0317 -1.2164 -1.7055
11274TIP3    H255238   6.329   4.672   3.812 -0.0917 -0.7544 -1.2163
11275TIP3   OH255239   6.120   3.285   3.931  0.5106 -0.7610  0.1050
11275TIP3    H155240   6.086   3.279   3.842  0.7267 -0.5724  0.0109
11275TIP3    H255241   6.109   3.377   3.955 -1.0500 -1.1227  0.8641
11276TIP3   OH255242   1.966   4.159  14.707 -0.2104  0.0305 -0.1157
11276TIP3    H155243   1.956   4.253  14.716 -0.0009  0.1345 -0.9671
11276TIP3    H255244   1.880   4.124  14.732 -0.3365  0.4566  0.0501
11277TIP3   OH255245   4.184   4.976   5.131 -0.0903 -0.1044 -0.0720
11277TIP3    H155246   4.194   5.045   5.197 -0.3099  0.8550 -1.0197
11277TIP3    H255247   4.212   5.017   5.049 -2.1632 -0.4675 -1.0135
11278TIP3   OH255248   2.604   4.293  13.210 -0.1493  0.1807  0.0033
11278TIP3    H155249   2.568   4.263  13.126  0.0733  1.0221 -0.4005
11278TIP3    H255250   2.642   4.214  13.249 -1.3062 -0.4714 -0.1354
11279TIP3   OH255251   5.617   4.841   4.386 -0.1022  0.1892  0.5500
11279TIP3    H155252   5.570   4.786   4.448  3.1710 -0.7454  2.3155
11279TIP3    H255253   5.578   4.928   4.397 -2.8064 -0.9670  0.3972
11280TIP3   OH255254   4.789   6.288  15.003  0.2395  0.1721 -0.3435
11280TIP3    H155255   4.771   6.236  14.925 -1.6143 -1.6280  1.2141
11280TIP3    H255256   4.712   6.344  15.013 -0.1394 -0.5560  0.9219
11281TIP3   OH255257   2.304   5.477  13.849  0.1798  0.7145  0.3361
11281TIP3    H155258   2.360   5.552  13.834  3.5020 -1.5540  0.8221
11281TIP3    H255259   2.311   5.425  13.769 -0.6755  0.0659  0.6701
11282TIP3   OH255260   6.039   5.193   0.847  0.4724 -0.0584 -0.2098
11282TIP3    H155261   5.975   5.263   0.831  1.4165  0.8931  0.1185
11282TIP3    H255262   6.088   5.186   0.765  0.7702  0.0677 -0.0410
11283TIP3   OH255263   3.580   3.680   1.402  0.1827 -0.2189  0.4060
11283TIP3    H155264   3.535   3.742   1.344  0.9071  0.0877  0.1551
11283TIP3    H255265   3.638   3.735   1.454 -0.1252 -0.5506  1.1011
11284TIP3   OH255266   4.129   6.093  15.750 -0.2411  0.1171  0.4800
11284TIP3    H155267   4.179   6.097  15.668 -1.6573  0.3822 -0.4026
11284TIP3    H255268   4.070   6.018  15.738  0.6238 -0.8120  1.9129
11285TIP3   OH255269   4.072   6.088   1.146 -0.0294  0.3195  0.0020
11285TIP3    H155270   4.122   6.167   1.125  0.2466  0.2750  0.4894
11285TIP3    H255271   4.086   6.030   1.071  1.6014 -0.1550  0.6563
11286TIP3   OH255272   4.839   1.841  14.502 -0.1711  0.0416  0.6282
11286TIP3    H155273   4.878   1.912  14.552  0.4650 -0.4660  0.8634
11286TIP3    H255274   4.808   1.779  14.568 -2.4093  0.9548  0.4909
11287TIP3   OH255275   0.397   3.019   2.224 -0.0679 -0.0748 -0.2320
11287TIP3    H155276   0.314   3.018   2.272 -1.0697 -1.8691 -1.9363
11287TIP3    H255277   0.440   2.937   2.249  0.1004 -0.2862 -1.1809
11288TIP3   OH255278   3.316   4.218  12.571 -0.7277 -0.1259  0.3146
11288TIP3    H155279   3.231   4.246  12.607 -0.8183 -1.1556  0.8973
11288TIP3    H255280   3.294   4.176  12.488 -0.9356 -1.6470  1.1195
11289TIP3   OH255281   0.862   1.889  13.801 -0.0606  0.6380 -0.7151
11289TIP3    H155282   0.836   1.977  13.829  0.4130  1.4885 -2.7996
11289TIP3    H255283   0.957   1.896  13.788  0.1982 -0.5846  0.4610
11290TIP3   OH255284   5.064   2.234   4.475  0.2668  0.0315  0.0440
11290TIP3    H155285   5.080   2.141   4.487 -0.7148 -0.1628 -0.1267
11290TIP3    H255286   4.990   2.254   4.532  2.2880  1.3326  2.2896
11291TIP3   OH255287   0.172   3.647  12.381  0.0663  0.0784 -0.1271
11291TIP3    H155288   0.205   3.618  12.296  0.5738 -1.6603  0.6295
11291TIP3    H255289   0.111   3.578  12.408 -0.0798  0.6037  0.9272
11292TIP3   OH255290   5.837   6.048   1.434 -0.2161  0.1629  0.2818
11292TIP3    H155291   5.772   6.071   1.500 -1.9046 -0.1095 -1.2547
11292TIP3    H255292   5.921   6.056   1.479 -1.2706  1.1262  2.1189
11293TIP3   OH255293   1.659   1.730  15.414  0.9774  0.2663  0.2721
11293TIP3    H155294   1.710   1.802  15.451  0.2653  0.9176 -0.0036
11293TIP3    H255295   1.583   1.772  15.375  0.3674 -0.6691  0.4368
11294TIP3   OH255296   6.427   4.877  11.066 -0.6063  0.3843  0.3229
11294TIP3    H155297   6.444   4.835  10.982 -1.3141  1.6519 -0.4653
11294TIP3    H255298   6.421   4.804  11.129 -0.0528 -0.5586 -0.7062
11295TIP3   OH255299   5.097   1.182   4.639 -0.3898  0.0967  0.0100
11295TIP3    H155300   5.128   1.131   4.564  0.2640 -0.3696  0.5981
11295TIP3    H255301   5.013   1.218   4.610 -0.2974 -0.3478 -0.8269
11296TIP3   OH255302   6.193   0.206   2.839 -0.5155 -0.3517  0.6463
11296TIP3    H155303   6.227   0.124   2.874 -0.6246  0.5443  2.8994
11296TIP3    H255304   6.269   0.265   2.835 -0.4633 -0.4876 -0.8350
11297TIP3   OH255305   4.707   5.356   2.636 -0.4180 -0.0439 -0.0883
11297TIP3    H155306   4.641   5.348   2.704 -0.8606 -0.1801 -0.5321
11297TIP3    H255307   4.669   5.417   2.573  0.4049  0.8694  0.2801
11298TIP3   OH255308   0.201   5.620  10.620  0.4272  0.5785  0.5026
11298TIP3    H155309   0.169   5.632  10.530 -1.0018 -1.3590  0.7250
11298TIP3    H255310   0.288   5.660  10.620  0.3317  0.8367 -1.6745
11299TIP3   OH255311   2.761   1.047   3.654  0.3978  0.0326 -0.6026
11299TIP3    H155312   2.788   1.127   3.609  2.5309 -1.3741 -1.9287
11299TIP3    H255313   2.768   1.067   3.747  0.3365  1.5576 -0.9177
11300TIP3   OH255314   6.406   5.437  10.601 -0.1297  0.5348 -0.0440
11300TIP3    H155315   6.460   5.498  10.550  0.6542 -0.0504  0.0750
11300TIP3    H255316   6.382   5.486  10.679  0.2315  0.7969 -0.0988
11301TIP3   OH255317   1.523   3.362   4.540  0.0092 -0.0466  0.0184
11301TIP3    H155318   1.484   3.293   4.594  0.2705 -0.5345 -0.4037
11301TIP3    H255319   1.586   3.404   4.598  1.5296 -1.6866 -0.3830
11302TIP3   OH255320   5.865   0.742  16.216 -0.1172 -0.1342  0.0979
11302TIP3    H155321   5.790   0.684  16.220  0.7230 -1.3159 -0.8026
11302TIP3    H255322   5.903   0.726  16.129  1.3342  0.2124  0.6483
11303TIP3   OH255323   2.489   5.230  10.893 -0.2110 -0.6907 -0.2893
11303TIP3    H155324   2.549   5.201  10.962 -0.2098  0.0715  0.0305
11303TIP3    H255325   2.505   5.169  10.820  2.6656  0.9095 -1.0907
11304TIP3   OH255326   3.814   6.643   3.953  0.4558  0.0311 -0.2699
11304TIP3    H155327   3.861   6.720   3.984  1.2114 -0.1458 -0.9449
11304TIP3    H255328   3.744   6.630   4.016  0.3026  1.2947 -0.1763
11305TIP3   OH255329   1.336   4.913   5.097 -0.5353 -0.2523 -0.2684
11305TIP3    H155330   1.401   4.925   5.166 -1.3640 -0.4789  0.5554
11305TIP3    H255331   1.343   4.993   5.044 -0.3796  0.2389  0.4790
11306TIP3   OH255332   0.442   1.026  15.091  1.1416  0.1964  0.0532
11306TIP3    H155333   0.349   1.019  15.111  0.7016  3.7744 -0.4740
11306TIP3    H255334   0.486   0.988  15.167 -0.7189 -0.2418  0.9214
11307TIP3   OH255335   5.385   6.581   3.291  0.2492  0.2175 -0.1649
11307TIP3    H155336   5.365   6.600   3.200  0.2280 -0.6654 -0.3495
11307TIP3    H255337   5.474   6.544   3.289 -0.1139 -0.6741  0.0640
11308TIP3   OH255338   4.545   6.713  11.866 -0.0564  0.2757 -0.3070
11308TIP3    H155339   4.450   6.701  11.870 -0.0318 -0.0769 -0.7854
11308TIP3    H255340   4.561   6.755  11.781  0.4901 -2.3212 -1.5228
11309TIP3   OH255341   4.655   2.775  12.105  1.0627  0.1358 -0.0334
11309TIP3    H155342   4.599   2.704  12.074 -0.8341  1.0063  1.3188
11309TIP3    H255343   4.728   2.730  12.149  2.3763 -1.0325 -3.2478
11310TIP3   OH255344   5.194   3.734   4.394  1.0134  0.5863  0.0622
11310TIP3    H155345   5.277   3.688   4.393 -1.3899 -4.0101  1.0731
11310TIP3    H255346   5.172   3.741   4.487  0.0945  1.4773 -0.2150
11311TIP3   OH255347   2.841   3.409   0.778 -0.2163  0.4805 -0.2038
11311TIP3    H155348   2.765   3.370   0.735 -0.3512  0.3391  0.1659
11311TIP3    H255349   2.804   3.463   0.848  0.0006  0.7891 -0.3266
11312TIP3   OH255350   1.012   5.400  11.050  0.4345 -0.3288 -0.1402
11312TIP3    H155351   0.930   5.403  11.100  1.0822 -0.8274  0.9559
11312TIP3    H255352   1.040   5.309  11.056  1.2034 -0.1030 -0.3227
11313TIP3   OH255353   0.811   0.761  11.137  0.2065 -0.2354 -0.5237
11313TIP3    H155354   0.855   0.808  11.066  0.7064 -0.9177 -0.6657
11313TIP3    H255355   0.822   0.818  11.214 -1.0452  0.8990 -1.1569
11314TIP3   OH255356   5.891   3.496   2.756  0.0579  0.2870 -0.4629
11314TIP3    H155357   5.840   3.416   2.744  0.1611  0.2048 -0.3592
11314TIP3    H255358   5.837   3.565   2.718 -1.0571  0.5107  1.4662
11315TIP3   OH255359   5.934   5.167  15.126 -0.2597 -0.3208  0.3869
11315TIP3    H155360   5.865   5.146  15.189 -1.7269 -1.3634 -1.5379
11315TIP3    H255361   5.989   5.088  15.124  0.0949 -0.0862  0.7440
11316TIP3   OH255362   3.863   3.688   3.132  0.1528  0.3678 -0.4561
11316TIP3    H155363   3.863   3.716   3.040  0.2485  1.6574 -0.0790
11316TIP3    H255364   3.935   3.736   3.171  1.4257 -1.7569 -0.1472
11317TIP3   OH255365   4.917   1.782   3.528 -0.2131  0.3382  0.3695
11317TIP3    H155366   4.831   1.741   3.543 -0.9816  0.5021 -3.1204
11317TIP3    H255367   4.912   1.866   3.573 -2.3303  0.7897 -0.6224
11318TIP3   OH255368   0.510   2.440   5.538 -0.2760  0.0639  0.4771
11318TIP3    H155369   0.446   2.468   5.603 -0.4920 -0.2075  0.3804
11318TIP3    H255370   0.478   2.475   5.455 -0.3879 -0.2144  0.4032
11319TIP3   OH255371   5.274   1.955  13.718 -0.1782 -0.0258  0.9113
11319TIP3    H155372   5.306   1.920  13.636  0.0980  2.2139  0.0304
11319TIP3    H255373   5.180   1.934  13.719 -0.4652  1.1084 -0.6212
11320TIP3   OH255374   4.398   4.954  14.345  0.1933  0.2539  0.2395
11320TIP3    H155375   4.305   4.930  14.345 -0.1354  1.5191 -0.0615
11320TIP3    H255376   4.433   4.908  14.422 -0.5057 -0.8333 -0.0667
11321TIP3   OH255377   4.650   3.902  13.680  0.6718 -0.3136  0.2808
11321TIP3    H155378   4.701   3.903  13.761  1.1734 -0.5060 -0.0313
11321TIP3    H255379   4.713   3.926  13.612  0.4818 -1.1506 -0.1896
11322TIP3   OH255380   4.890   6.379   2.066 -0.0059 -0.7397  0.3342
11322TIP3    H155381   4.896   6.304   2.008  0.2446  0.3419 -1.0579
11322TIP3    H255382   4.797   6.395   2.076 -0.0686  1.3837 -2.8598
11323TIP3   OH255383   2.632   4.857  17.069  0.1125  0.0209 -0.3276
11323TIP3    H155384   2.667   4.931  17.018 -0.7319  0.3768 -0.4033
11323TIP3    H255385   2.556   4.894  17.115 -1.2505 -1.1874 -1.5648
11324TIP3   OH255386   0.427   6.246   1.296  0.2159 -0.5703  0.5931
11324TIP3    H155387   0.338   6.258   1.263  0.7228 -0.3969 -0.7597
11324TIP3    H255388   0.431   6.154   1.323 -0.2149 -0.7238  0.1407
11325TIP3   OH255389   0.857   5.329   0.188  0.4902  0.0531  0.1698
11325TIP3    H155390   0.945   5.360   0.169  0.4060 -0.3358 -0.8918
11325TIP3    H255391   0.859   5.236   0.166 -0.3346  0.1636 -0.3938
11326TIP3   OH255392   4.958   3.179   6.005  0.0635 -0.0352 -0.2124
11326TIP3    H155393   4.980   3.251   5.946  0.3663  0.1511  0.1252
11326TIP3    H255394   4.862   3.175   6.002  0.0182  0.6638  0.0920
11327TIP3   OH255395   5.848   1.644  11.670 -0.2019  0.3955 -0.5866
11327TIP3    H155396   5.806   1.562  11.644 -1.6921  1.2570 -0.9662
11327TIP3    H255397   5.821   1.707  11.602  0.5151  1.3065 -0.0328
11328TIP3   OH255398   2.153   2.514   2.334 -0.2390 -0.0526 -0.9882
11328TIP3    H155399   2.219   2.584   2.338  0.4056 -0.7085  0.7149
11328TIP3    H255400   2.195   2.444   2.285  0.0818 -0.2062 -0.4987
11329TIP3   OH255401   0.335   3.127   4.207 -0.3629 -0.1622  0.4169
11329TIP3    H155402   0.344   3.217   4.238  0.4419 -0.7912  2.0886
11329TIP3    H255403   0.341   3.133   4.112  1.9794  1.2865  0.6348
11330TIP3   OH255404   6.711   1.700  15.390 -0.0090 -0.0902  0.2212
11330TIP3    H155405   6.714   1.648  15.310  0.6949  1.0650 -0.5154
11330TIP3    H255406   6.638   1.663  15.440 -1.3844  0.1073 -1.5951
11331TIP3   OH255407   2.608   0.282   5.840  0.0706 -0.1504 -0.5807
11331TIP3    H155408   2.603   0.356   5.900 -1.0098  0.3740 -1.3056
11331TIP3    H255409   2.525   0.235   5.851  0.3427 -0.6991 -0.8336
11332TIP3   OH255410   5.434   1.601  16.332  0.3495  0.0281 -0.8740
11332TIP3    H155411   5.450   1.665  16.401 -0.1467 -0.5285 -0.2363
11332TIP3    H255412   5.431   1.517  16.377 -0.2469 -0.3102 -1.5287
11333TIP3   OH255413   1.509   5.461  13.265 -0.2415  0.4323 -0.7949
11333TIP3    H155414   1.577   5.527  13.277 -0.8933  1.0781 -0.6835
11333TIP3    H255415   1.469   5.451  13.352  0.7755 -1.1198 -0.4734
11334TIP3   OH255416   5.724   0.017   5.789  0.3397 -0.0913 -0.2460
11334TIP3    H155417   5.777  -0.024   5.857 -0.5538  0.6523  0.9122
11334TIP3    H255418   5.727   0.110   5.809  0.6832  0.2175 -1.6724
11335TIP3   OH255419   0.754   5.547  17.008 -0.0161 -0.8088  0.1228
11335TIP3    H155420   0.715   5.619  17.058 -1.7753 -1.4854 -0.2698
11335TIP3    H255421   0.729   5.468  17.056  1.4285 -1.2129  0.2303
11336TIP3   OH255422   2.204   0.242   5.452  0.0387  0.1704  0.0527
11336TIP3    H155423   2.240   0.157   5.479 -0.6635  0.2473  1.2816
11336TIP3    H255424   2.220   0.246   5.358 -0.8068 -1.7710 -0.1975
11337TIP3   OH255425   6.297   6.698  15.512 -0.2083 -0.3217  0.4938
11337TIP3    H155426   6.295   6.651  15.596 -1.0167 -1.9522 -0.4119
11337TIP3    H255427   6.205   6.709  15.489  0.0065  0.5226  0.0259
11338TIP3   OH255428   6.041   0.630  14.041  0.2728  0.1560 -0.3297
11338TIP3    H155429   6.054   0.589  14.127 -0.2006  2.9994  1.1561
11338TIP3    H255430   6.118   0.686  14.029  0.6086 -0.6593 -2.0272
11339TIP3   OH255431   5.571   6.310  15.436  0.0729 -0.2692  0.4199
11339TIP3    H155432   5.570   6.230  15.382  1.1043  0.9095 -1.4078
11339TIP3    H255433   5.496   6.360  15.406  0.0182 -0.0925  0.8519
11340TIP3   OH255434   0.061   2.534  16.553 -0.0271 -0.2780  0.0191
11340TIP3    H155435  -0.024   2.493  16.539  0.4108 -0.7825 -1.2666
11340TIP3    H255436   0.118   2.492  16.489  0.8720  1.0044 -0.0324
11341TIP3   OH255437   0.004   2.368   5.473  0.1233 -0.4025  0.3718
11341TIP3    H155438  -0.047   2.300   5.516  0.5493  0.1036  1.6859
11341TIP3    H255439  -0.060   2.433   5.445 -0.3907 -1.7151 -1.6643
11342TIP3   OH255440   4.477   4.867   4.378 -0.1592 -0.8316 -0.2377
11342TIP3    H155441   4.428   4.793   4.413  1.5151 -1.9698 -0.2398
11342TIP3    H255442   4.568   4.849   4.401  0.3472  0.9439 -0.7477
11343TIP3   OH255443   6.381   1.148   1.262 -0.4756  0.1390  0.1922
11343TIP3    H155444   6.458   1.176   1.213  0.7902  1.0082  2.5811
11343TIP3    H255445   6.313   1.212   1.241  0.3499  1.0636  0.3112
11344TIP3   OH255446   0.171   5.750   4.993  0.2029 -0.1339  0.2620
11344TIP3    H155447   0.190   5.664   5.030  1.5065  0.7353  1.7232
11344TIP3    H255448   0.188   5.740   4.899 -1.5475 -1.9556  0.1053
11345TIP3   OH255449   0.048   1.386   5.760 -0.2594  0.5934  0.8123
11345TIP3    H155450  -0.036   1.390   5.807 -0.1345  1.2738  0.9765
11345TIP3    H255451   0.036   1.315   5.697 -1.5799  1.7981 -0.3514
11346TIP3   OH255452   3.483   5.945   3.208  0.4430  0.5053 -0.1259
11346TIP3    H155453   3.503   6.034   3.179  0.4881  0.5890  0.1602
11346TIP3    H255454   3.568   5.908   3.232  0.5967 -0.0977 -1.6002
11347TIP3   OH255455   3.320   2.090  15.044  0.2057  0.0571 -0.8250
11347TIP3    H155456   3.281   2.159  14.990  0.7266  0.4171 -0.7459
11347TIP3    H255457   3.406   2.124  15.067  0.6298 -0.8064 -1.1373
11348TIP3   OH255458   0.079   0.515  14.323  0.2356  0.2969  0.0629
11348TIP3    H155459   0.121   0.430  14.340 -1.9694 -1.2216 -1.7665
11348TIP3    H255460   0.038   0.538  14.407  1.8786  0.1878  0.9226
11349TIP3   OH255461   0.963   5.966  15.744 -0.6156 -0.0126 -0.4909
11349TIP3    H155462   0.869   5.961  15.727 -1.3689  2.3055  2.3920
11349TIP3    H255463   0.989   6.051  15.709  0.2024 -0.2422 -0.4419
11350TIP3   OH255464   5.369   1.655   3.816 -0.4726  0.4492  0.0519
11350TIP3    H155465   5.414   1.708   3.882 -1.0402  0.7651  0.1937
11350TIP3    H255466   5.426   1.580   3.802  1.2209  1.9918 -1.4736
11351TIP3   OH255467   6.542   0.071  14.712  0.0627 -0.0425 -0.3253
11351TIP3    H155468   6.536  -0.014  14.669 -1.1104  0.1138 -0.4851
11351TIP3    H255469   6.459   0.080  14.758  1.1735 -0.0856  1.7463
11352TIP3   OH255470   4.579   4.622   0.265 -0.2118  0.2406 -0.0151
11352TIP3    H155471   4.658   4.659   0.306  0.1494  0.0050 -0.4900
11352TIP3    H255472   4.577   4.662   0.178  0.4251 -1.1860 -0.6952
11353TIP3   OH255473   0.882   5.004  15.079  0.3970  0.5482 -0.4624
11353TIP3    H155474   0.897   5.082  15.132  0.0975  0.0729  0.3166
11353TIP3    H255475   0.812   5.030  15.019 -2.1722 -0.2051  2.1153
11354TIP3   OH255476   5.942   5.395   5.477 -0.1792  0.1609  0.3096
11354TIP3    H155477   5.910   5.458   5.542 -0.5679 -1.5758  1.8470
11354TIP3    H255478   5.864   5.364   5.432 -0.4379 -2.0352  2.1852
11355TIP3   OH255479   6.430   0.658  14.403  0.3669 -0.2257 -0.0696
11355TIP3    H155480   6.367   0.721  14.369  1.3799  0.6632 -0.3311
11355TIP3    H255481   6.422   0.664  14.498 -0.5763 -0.7699 -0.1154
11356TIP3   OH255482   3.634   5.238   1.835  0.5266  0.2398  0.1089
11356TIP3    H155483   3.618   5.247   1.741  2.0127 -0.6358 -0.2419
11356TIP3    H255484   3.728   5.252   1.845  0.7472 -1.8483  1.1762
11357TIP3   OH255485   1.219   4.727   1.137  0.3371  0.0997  0.3111
11357TIP3    H155486   1.201   4.819   1.120  0.2807  0.0030 -0.1513
11357TIP3    H255487   1.275   4.699   1.065  2.5561  0.4519  1.8381
11358TIP3   OH255488   2.916   6.376  16.987 -0.8630 -0.2200 -0.2613
11358TIP3    H155489   2.940   6.287  16.960 -0.1263 -0.6777  1.8325
11358TIP3    H255490   2.921   6.427  16.906  1.8145 -1.4350 -0.9216
11359TIP3   OH255491   1.470   3.813   5.747  0.5873  0.6052 -0.5367
11359TIP3    H155492   1.405   3.747   5.722  2.3244 -0.6802 -1.7114
11359TIP3    H255493   1.440   3.893   5.704 -0.8409  0.3155 -0.1184
11360TIP3   OH255494   2.792   4.436  14.673  0.3909  0.4765 -0.0876
11360TIP3    H155495   2.820   4.526  14.657  0.0646  0.5403 -0.2948
11360TIP3    H255496   2.705   4.430  14.635  0.4347  0.0555 -0.1281
11361TIP3   OH255497   5.996   0.346   1.836 -0.3975  0.3146 -0.4828
11361TIP3    H155498   6.088   0.360   1.813  0.1177  0.1804  1.4272
11361TIP3    H255499   5.958   0.434   1.838  0.0095  0.4822  0.0058
11362TIP3   OH255500   1.997   5.539  12.364 -0.3380  0.0536 -0.0305
11362TIP3    H155501   2.087   5.533  12.398 -0.0992  1.4979 -0.4004
11362TIP3    H255502   1.956   5.607  12.416 -0.5034  1.0429 -1.4399
11363TIP3   OH255503   0.305   5.365   1.455  0.2587  0.7543  0.1633
11363TIP3    H155504   0.328   5.294   1.514 -0.2682 -0.9699 -1.6728
11363TIP3    H255505   0.381   5.374   1.397 -0.4065  0.4844 -0.7514
11364TIP3   OH255506   4.465   2.239   4.556  0.3979 -0.1010  0.2513
11364TIP3    H155507   4.410   2.190   4.617  0.3327  0.5318  0.7053
11364TIP3    H255508   4.550   2.195   4.560 -0.2469 -1.5338 -0.9955
11365TIP3   OH255509   0.278   1.651   1.971 -0.0627 -0.7294  0.0565
11365TIP3    H155510   0.282   1.619   1.881 -1.8371  0.7702 -0.5755
11365TIP3    H255511   0.254   1.743   1.963 -0.1932 -0.5646  2.0670
11366TIP3   OH255512   2.499   4.723   5.140  0.4111 -0.0897  0.2511
11366TIP3    H155513   2.557   4.736   5.065 -0.8795 -0.7136 -0.8822
11366TIP3    H255514   2.481   4.811   5.173  1.7900  0.1189  0.4428
11367TIP3   OH255515   2.918   0.928  13.385  0.1811  0.1124 -0.0830
11367TIP3    H155516   2.845   0.877  13.420  0.7130 -1.1914 -0.8141
11367TIP3    H255517   2.963   0.962  13.462  0.8285 -1.9731  0.5061
11368TIP3   OH255518   0.820   1.250   3.446  0.6337  0.2268  0.0214
11368TIP3    H155519   0.737   1.262   3.400  1.0400 -0.9992 -1.0470
11368TIP3    H255520   0.823   1.323   3.509 -1.5246 -0.0663  0.4981
11369TIP3   OH255521   1.749   4.317   5.669 -0.0155  0.2812  0.0626
11369TIP3    H155522   1.844   4.313   5.679 -0.2740 -1.2264  2.4126
11369TIP3    H255523   1.727   4.408   5.689  0.9073  0.5967 -0.3327
11370TIP3   OH255524   5.322   0.249  14.688  0.0124 -0.3558 -0.0179
11370TIP3    H155525   5.404   0.206  14.714  0.2468 -0.0947 -0.3146
11370TIP3    H255526   5.322   0.243  14.592  0.9892  2.0004 -0.1972
11371TIP3   OH255527   3.660   4.239  12.756  0.2809  0.4036  0.3776
11371TIP3    H155528   3.754   4.230  12.742  0.8471  2.4601  2.3895
11371TIP3    H255529   3.647   4.333  12.769 -2.2815  0.3233 -1.2852
11372TIP3   OH255530   0.221   5.265  14.086  0.2977 -0.5895  0.3724
11372TIP3    H155531   0.223   5.178  14.046 -0.4548  0.0283 -1.0642
11372TIP3    H255532   0.128   5.287  14.091  0.4505 -0.1686  1.4113
11373TIP3   OH255533   2.331   4.954   5.095 -0.0483  0.2111  0.5332
11373TIP3    H155534   2.370   5.018   5.035 -2.5601  2.4484  1.1596
11373TIP3    H255535   2.264   4.911   5.042  0.0846 -0.2681  0.7606
11374TIP3   OH255536   0.765   0.675   4.332  0.0861 -0.2455  0.0502
11374TIP3    H155537   0.790   0.584   4.316  1.3048 -0.1944  1.5773
11374TIP3    H255538   0.842   0.715   4.372 -0.7175  1.2517  0.1562
11375TIP3   OH255539   5.810   5.139   0.541  0.1422 -0.5960  0.0375
11375TIP3    H155540   5.862   5.103   0.469  0.5017 -0.2925  0.1444
11375TIP3    H255541   5.860   5.215   0.572 -0.3928 -0.2633  0.1003
11376TIP3   OH255542   1.342   3.545   2.086 -0.3056  0.5760 -0.0801
11376TIP3    H155543   1.386   3.476   2.136 -1.7376  0.2298  0.7227
11376TIP3    H255544   1.281   3.499   2.029 -0.5778  1.1210 -0.2366
11377TIP3   OH255545   1.559   4.128  13.955  0.2372 -0.3006  0.2258
11377TIP3    H155546   1.518   4.042  13.948 -0.1418 -0.1251  0.2782
11377TIP3    H255547   1.539   4.156  14.044 -1.1757  0.6195 -0.3744
11378TIP3   OH255548   3.556   5.775   4.435  0.6739 -0.0805  0.4430
11378TIP3    H155549   3.603   5.697   4.405  1.5228 -0.3053  2.2812
11378TIP3    H255550   3.475   5.741   4.472  0.4067  0.0418 -0.0276
11379TIP3   OH255551   5.329   2.524  13.262 -0.0596  0.1385 -0.2259
11379TIP3    H155552   5.295   2.614  13.259 -1.2431 -0.3314 -2.3605
11379TIP3    H255553   5.252   2.470  13.243  0.9598 -1.2395 -0.4455
11380TIP3   OH255554   2.968   5.028   2.491 -0.2515  0.2099  0.2868
11380TIP3    H155555   2.998   5.109   2.449 -0.8737 -0.5875 -1.7480
11380TIP3    H255556   2.960   4.965   2.420 -4.2116 -0.3691  1.1044
11381TIP3   OH255557   2.068   3.532  14.549  0.4039  0.3799 -0.7845
11381TIP3    H155558   2.129   3.549  14.621 -0.9588  1.8478  0.0403
11381TIP3    H255559   2.016   3.458  14.580  0.7798  0.0769 -0.8727
11382TIP3   OH255560   3.371   2.434   2.826  0.2392  0.0936 -0.1611
11382TIP3    H155561   3.333   2.347   2.837  1.8053 -0.7155 -0.9657
11382TIP3    H255562   3.465   2.418   2.818  0.5375  1.8609 -0.3299
11383TIP3   OH255563   6.403   5.636  12.375  0.2504  0.0456  0.2422
11383TIP3    H155564   6.414   5.541  12.370 -2.5031 -0.1803 -2.6860
11383TIP3    H255565   6.351   5.650  12.454 -0.0836 -0.9750  0.2090
11384TIP3   OH255566   3.247   1.469  16.443  0.2400 -0.0632  0.1174
11384TIP3    H155567   3.167   1.467  16.391 -1.2125  0.6092  2.2781
11384TIP3    H255568   3.247   1.555  16.486  2.7190  0.4285 -0.7437
11385TIP3   OH255569   1.844   6.171  14.625 -0.0468 -0.2096  0.0163
11385TIP3    H155570   1.921   6.115  14.616 -0.5296 -0.6160 -1.6819
11385TIP3    H255571   1.786   6.123  14.684  1.1383  0.2717  1.6169
11386TIP3   OH255572   1.738   1.874   5.764  0.1767  0.2610 -0.3401
11386TIP3    H155573   1.724   1.967   5.784 -2.3193 -0.0426 -0.4953
11386TIP3    H255574   1.744   1.832   5.850  0.5181  0.4631 -0.2651
11387TIP3   OH255575   2.968   3.557   1.959 -0.2899  0.1166 -0.1783
11387TIP3    H155576   2.876   3.544   1.980 -0.5269  0.2696 -1.0699
11387TIP3    H255577   2.986   3.647   1.984 -0.7210  0.4793 -1.1294
11388TIP3   OH255578   3.189   6.309  13.368  0.0862  0.0557  0.9452
11388TIP3    H155579   3.129   6.257  13.314 -0.4256  0.2895  1.2918
11388TIP3    H255580   3.179   6.398  13.336 -0.4050  0.2366  1.5930
11389TIP3   OH255581   4.833   3.846  16.363 -0.2313  0.0339 -0.8496
11389TIP3    H155582   4.761   3.903  16.391 -1.4876 -2.0182  0.1963
11389TIP3    H255583   4.891   3.842  16.440 -0.4436 -0.5378 -0.7131
11390TIP3   OH255584   6.383   2.790  15.645 -0.6216  0.5471  0.6553
11390TIP3    H155585   6.477   2.804  15.653 -0.6785  0.8293  0.8705
11390TIP3    H255586   6.346   2.839  15.718 -1.0224  1.4586 -0.1510
11391TIP3   OH255587   1.068   3.293   2.240 -0.1191  0.1566 -0.2846
11391TIP3    H155588   1.122   3.323   2.314  0.3391 -0.8894 -0.1901
11391TIP3    H255589   1.052   3.201   2.258 -0.8631  0.1449 -0.9816
11392TIP3   OH255590   6.244   5.698  15.845 -0.9329  0.2227 -0.0013
11392TIP3    H155591   6.276   5.671  15.759  0.1076 -0.5608  0.6269
11392TIP3    H255592   6.197   5.780  15.828 -1.0860 -0.1342 -1.3720
11393TIP3   OH255593   2.451   4.767   2.546  0.7421  0.1605  0.0365
11393TIP3    H155594   2.389   4.705   2.587  1.4747  0.5716  1.8275
11393TIP3    H255595   2.396   4.838   2.515  0.1764 -0.0267  0.5834
11394TIP3   OH255596   4.923   1.629   1.766  0.9780 -0.7104  0.1474
11394TIP3    H155597   4.939   1.542   1.801  0.3086 -0.7762  0.2895
11394TIP3    H255598   4.828   1.640   1.769  1.1890  0.7798  1.9566
11395TIP3   OH255599   4.838   3.930  10.520 -0.4597 -0.3712 -0.0963
11395TIP3    H155600   4.820   3.838  10.500  0.5108 -0.5282 -0.3110
11395TIP3    H255601   4.926   3.945  10.485 -0.3276  0.4519  0.5659
11396TIP3   OH255602   4.026   5.936  17.032  0.0962  0.0464  0.5276
11396TIP3    H155603   4.074   5.874  16.978  1.8776 -0.0996  2.2127
11396TIP3    H255604   4.082   6.013  17.037  0.6727 -0.5038  3.3440
11397TIP3   OH255605   3.699   2.137  13.279 -0.8331 -0.2380  0.0204
11397TIP3    H155606   3.740   2.191  13.212 -1.3079  0.4529  0.2835
11397TIP3    H255607   3.773   2.104  13.332 -0.6615  1.9264  1.1937
11398TIP3   OH255608   3.377   5.891  12.082 -0.5942 -0.9328  0.9103
11398TIP3    H155609   3.318   5.830  12.038 -2.0696  0.8357  0.3919
11398TIP3    H255610   3.437   5.920  12.014 -1.1704 -0.2587  0.6912
11399TIP3   OH255611   1.671   3.685   0.837 -0.5853  0.7350 -0.0991
11399TIP3    H155612   1.650   3.754   0.774  1.3097 -0.3046 -1.9568
11399TIP3    H255613   1.686   3.607   0.782  1.4506 -0.1170  1.5939
11400TIP3   OH255614   5.863   1.195  15.385  0.0930  0.0014 -0.4039
11400TIP3    H155615   5.884   1.288  15.381 -0.5804  0.1501 -0.5609
11400TIP3    H255616   5.931   1.152  15.334 -0.1406  0.5000 -1.1441
11401TIP3   OH255617   2.821   2.506  13.432  0.2747 -0.4855 -0.2768
11401TIP3    H155618   2.734   2.501  13.392 -1.0120  1.9325  2.0875
11401TIP3    H255619   2.879   2.529  13.360 -1.2091 -0.9695 -1.6639
11402TIP3   OH255620   5.404   2.952  15.285 -0.0267 -0.4690 -0.4642
11402TIP3    H155621   5.461   2.976  15.358 -0.2290 -0.4188 -0.3217
11402TIP3    H255622   5.429   3.011  15.214  0.1786 -0.5259 -0.4382
11403TIP3   OH255623   3.009   3.309  12.110  0.0608 -0.1317 -0.0763
11403TIP3    H155624   2.942   3.290  12.176 -0.6695  0.2162 -0.7148
11403TIP3    H255625   3.092   3.290  12.155 -0.3611  1.3612  1.3912
11404TIP3   OH255626   1.237   3.361  13.464 -0.5057  0.2277  0.2914
11404TIP3    H155627   1.218   3.439  13.517 -1.6943 -0.0076  0.2317
11404TIP3    H255628   1.313   3.322  13.506  1.0291  2.2290 -0.5594
11405TIP3   OH255629   0.544   3.948  13.101 -0.4709  0.1182 -0.8386
11405TIP3    H155630   0.634   3.936  13.132 -1.4390  0.9478  2.4364
11405TIP3    H255631   0.554   3.968  13.008  2.8325  1.6032 -0.2431
11406TIP3   OH255632   5.892   5.229   4.739  0.6884 -0.4032  0.6922
11406TIP3    H155633   5.813   5.178   4.719 -0.2952  0.5136  2.1006
11406TIP3    H255634   5.892   5.236   4.835  0.7403  2.2871  0.5298
11407TIP3   OH255635   6.592   2.050   1.162  0.1056 -0.1198  0.5563
11407TIP3    H155636   6.671   2.078   1.208 -1.1664  0.9130  2.1810
11407TIP3    H255637   6.546   2.131   1.141 -0.9702 -0.7320  0.4665
11408TIP3   OH255638   4.965   1.458  15.006 -0.1078 -0.8059  0.1727
11408TIP3    H155639   5.044   1.423  14.963 -1.1206 -2.1790 -0.6068
11408TIP3    H255640   4.893   1.429  14.950 -1.1943  0.1537  1.0674
11409TIP3   OH255641   2.253   5.027  14.732 -0.1182 -0.4900 -0.2344
11409TIP3    H155642   2.200   5.050  14.808 -0.9946  0.0428 -1.0004
11409TIP3    H255643   2.190   5.001  14.665  0.6829 -1.7463 -0.5220
11410TIP3   OH255644   4.829   5.232   2.426 -0.2824  0.4420 -0.4331
11410TIP3    H155645   4.761   5.268   2.482 -1.3095 -1.4977 -0.3976
11410TIP3    H255646   4.911   5.254   2.471 -1.0474 -0.2831  1.3477
11411TIP3   OH255647   2.748   6.634   4.383  0.2759  0.6244 -1.0752
11411TIP3    H155648   2.830   6.585   4.387  0.3504  0.7362 -1.2281
11411TIP3    H255649   2.729   6.642   4.290 -1.3550 -1.8060 -0.9978
11412TIP3   OH255650   6.052   3.454  16.972 -0.0592  0.0525  0.4219
11412TIP3    H155651   6.020   3.531  17.019 -0.1022  0.5308 -0.3816
11412TIP3    H255652   6.145   3.450  16.995 -0.2085 -0.0657  1.0206
11413TIP3   OH255653   5.848   1.757  14.569 -0.3830 -0.6770  0.4300
11413TIP3    H155654   5.842   1.661  14.566 -0.4734 -0.8231  3.7412
11413TIP3    H255655   5.767   1.787  14.527 -1.0457 -2.0621  0.6700
11414TIP3   OH255656   3.436   0.876   1.288 -0.1267  0.1441 -0.0979
11414TIP3    H155657   3.345   0.845   1.292 -0.0561 -0.0089  0.4621
11414TIP3    H255658   3.469   0.862   1.377 -0.1624  2.0119  0.2385
11415TIP3   OH255659   4.653   2.393  13.861  0.4867 -0.3786  0.1844
11415TIP3    H155660   4.586   2.455  13.891  1.0428  0.7767 -0.8825
11415TIP3    H255661   4.603   2.319  13.826 -0.2367  0.2535 -0.1445
11416TIP3   OH255662   0.427   6.323   3.712  0.0438 -0.0407 -0.0749
11416TIP3    H155663   0.465   6.253   3.659 -0.1969 -0.2673  0.0505
11416TIP3    H255664   0.332   6.314   3.698  0.1009  1.3175 -1.4040
11417TIP3   OH255665   2.029   4.278  15.110 -0.0264  0.0877  0.0055
11417TIP3    H155666   1.967   4.227  15.057  0.7578 -0.8124 -0.0664
11417TIP3    H255667   1.996   4.367  15.106 -0.4829 -0.1278 -1.2700
11418TIP3   OH255668   1.953   1.896  12.442  0.1984 -0.2214  0.1310
11418TIP3    H155669   1.972   1.925  12.531 -0.0673 -0.7760  0.3679
11418TIP3    H255670   2.031   1.922  12.392 -0.2023  1.2582  0.2501
11419TIP3   OH255671   2.614   5.183   2.326 -0.0957 -0.0079  0.0683
11419TIP3    H155672   2.556   5.193   2.250 -0.6708 -1.1177  0.3417
11419TIP3    H255673   2.603   5.264   2.375 -3.2181 -1.0851  1.3046
11420TIP3   OH255674   3.057   1.505  16.203 -0.1068  0.6100 -0.1043
11420TIP3    H155675   3.023   1.430  16.153  3.5548 -2.3137  1.5540
11420TIP3    H255676   2.979   1.548  16.238 -2.3645 -1.7894 -1.9839
11421TIP3   OH255677   3.693   6.534   1.527  0.5477  1.0753 -1.0898
11421TIP3    H155678   3.711   6.502   1.615  0.1962  0.6829 -1.1573
11421TIP3    H255679   3.606   6.500   1.506  1.0844  0.2195 -2.0127
11422TIP3   OH255680   6.558   4.513   4.028  0.6791 -0.0436  0.6334
11422TIP3    H155681   6.554   4.430   4.076  1.4766 -0.2592  0.3462
11422TIP3    H255682   6.634   4.557   4.064  0.8330  0.1296  0.1046
11423TIP3   OH255683   6.556   0.831  13.952  0.6245 -0.1119 -0.2352
11423TIP3    H155684   6.629   0.790  13.906  1.0318  1.6152 -1.1488
11423TIP3    H255685   6.563   0.924  13.930 -2.4604 -0.0740 -1.1635
11424TIP3   OH255686   4.111   2.324  16.350  0.4777 -0.2699  0.3040
11424TIP3    H155687   4.167   2.249  16.372  0.6135 -0.1951  0.2164
11424TIP3    H255688   4.162   2.400  16.377  1.3252 -0.0940 -1.7095
11425TIP3   OH255689   4.929   3.924   5.180  0.0036  0.2258 -0.3066
11425TIP3    H155690   5.016   3.885   5.169 -0.4303 -0.4606 -1.4246
11425TIP3    H255691   4.937   3.978   5.258  1.5537  0.5071 -0.6370
11426TIP3   OH255692   1.975   1.509  11.773  0.6932  0.6032 -0.2686
11426TIP3    H155693   2.034   1.581  11.798  0.6978  0.7044 -0.5712
11426TIP3    H255694   2.030   1.431  11.776  0.8663  0.7094 -0.6330
11427TIP3   OH255695   5.717   3.568   3.238  0.0329  0.0437  0.2111
11427TIP3    H155696   5.717   3.489   3.184  0.8536  1.1543 -1.4461
11427TIP3    H255697   5.630   3.571   3.277 -0.1008 -1.5226  0.0781
11428TIP3   OH255698   4.492   3.698   0.339  0.6758 -0.2657  0.1429
11428TIP3    H155699   4.580   3.690   0.376 -0.0789  2.0190  2.6262
11428TIP3    H255700   4.434   3.669   0.409 -0.7141  2.4391  0.1778
11429TIP3   OH255701   3.154   3.283   5.131 -0.0700 -0.2678 -0.1350
11429TIP3    H155702   3.152   3.187   5.128  1.1602 -0.3274  0.5832
11429TIP3    H255703   3.118   3.305   5.217 -1.6846 -0.0214 -0.8654
11430TIP3   OH255704   2.234   3.385  15.136  0.4346 -0.3385  0.1022
11430TIP3    H155705   2.267   3.471  15.111  1.8736 -1.3037 -1.4406
11430TIP3    H255706   2.305   3.347  15.188  0.3858 -1.1259 -0.4040
11431TIP3   OH255707   5.621   3.036   5.687  0.4704 -0.7276  0.3174
11431TIP3    H155708   5.574   3.084   5.619  2.0203  0.9553  0.3980
11431TIP3    H255709   5.618   3.093   5.764  1.5272 -1.1534  0.6956
11432TIP3   OH255710   0.901   0.598  17.099  0.5581 -0.5187  0.0126
11432TIP3    H155711   0.827   0.657  17.084 -1.0941 -2.5740 -0.1686
11432TIP3    H255712   0.953   0.604  17.019 -0.5984 -0.7200 -0.7600
11433TIP3   OH255713   5.907   4.341  13.004  0.7767  0.0653  0.2135
11433TIP3    H155714   5.848   4.412  12.977  1.8786  0.4426 -1.2660
11433TIP3    H255715   5.931   4.298  12.923  1.2304 -1.1420  0.9800
11434TIP3   OH255716   4.889   4.399   2.153 -0.1152  0.0832 -0.2590
11434TIP3    H155717   4.965   4.341   2.157  0.9077  1.4824  1.3299
11434TIP3    H255718   4.820   4.345   2.116  1.5988 -1.2843 -1.5754
11435TIP3   OH255719   4.887   5.498  15.318 -0.4045  0.5660  0.2312
11435TIP3    H155720   4.948   5.432  15.286 -1.7556 -0.9787  0.8118
11435TIP3    H255721   4.927   5.581  15.292  1.0988 -0.4727 -0.8798
11436TIP3   OH255722   5.384   3.584  11.447  0.0364  1.0708  0.0273
11436TIP3    H155723   5.436   3.505  11.461 -0.3511  0.7854 -0.1305
11436TIP3    H255724   5.373   3.590  11.352 -1.7060  0.1438  0.1444
11437TIP3   OH255725   1.989   3.346  12.234  0.2634 -0.9567 -0.2900
11437TIP3    H155726   1.897   3.328  12.217  0.1869 -1.4825  0.6535
11437TIP3    H255727   2.007   3.302  12.317  0.7955  1.0080  0.6707
11438TIP3   OH255728   1.957   4.455  15.849  0.7036  0.4675  0.6664
11438TIP3    H155729   2.026   4.469  15.785  0.0372 -1.8301 -0.5748
11438TIP3    H255730   1.927   4.365  15.835 -1.3969  0.8533  2.2967
11439TIP3   OH255731   1.274   5.789  15.017 -0.3439 -0.1268  0.1552
11439TIP3    H155732   1.224   5.810  15.096 -1.6303 -1.0512 -0.3937
11439TIP3    H255733   1.214   5.808  14.945 -0.6192 -3.0411 -0.4470
11440TIP3   OH255734   1.726   0.968  13.900  0.6206  0.1956  0.2186
11440TIP3    H155735   1.682   1.019  13.969  0.7807  1.7564 -0.8131
11440TIP3    H255736   1.669   0.976  13.824 -0.1941 -2.5840  0.4808
11441TIP3   OH255737   1.766   6.493  14.964  0.1889 -0.3458 -0.0534
11441TIP3    H155738   1.853   6.473  14.930 -0.2492 -1.5101 -0.5248
11441TIP3    H255739   1.707   6.445  14.906 -0.8144  1.1469 -0.2632
11442TIP3   OH255740   0.514   3.640  13.010 -0.0470  0.8418 -0.9121
11442TIP3    H155741   0.454   3.714  13.023  0.2178  0.6732  1.3794
11442TIP3    H255742   0.461   3.574  12.966 -1.2690  1.0692  0.1913
11443TIP3   OH255743   3.902   2.392   0.755  0.2680  0.2159 -0.0654
11443TIP3    H155744   3.921   2.372   0.847  1.2135 -1.3736 -0.5938
11443TIP3    H255745   3.932   2.482   0.743 -0.8371  0.8107  1.4500
11444TIP3   OH255746   4.012   0.427  17.166 -0.4893 -0.3240 -0.1080
11444TIP3    H155747   4.070   0.430  17.089  0.3717  0.5022  0.5542
11444TIP3    H255748   3.935   0.379  17.136  0.6328 -1.6619 -0.9489
11445TIP3   OH255749   0.137   2.665   4.159  0.4585  0.2277  0.5208
11445TIP3    H155750   0.139   2.753   4.197 -0.7992 -0.0375  1.2508
11445TIP3    H255751   0.047   2.654   4.128  0.9222 -0.3482 -0.6857
11446TIP3   OH255752   6.199   0.296  14.111  0.3771 -0.3182 -0.4860
11446TIP3    H155753   6.285   0.330  14.137  0.1024 -0.3281  0.4428
11446TIP3    H255754   6.207   0.283  14.016  1.4029 -0.3262 -0.4118
11447TIP3   OH255755   4.688   0.259  12.536  0.2234  0.1091 -0.1099
11447TIP3    H155756   4.652   0.170  12.536 -0.7480  0.5008 -0.0854
11447TIP3    H255757   4.779   0.248  12.510 -0.4762 -0.6479 -2.2825
11448TIP3   OH255758   0.606   0.632  12.793 -0.2147 -0.1521 -0.1129
11448TIP3    H155759   0.630   0.555  12.844 -1.3524 -0.4512 -0.0235
11448TIP3    H255760   0.532   0.603  12.739 -0.8009  0.9456  0.0987
11449TIP3   OH255761   1.800   3.669  14.929 -0.4428  0.0339 -0.2039
11449TIP3    H155762   1.865   3.637  14.865  0.1709 -2.2497  1.4899
11449TIP3    H255763   1.717   3.665  14.882  0.2976  0.6102 -1.6053
11450TIP3   OH255764   5.719   5.410  14.293  0.3136  0.2935 -0.1563
11450TIP3    H155765   5.716   5.319  14.324  0.1574  0.9307  1.7661
11450TIP3    H255766   5.737   5.402  14.199 -1.7214 -1.7737 -0.4284
11451TIP3   OH255767   0.769   5.665   1.238  0.1538  0.4762  0.4909
11451TIP3    H155768   0.859   5.657   1.270 -0.1182 -0.3712  1.0600
11451TIP3    H255769   0.776   5.660   1.143  0.9649  2.8715  0.3991
11452TIP3   OH255770   3.086   5.767   1.074 -0.9750 -0.4952  0.5901
11452TIP3    H155771   3.007   5.721   1.103 -0.0776 -1.2263  1.9412
11452TIP3    H255772   3.151   5.747   1.141 -0.2386  1.8195  0.6137
11453TIP3   OH255773   1.565   1.318  11.409  0.1762  0.0767 -0.0215
11453TIP3    H155774   1.598   1.248  11.465  0.9291 -1.2576 -2.0640
11453TIP3    H255775   1.485   1.283  11.371  0.9847 -0.0505 -1.6936
11454TIP3   OH255776   0.618   6.091   4.410  0.0218  0.0598 -0.2692
11454TIP3    H155777   0.645   6.010   4.368  0.1290 -0.0159 -0.0549
11454TIP3    H255778   0.560   6.063   4.481  0.2054  0.1546 -0.0780
11455TIP3   OH255779   0.470   3.774  13.412  0.4609  0.1452  1.1460
11455TIP3    H155780   0.395   3.719  13.436  0.6840 -0.5753  0.2055
11455TIP3    H255781   0.448   3.807  13.325  0.3270  1.5630  1.7058
11456TIP3   OH255782   2.369   5.105  13.149 -0.3602  0.4921  0.4413
11456TIP3    H155783   2.356   5.069  13.237  1.0988  2.2246  1.3855
11456TIP3    H255784   2.349   5.032  13.091 -3.4828 -0.1104  2.1085
11457TIP3   OH255785   5.783   2.980  16.016  0.7191  0.4994  0.2168
11457TIP3    H155786   5.871   3.000  15.984  0.1476 -0.8397 -2.3539
11457TIP3    H255787   5.785   2.886  16.034 -0.1970  0.4316 -0.0130
11458TIP3   OH255788   1.580   3.383  15.249  0.1028  0.2455 -0.0153
11458TIP3    H155789   1.577   3.300  15.201  0.6083  1.1013 -1.5623
11458TIP3    H255790   1.666   3.385  15.290  0.8844  0.9163 -1.6629
11459TIP3   OH255791   3.169   0.023   3.165 -0.8474  0.6583 -0.1775
11459TIP3    H155792   3.215  -0.032   3.229  1.2275 -1.2322 -3.1998
11459TIP3    H255793   3.077   0.002   3.179 -0.1783 -2.8090 -0.4785
11460TIP3   OH255794   3.943   4.412   1.967  0.2785 -0.2116 -0.0759
11460TIP3    H155795   4.036   4.432   1.959  0.0014  0.3018 -2.3236
11460TIP3    H255796   3.940   4.317   1.977  0.9683 -0.4464 -1.9097
11461TIP3   OH255797   3.367   2.995   1.941  0.0936 -0.4550  0.5407
11461TIP3    H155798   3.460   3.001   1.964  0.2143  1.8083 -0.3607
11461TIP3    H255799   3.365   2.937   1.865  0.7019 -0.9816  0.9214
11462TIP3   OH255800   1.480   4.663   4.584  0.0457  0.2121  0.9453
11462TIP3    H155801   1.504   4.752   4.610  1.3139  0.1640 -0.0164
11462TIP3    H255802   1.512   4.608   4.656  0.8825  0.3620  0.6923
11463TIP3   OH255803   5.695   1.083  11.879  0.1370  0.1203 -0.1440
11463TIP3    H155804   5.633   1.114  11.813  0.3384  0.8568  0.0040
11463TIP3    H255805   5.710   1.159  11.936  0.1208 -0.4537  0.6291
11464TIP3   OH255806   1.976   2.918   1.573 -0.1303  0.3524 -0.4322
11464TIP3    H155807   2.053   2.876   1.534  1.1278  0.9159  1.3989
11464TIP3    H255808   1.912   2.847   1.581  0.2629 -0.1746 -1.7777
11465TIP3   OH255809   0.615   1.882   4.548  0.2606 -0.2588 -0.0138
11465TIP3    H155810   0.648   1.839   4.627 -0.7043 -0.9600  0.0180
11465TIP3    H255811   0.686   1.871   4.484  0.4316 -1.0455  0.2992
11466TIP3   OH255812   0.608   0.230   4.886  0.2448  0.2213 -0.1663
11466TIP3    H155813   0.584   0.309   4.935  0.1274  1.1900 -1.7362
11466TIP3    H255814   0.596   0.255   4.794  2.4843 -0.8641 -0.7805
11467TIP3   OH255815   4.789   3.398   5.533 -0.0347  0.3873 -0.0172
11467TIP3    H155816   4.738   3.431   5.607  1.1324  3.7704 -0.6215
11467TIP3    H255817   4.734   3.415   5.457  0.1483 -0.0356 -0.2429
11468TIP3   OH255818   1.482   4.523   5.589  0.2841  0.8700 -0.0259
11468TIP3    H155819   1.568   4.557   5.615 -0.2867  0.4504  2.5625
11468TIP3    H255820   1.436   4.598   5.552  1.1450  1.4982  0.1687
11469TIP3   OH255821   4.375   6.666  16.304 -0.3560 -0.4890  0.2230
11469TIP3    H155822   4.387   6.606  16.230  0.1362 -1.4935  1.0845
11469TIP3    H255823   4.418   6.621  16.377  1.2230  1.5615  0.5826
11470TIP3   OH255824   5.953   0.444  14.681  0.4935 -0.3958 -0.3439
11470TIP3    H155825   6.026   0.469  14.624 -1.3671 -1.0718 -3.1072
11470TIP3    H255826   5.932   0.354  14.656 -0.8648 -0.4551  0.9058
11471TIP3   OH255827   5.501   3.486  14.683  0.0044  0.0707  0.1798
11471TIP3    H155828   5.417   3.475  14.638 -0.1173  1.3300  0.0818
11471TIP3    H255829   5.522   3.579  14.672  2.3011 -0.5986 -1.3319
11472TIP3   OH255830   1.983   5.159  11.729  0.4961  1.0085 -0.8424
11472TIP3    H155831   1.931   5.139  11.652  0.8226  0.0539 -0.8216
11472TIP3    H255832   1.922   5.151  11.802  0.8071 -0.8171 -0.7497
11473TIP3   OH255833   5.325   0.855  12.226 -0.0388  0.2024  0.4858
11473TIP3    H155834   5.321   0.921  12.157  1.2502 -1.2367 -0.9727
11473TIP3    H255835   5.394   0.885  12.284  1.2476 -0.3665 -0.7274
11474TIP3   OH255836   1.803   1.135  15.760 -0.5400 -0.0244  0.0613
11474TIP3    H155837   1.736   1.067  15.765 -0.0068 -0.4259  2.2288
11474TIP3    H255838   1.885   1.091  15.783  0.0464  1.0153  0.0091
11475TIP3   OH255839   4.848   6.611   5.996  0.3934 -0.0995  0.6972
11475TIP3    H155840   4.785   6.544   5.971  0.0660  0.2501  0.5906
11475TIP3    H255841   4.802   6.666   6.059  0.6067  0.1255  0.6584
11476TIP3   OH255842   6.782   0.465   4.017 -0.0428 -0.3073  0.1701
11476TIP3    H155843   6.742   0.550   3.999 -0.1368 -0.5239 -0.6718
11476TIP3    H255844   6.840   0.480   4.092  2.2042  1.1694 -1.8261
11477TIP3   OH255845   1.949   2.107  11.172 -0.1269 -0.0878 -0.5269
11477TIP3    H155846   1.981   2.100  11.261 -0.1309  1.1766 -0.4144
11477TIP3    H255847   1.947   2.017  11.140 -0.1273 -0.5458  0.7399
11478TIP3   OH255848   4.444   6.756  10.423 -0.3993 -0.9229 -0.4232
11478TIP3    H155849   4.513   6.821  10.438 -1.3974  0.4129 -1.4980
11478TIP3    H255850   4.485   6.689  10.368  0.3939 -0.7736 -0.0155
11479TIP3   OH255851   2.905   2.263  15.089  0.2759 -0.2493 -0.2929
11479TIP3    H155852   2.816   2.236  15.111  0.2076 -0.3393 -0.6727
11479TIP3    H255853   2.897   2.310  15.006  0.6215 -0.5370 -0.4951
11480TIP3   OH255854   3.886   5.243  12.629  0.2120 -1.0040  0.0869
11480TIP3    H155855   3.967   5.241  12.680 -0.8018 -1.1662  1.7241
11480TIP3    H255856   3.915   5.256  12.539  2.1615 -2.8275  0.4095
11481TIP3   OH255857   1.127   2.237   5.789 -0.3659  0.1445  0.4908
11481TIP3    H155858   1.078   2.313   5.820 -0.7331 -0.2386  0.8385
11481TIP3    H255859   1.081   2.161   5.824 -0.0137 -0.2468  0.1241
11482TIP3   OH255860   3.373   4.934   1.048  0.4939  0.1423  0.2580
11482TIP3    H155861   3.390   4.870   0.979  1.5137  0.2307  0.4226
11482TIP3    H255862   3.383   5.019   1.004 -2.2509  0.2111 -0.3051
11483TIP3   OH255863   3.641   5.895  17.001 -1.0633  0.5028 -0.5935
11483TIP3    H155864   3.676   5.962  16.942 -1.5534 -0.3489 -1.8663
11483TIP3    H255865   3.620   5.821  16.944 -0.1163 -0.9196  0.8533
11484TIP3   OH255866   2.002   5.975   5.531  0.2822  0.4420  0.4310
11484TIP3    H155867   1.976   5.986   5.622 -0.2684 -0.3997  0.3772
11484TIP3    H255868   1.925   6.002   5.481  0.7053  1.2527  0.1979
11485TIP3   OH255869   6.203   6.205  16.998 -0.2517  0.1739 -0.2941
11485TIP3    H155870   6.251   6.260  17.059 -1.2303  3.3714 -2.2888
11485TIP3    H255871   6.225   6.116  17.023  2.2884  1.4779  2.3202
11486TIP3   OH255872   3.664   4.271  10.926  0.4745 -0.1225 -0.5073
11486TIP3    H155873   3.641   4.355  10.967 -0.0457 -0.2161 -0.6022
11486TIP3    H255874   3.760   4.267  10.931  0.3621 -0.5600  1.5396
11487TIP3   OH255875   2.202   4.153  13.260 -0.6313 -0.7736  0.6338
11487TIP3    H155876   2.213   4.131  13.168  2.1222 -0.5785  0.8671
11487TIP3    H255877   2.126   4.102  13.289 -0.6133 -1.9461 -1.3653
11488TIP3   OH255878   4.128   4.838   3.038 -0.0320  0.6759  0.3965
11488TIP3    H155879   4.076   4.869   3.112  1.2386  0.6671  1.3147
11488TIP3    H255880   4.081   4.761   3.006 -0.4745  0.5559  1.3270
11489TIP3   OH255881   4.259   3.318   6.973  0.4571 -0.0445 -0.0198
11489TIP3    H155882   4.256   3.402   7.019  0.0585 -0.3023  0.4312
11489TIP3    H255883   4.297   3.338   6.888 -0.3258  0.7223 -0.1908
11490TIP3   OH255884   0.404   1.193  14.866  0.1565 -0.3659 -0.5671
11490TIP3    H155885   0.478   1.247  14.839  1.3783 -1.2967  0.8925
11490TIP3    H255886   0.439   1.134  14.932 -2.1234 -0.0943  0.9511
11491TIP3   OH255887   2.602   1.594   1.758 -0.0339 -0.1122  0.3318
11491TIP3    H155888   2.587   1.547   1.841 -1.3279 -1.2550 -0.5345
11491TIP3    H255889   2.520   1.640   1.742 -0.3046 -1.0525 -1.0419
11492TIP3   OH255890   0.140   2.791  16.321  0.4186  0.6147  0.0630
11492TIP3    H155891   0.151   2.788  16.416  1.2758 -0.1815 -0.0633
11492TIP3    H255892   0.108   2.704  16.297  1.0067  0.5435 -0.4762
11493TIP3   OH255893   2.381   0.734  14.715  0.1167  0.0580 -0.3032
11493TIP3    H155894   2.453   0.781  14.757 -0.4189  1.2783 -0.7329
11493TIP3    H255895   2.376   0.772  14.627 -1.1385  0.0870 -0.2277
11494TIP3   OH255896   3.018   5.499  14.997  0.1709 -0.1333 -0.4765
11494TIP3    H155897   2.992   5.493  15.089 -0.4025 -1.3136 -0.7042
11494TIP3    H255898   3.093   5.558  14.997  1.4588 -1.7034  1.0262
11495TIP3   OH255899   4.301   4.578  13.584 -0.3650 -0.6293  0.2126
11495TIP3    H155900   4.256   4.615  13.660  0.3270 -0.5681  0.5928
11495TIP3    H255901   4.390   4.560  13.615  0.6253  1.5246 -1.1958
11496TIP3   OH255902   3.093   0.421  13.007  0.0034  0.3550 -0.4346
11496TIP3    H155903   3.026   0.391  12.946 -0.7757  2.0318 -0.4369
11496TIP3    H255904   3.119   0.507  12.974  0.1333  0.9464  1.1386
11497TIP3   OH255905   2.180   4.490   5.986  0.4421 -0.5567 -0.2560
11497TIP3    H155906   2.178   4.524   6.075  0.4727 -1.1235 -0.0360
11497TIP3    H255907   2.249   4.423   5.987  0.9550 -0.0469 -0.8956
11498TIP3   OH255908   0.033   6.633   5.819 -0.3102  0.2578  0.3235
11498TIP3    H155909  -0.042   6.580   5.791  0.3540  0.0620 -1.1255
11498TIP3    H255910   0.008   6.723   5.798 -1.3071  0.5292  2.4939
11499TIP3   OH255911   4.952   4.347  12.132  0.2970  0.3441 -0.1420
11499TIP3    H155912   4.997   4.273  12.172  1.6546  1.1739 -0.0808
11499TIP3    H255913   4.982   4.346  12.041  0.2245  0.7397 -0.1707
11500TIP3   OH255914   5.441   1.402   1.489  0.8076 -0.3442 -0.0976
11500TIP3    H155915   5.526   1.423   1.528  0.7910  0.5954 -0.5569
11500TIP3    H255916   5.459   1.401   1.394  0.5445 -1.2364 -0.1442
11501TIP3   OH255917   3.951   4.796   0.317  0.2797  0.3243  0.2678
11501TIP3    H155918   3.962   4.888   0.291  0.8120  0.2055  0.0627
11501TIP3    H255919   3.955   4.748   0.235  2.2692 -0.0815  0.5808
11502TIP3   OH255920   2.245   5.119  16.419  0.2167  0.2559  0.2128
11502TIP3    H155921   2.169   5.062  16.430  0.2036 -0.0661 -1.4258
11502TIP3    H255922   2.307   5.090  16.485 -1.2538  0.8389  1.9092
11503TIP3   OH255923   1.153   6.113  10.601  0.0171  0.2376 -0.0076
11503TIP3    H155924   1.128   6.103  10.509  0.3755  0.9203 -0.1835
11503TIP3    H255925   1.099   6.185  10.633  0.0803  0.1735  0.2522
11504TIP3   OH255926   2.751   6.464   4.850  0.6860  0.0218 -0.1048
11504TIP3    H155927   2.781   6.376   4.874 -0.5203  0.1634  2.1184
11504TIP3    H255928   2.682   6.484   4.914  0.0176  2.0581 -1.3990
11505TIP3   OH255929   4.502   3.634   5.481  0.3405  0.3112  0.7826
11505TIP3    H155930   4.544   3.678   5.407 -1.9995  1.6035  0.1513
11505TIP3    H255931   4.409   3.636   5.460 -0.3840  0.7327  3.7622
11506TIP3   OH255932   3.579   6.700   3.738 -0.1720  0.4230  0.0081
11506TIP3    H155933   3.632   6.620   3.739  0.0077  0.5577  1.8938
11506TIP3    H255934   3.546   6.708   3.827 -1.0477  1.8991 -0.4369
11507TIP3   OH255935   0.044   3.613   1.138  0.3000 -0.0321 -0.1277
11507TIP3    H155936   0.069   3.579   1.224 -0.0511  0.6041  0.2259
11507TIP3    H255937   0.083   3.700   1.134 -1.5363  0.8491  0.3017
11508TIP3   OH255938   4.394   4.944   0.346 -0.1333  0.1525 -0.1291
11508TIP3    H155939   4.373   4.898   0.265 -0.1830 -1.4722  0.7980
11508TIP3    H255940   4.309   4.968   0.383 -0.2804 -2.3070  1.2499
11509TIP3   OH255941   6.099   2.832   5.867 -0.2548  0.5142  0.2029
11509TIP3    H155942   6.170   2.823   5.804  0.0076  1.9461  0.2823
11509TIP3    H255943   6.066   2.743   5.879  0.7836  0.0022 -0.6865
11510TIP3   OH255944   1.495   4.558   2.832 -0.1769  0.1188 -0.0221
11510TIP3    H155945   1.422   4.501   2.809 -1.4752  1.3398  0.9726
11510TIP3    H255946   1.510   4.611   2.753 -0.8807  0.3891  0.0203
11511TIP3   OH255947   4.813   3.717   4.390 -0.2520  0.2828  0.1165
11511TIP3    H155948   4.894   3.687   4.348 -1.0897 -3.5203  0.9917
11511TIP3    H255949   4.759   3.750   4.318  0.6224 -0.6857 -1.0040
11512TIP3   OH255950   1.473   0.202  16.282 -0.1645  0.8350 -0.0204
11512TIP3    H155951   1.388   0.241  16.301 -0.4570 -0.6064  1.8187
11512TIP3    H255952   1.459   0.108  16.288  0.9370  0.4807 -2.5511
11513TIP3   OH255953   0.929   6.656  14.819 -0.2129 -0.1645  0.3023
11513TIP3    H155954   0.989   6.720  14.859  0.6138 -1.7301  1.6473
11513TIP3    H255955   0.926   6.681  14.727  3.3055 -0.5897 -0.0203
11514TIP3   OH255956   5.815   4.606  13.758  0.3342 -0.1917  0.1597
11514TIP3    H155957   5.828   4.550  13.682  1.1253 -2.0863  1.6634
11514TIP3    H255958   5.750   4.560  13.811  1.9769 -0.4024  2.0634
11515TIP3   OH255959   0.362   3.156  15.344  0.1010  0.0208  0.8403
11515TIP3    H155960   0.403   3.242  15.349 -0.1119  0.0653  1.8613
11515TIP3    H255961   0.304   3.152  15.420  0.9234 -1.4555  1.4247
11516TIP3   OH255962   1.520   5.133   6.132 -0.2841  0.4411  0.2801
11516TIP3    H155963   1.504   5.210   6.186  0.2670  0.5320  0.3142
11516TIP3    H255964   1.484   5.060   6.184 -1.3645  0.7439 -0.0305
11517TIP3   OH255965   5.312   2.528   4.401 -0.3601  0.0093  0.2728
11517TIP3    H155966   5.228   2.543   4.445  0.4049 -0.4276  1.8990
11517TIP3    H255967   5.369   2.598   4.434  0.2180 -0.3182 -0.0233
11518TIP3   OH255968   1.754   1.893  13.139  0.0464  0.0317 -0.5505
11518TIP3    H155969   1.759   1.810  13.187 -2.0507 -0.1694 -0.6282
11518TIP3    H255970   1.751   1.867  13.047  2.1169  0.3391 -0.7315
11519TIP3   OH255971   4.226   3.353   3.550 -0.1006 -0.4994  0.0164
11519TIP3    H155972   4.146   3.312   3.516 -0.2382 -1.6676  1.6601
11519TIP3    H255973   4.196   3.435   3.589 -0.6474 -1.3150  1.3528
11520TIP3   OH255974   3.431   1.953  14.265  0.2194 -0.4090  0.2611
11520TIP3    H155975   3.425   2.028  14.325 -0.7346  0.8361 -1.3669
11520TIP3    H255976   3.343   1.944  14.229  0.1533 -2.7531  0.9196
11521TIP3   OH255977   3.768   4.561  16.792  0.0817  0.1662  0.0847
11521TIP3    H155978   3.718   4.554  16.873  1.7833  1.3062  1.2755
11521TIP3    H255979   3.737   4.643  16.752 -0.0555  0.1029  0.0592
11522TIP3   OH255980   6.532   1.116  12.402 -0.2371  0.4859  0.1490
11522TIP3    H155981   6.619   1.127  12.363 -0.3425 -0.1825 -0.2769
11522TIP3    H255982   6.540   1.157  12.489  0.5156  0.4031  0.1284
11523TIP3   OH255983   0.679   4.554  13.011 -0.2016 -0.4631  0.3880
11523TIP3    H155984   0.695   4.496  13.086  0.3011  0.0486  0.6729
11523TIP3    H255985   0.725   4.512  12.939  2.4640  0.9704  1.1869
11524TIP3   OH255986   2.977   4.514   4.692  0.5605  0.2651 -0.2242
11524TIP3    H155987   2.964   4.501   4.598  0.5932  0.0788 -0.2020
11524TIP3    H255988   2.944   4.603   4.708  2.5119  1.1356 -0.8017
11525TIP3   OH255989   6.078   0.730   4.806 -0.4966 -0.3550 -0.4401
11525TIP3    H155990   6.151   0.702   4.752  1.9859  1.3871  1.8666
11525TIP3    H255991   6.107   0.813   4.846 -3.0789 -0.4174  1.7655
11526TIP3   OH255992   3.505   3.527  11.216  0.0887 -0.0752 -0.1715
11526TIP3    H155993   3.458   3.444  11.205 -0.5256  0.3505 -0.8370
11526TIP3    H255994   3.465   3.586  11.152 -0.3145  1.0998  1.1298
11527TIP3   OH255995   2.413   6.708   3.181 -0.0322  0.4275  0.3488
11527TIP3    H155996   2.498   6.709   3.225 -0.4862 -2.0416  1.3878
11527TIP3    H255997   2.355   6.661   3.242 -1.0958 -1.5557 -2.1012
11528TIP3   OH255998   5.312   5.298   1.940  0.4249  0.7772  0.2416
11528TIP3    H155999   5.271   5.217   1.969  0.7798  0.1918 -0.8613
11528TIP3    H256000   5.240   5.362   1.939 -0.4438 -0.2030 -1.5505
11529TIP3   OH256001   1.913   1.911   5.515  0.3464 -0.6064 -0.2650
11529TIP3    H156002   1.916   1.857   5.594 -0.2517 -2.3674 -1.4193
11529TIP3    H256003   1.960   1.992   5.539 -0.8145 -0.6329  2.2286
11530TIP3   OH256004   0.844   4.799   4.691  0.4662 -0.0215 -0.4827
11530TIP3    H156005   0.901   4.789   4.615 -0.0004 -1.0515 -0.7166
11530TIP3    H256006   0.903   4.793   4.766  0.5782 -2.2058 -0.6848
11531TIP3   OH256007   3.699   5.850  15.892 -0.4721 -0.6476  0.1143
11531TIP3    H156008   3.746   5.933  15.882 -1.2997 -0.4014 -1.9057
11531TIP3    H256009   3.608   5.871  15.871 -0.4550 -2.3386 -1.8301
11532TIP3   OH256010   2.015   2.688  15.100 -0.1371  0.4125  0.1961
11532TIP3    H156011   2.084   2.736  15.055  1.0517 -1.9611 -0.6083
11532TIP3    H256012   2.042   2.686  15.192  0.2585  0.5219  0.0813
11533TIP3   OH256013   0.868   4.819  16.371 -0.5928 -0.1542 -0.0169
11533TIP3    H156014   0.824   4.856  16.448 -2.5432 -0.3020 -1.0254
11533TIP3    H256015   0.958   4.804  16.400 -1.0415  0.7158  1.9297
11534TIP3   OH256016   4.363   0.711   2.631  0.2021  0.9401 -0.6360
11534TIP3    H156017   4.341   0.669   2.714 -0.4338  0.1980 -1.1724
11534TIP3    H256018   4.404   0.793   2.656  2.5351 -0.5002  0.4692
11535TIP3   OH256019   6.580   0.724   1.154 -0.0202 -0.0104 -0.2610
11535TIP3    H156020   6.522   0.732   1.229  0.1963  1.3141 -0.2197
11535TIP3    H256021   6.564   0.803   1.102  2.8046  1.1700  0.5245
11536TIP3   OH256022   5.457   0.408  14.452  0.1062 -0.2552  0.3476
11536TIP3    H156023   5.544   0.395  14.491 -1.3905 -2.5987  3.0590
11536TIP3    H256024   5.473   0.404  14.358  3.0461  0.0753  0.7765
11537TIP3   OH256025   2.596   1.390  15.387  0.0923  0.0490 -0.1565
11537TIP3    H156026   2.523   1.404  15.446  0.3866  0.8830  0.0114
11537TIP3    H256027   2.673   1.420  15.436  0.3177  0.9142 -1.0187
11538TIP3   OH256028   1.963   6.035   2.411  0.2357 -0.1769 -0.5657
11538TIP3    H156029   2.029   5.984   2.458  1.5134  2.1962  0.3220
11538TIP3    H256030   1.999   6.124   2.408 -3.3426  1.4027  0.7424
11539TIP3   OH256031   1.199   5.729  13.703  0.3790 -0.0334 -0.1442
11539TIP3    H156032   1.216   5.719  13.797  1.6561 -0.4063 -0.4057
11539TIP3    H256033   1.130   5.666  13.685 -0.0669  0.2293  0.5964
11540TIP3   OH256034   1.209   6.390  11.437 -0.1336  0.0653  0.2044
11540TIP3    H156035   1.190   6.472  11.391 -0.1163 -1.8251 -3.4019
11540TIP3    H256036   1.303   6.393  11.454 -0.1630  0.8610  0.2500
11541TIP3   OH256037   3.971   3.822   6.217 -0.6220  0.3328 -0.5758
11541TIP3    H156038   4.021   3.743   6.196  2.3394  1.9375  0.0154
11541TIP3    H256039   4.039   3.887   6.238 -3.0177  2.6692  0.1318
11542TIP3   OH256040   2.637   6.266  16.628  0.1140 -0.2707  0.1745
11542TIP3    H156041   2.554   6.282  16.584 -0.0186 -0.1612  0.4599
11542TIP3    H256042   2.612   6.228  16.712  0.3499 -0.1782  0.2860
11543TIP3   OH256043   4.485   1.824   3.089  0.0759  0.2872 -0.2533
11543TIP3    H156044   4.407   1.788   3.046  0.1497 -0.3692  0.1591
11543TIP3    H256045   4.462   1.827   3.182  0.7255 -0.3887 -0.0657
11544TIP3   OH256046   2.966   5.257   2.919  0.0508 -0.4466 -0.0536
11544TIP3    H156047   3.031   5.246   2.850  0.5183 -0.3818  0.3753
11544TIP3    H256048   2.885   5.222   2.881  0.3541 -0.6174 -0.5502
11545TIP3   OH256049   4.647   6.119   0.100  0.0419  0.5130  0.3931
11545TIP3    H156050   4.636   6.161   0.014  0.2034 -0.6433 -0.1955
11545TIP3    H256051   4.686   6.188   0.155 -0.1255  1.2797 -0.4347
11546TIP3   OH256052   1.421   5.864  15.984  0.0701  0.2449 -0.1688
11546TIP3    H156053   1.403   5.851  15.891 -0.8688 -0.9758  0.1724
11546TIP3    H256054   1.346   5.914  16.017 -0.2706 -0.5047  0.2100
11547TIP3   OH256055   3.008   0.115   0.331  0.0856  0.7957  0.0475
11547TIP3    H156056   2.920   0.087   0.354  0.3689  1.6176  2.2958
11547TIP3    H256057   3.066   0.055   0.378  0.7808 -0.6259 -2.5231
11548TIP3   OH256058   0.885   0.918   4.857  0.4730 -0.2577 -0.1660
11548TIP3    H156059   0.828   0.989   4.885 -1.9501 -1.6900 -1.3473
11548TIP3    H256060   0.886   0.857   4.930  0.9099 -0.0134  0.0381
11549TIP3   OH256061   0.623   5.356  15.928  0.6582  0.2461 -0.1325
11549TIP3    H156062   0.652   5.448  15.927  1.7044 -0.0892 -0.4510
11549TIP3    H256063   0.603   5.337  15.836 -1.7628  0.8352  0.2239
11550TIP3   OH256064   4.290   6.432   5.336 -0.3204 -0.2484  0.2601
11550TIP3    H156065   4.236   6.422   5.258 -0.6471  0.3427  0.4066
11550TIP3    H256066   4.377   6.454   5.302 -0.1800 -1.1266  0.0293
11551TIP3   OH256067   1.043   0.232  17.189  0.2646  0.4498 -0.0336
11551TIP3    H156068   1.030   0.144  17.152 -0.8842 -0.5132  2.5420
11551TIP3    H256069   0.963   0.280  17.165 -0.7662 -0.3702  1.7051
11552TIP3   OH256070   1.948   3.421  17.076  0.0086  1.0276 -0.2176
11552TIP3    H156071   2.010   3.479  17.031  0.0452  0.3145 -1.0921
11552TIP3    H256072   1.983   3.333  17.062 -1.0075  0.6507 -0.3972
11553TIP3   OH256073   4.477   6.062  15.181 -0.0715 -0.4470  0.0235
11553TIP3    H156074   4.445   6.150  15.198 -1.2659 -1.0009  0.7249
11553TIP3    H256075   4.545   6.048  15.247 -1.5501 -0.9166  1.4789
11554TIP3   OH256076   2.638   5.171  11.624 -0.5613 -0.5117 -0.3458
11554TIP3    H156077   2.722   5.143  11.588  0.5348  0.9044  1.0392
11554TIP3    H256078   2.595   5.090  11.652 -0.2303 -1.3568 -2.2198
11555TIP3   OH256079   2.366   3.604  12.192  0.1391 -0.1896  0.9445
11555TIP3    H156080   2.302   3.666  12.227  0.1559  0.9885 -0.9874
11555TIP3    H256081   2.448   3.627  12.237  0.4826  2.2381 -0.7804
11556TIP3   OH256082   2.175   4.310  15.355  0.1095  0.1471 -0.6935
11556TIP3    H156083   2.178   4.304  15.259 -1.9839  2.2793 -0.9413
11556TIP3    H256084   2.085   4.288  15.378 -0.6429  3.8948  0.3550
11557TIP3   OH256085   3.549   0.757  17.032 -0.6142  0.9903 -0.2983
11557TIP3    H156086   3.557   0.691  17.100 -0.9473  1.1592 -0.0886
11557TIP3    H256087   3.637   0.791  17.021 -0.4316  0.4608 -0.4576
11558TIP3   OH256088   4.802   0.368   4.213  0.4349 -0.2307  0.6806
11558TIP3    H156089   4.827   0.277   4.195  0.2578 -0.5062  1.7469
11558TIP3    H256090   4.712   0.374   4.184  0.5174 -0.3357  0.3989
11559TIP3   OH256091   6.531   6.104   5.520 -0.2680  0.6285 -0.3325
11559TIP3    H156092   6.544   6.024   5.469 -3.2012 -0.3250  0.2832
11559TIP3    H256093   6.549   6.080   5.610 -2.3706  0.2935  0.0189
11560TIP3   OH256094   3.808   3.786  12.082 -0.2832 -0.9825 -0.8232
11560TIP3    H156095   3.880   3.728  12.105 -2.6681 -2.9726  1.9773
11560TIP3    H256096   3.822   3.864  12.136  0.3716 -0.8669 -1.1485
11561TIP3   OH256097   2.719   4.935   2.285  0.4064 -0.2654  0.9806
11561TIP3    H156098   2.670   4.882   2.348  1.5383 -1.7283  0.6732
11561TIP3    H256099   2.697   5.026   2.307 -1.7793 -0.8618  1.3516
11562TIP3   OH256100   3.496   1.636  12.199 -0.1238  0.3113 -0.4403
11562TIP3    H156101   3.410   1.595  12.201 -0.2406  0.4933 -1.4451
11562TIP3    H256102   3.541   1.601  12.276 -0.7094 -0.6222 -0.5121
11563TIP3   OH256103   2.858   4.428  11.410 -0.3462 -0.0499  1.0363
11563TIP3    H156104   2.766   4.400  11.411 -0.6589  0.9530  1.1662
11563TIP3    H256105   2.893   4.391  11.329 -1.3796  1.1702  0.0081
11564TIP3   OH256106   5.754   2.936  16.677 -0.2565 -0.5033 -0.1688
11564TIP3    H156107   5.686   2.870  16.661 -1.6357  0.9293 -0.3840
11564TIP3    H256108   5.760   2.984  16.595  1.8496 -1.3364 -0.5223
11565TIP3   OH256109   2.547   3.030  12.390  0.0499 -0.1409  0.2849
11565TIP3    H156110   2.582   2.941  12.399  2.3654  0.4419 -2.4761
11565TIP3    H256111   2.581   3.076  12.467 -1.1633 -1.6151  1.7348
11566TIP3   OH256112   5.743   4.918  12.416  0.3844  0.1582  0.0743
11566TIP3    H156113   5.680   4.853  12.384 -0.7295  1.9816 -1.5738
11566TIP3    H256114   5.751   4.899  12.509 -0.8531 -1.5594 -0.1272
11567TIP3   OH256115   4.244   5.804   4.825  0.0166  0.4764  0.3212
11567TIP3    H156116   4.337   5.828   4.825 -0.7536  3.6103  0.7190
11567TIP3    H256117   4.230   5.762   4.909  1.2544 -0.7712 -0.0819
11568TIP3   OH256118   0.195   1.072  14.716 -0.1673  0.0422  0.4643
11568TIP3    H156119   0.249   1.117  14.781  0.9577  0.5752 -0.8121
11568TIP3    H256120   0.243   1.082  14.634 -1.2323 -1.2050 -0.3311
11569TIP3   OH256121   0.485   1.053   3.329 -0.5031  0.2640 -0.0952
11569TIP3    H156122   0.533   0.970   3.334 -1.1063 -0.0366  0.9569
11569TIP3    H256123   0.517   1.094   3.248  1.3982  0.0104  0.4949
11570TIP3   OH256124   4.508   2.903   4.551 -0.7763  0.5610  0.3331
11570TIP3    H156125   4.573   2.834   4.560 -2.1724 -1.3655 -3.4781
11570TIP3    H256126   4.424   2.859   4.563 -1.5808  2.1993  0.9176
11571TIP3   OH256127   5.580   0.564   4.266 -0.2176 -0.3477  0.1830
11571TIP3    H156128   5.572   0.585   4.173  0.4566 -0.8098  0.0175
11571TIP3    H256129   5.565   0.648   4.311  0.7431  0.1504 -0.3978
11572TIP3   OH256130   6.296   4.835   4.679 -0.3107  0.0060 -0.0358
11572TIP3    H156131   6.235   4.855   4.750  0.2982 -1.1563  0.8346
11572TIP3    H256132   6.274   4.898   4.610 -1.8742  0.1966  0.6135
11573TIP3   OH256133   3.177   4.624   5.517  0.3309  0.5706  0.7763
11573TIP3    H156134   3.230   4.593   5.591  1.4533  0.8018  0.0952
11573TIP3    H256135   3.136   4.545   5.483  1.3858  0.1608  0.4325
11574TIP3   OH256136   3.770   1.771  14.513  0.0533 -0.4057  0.3086
11574TIP3    H156137   3.846   1.789  14.568  0.3330  0.8408 -0.4578
11574TIP3    H256138   3.722   1.854  14.510 -1.2571 -1.1455  0.6622
11575TIP3   OH256139   4.830   3.428  15.468 -0.1465 -0.6373 -0.2530
11575TIP3    H156140   4.848   3.334  15.473  0.2911 -0.5256  0.3106
11575TIP3    H256141   4.758   3.441  15.530  0.0880 -0.5273 -0.0053
11576TIP3   OH256142   1.153   1.976  15.586 -0.0804  0.1674 -0.1433
11576TIP3    H156143   1.213   1.959  15.514 -3.7184 -1.6526 -2.9023
11576TIP3    H256144   1.092   2.041  15.551 -1.4458 -0.1561  1.5609
11577TIP3   OH256145   2.924   5.413  15.779 -0.5487  0.3714 -0.0998
11577TIP3    H156146   2.986   5.344  15.803 -1.5384 -0.9072 -1.1434
11577TIP3    H256147   2.946   5.435  15.688 -0.8293  0.7940 -0.0702
11578TIP3   OH256148   4.806   0.820   0.644  0.7269 -0.0996 -0.1987
11578TIP3    H156149   4.840   0.837   0.732  0.3522  0.9034 -0.2317
11578TIP3    H256150   4.851   0.885   0.589 -2.3685  2.3520  0.0198
11579TIP3   OH256151   2.555   0.547   5.022  0.1201  0.1263 -0.0214
11579TIP3    H156152   2.480   0.599   5.052 -0.9076 -1.5896  0.4594
11579TIP3    H256153   2.550   0.550   4.926 -0.2419  0.4820  0.0078
11580TIP3   OH256154   3.734   1.053  14.247 -0.9233  0.3010  0.3194
11580TIP3    H156155   3.825   1.034  14.223 -1.7628 -2.5008 -0.8150
11580TIP3    H256156   3.739   1.136  14.296  2.2012  0.2428  0.2047
11581TIP3   OH256157   6.759   6.150   5.797 -0.5823 -0.1916 -0.5660
11581TIP3    H156158   6.774   6.136   5.890 -3.2064  0.9626  0.1000
11581TIP3    H256159   6.681   6.098   5.777 -2.4918  2.7356 -1.1080
11582TIP3   OH256160   3.816   4.736   2.597 -0.5632  0.0148 -0.1385
11582TIP3    H156161   3.819   4.806   2.663  0.3092  0.3033 -0.4763
11582TIP3    H256162   3.743   4.761   2.540 -0.6855  0.2911  0.1355
11583TIP3   OH256163   4.214   0.674  14.841 -0.0682  0.1873 -0.9274
11583TIP3    H156164   4.162   0.630  14.774  0.9049 -1.3864 -0.6758
11583TIP3    H256165   4.152   0.697  14.910 -0.6138 -0.6552 -1.1427
11584TIP3   OH256166   4.506   1.648   3.376 -0.2842  0.4618  0.7038
11584TIP3    H156167   4.451   1.585   3.422 -1.0954  0.8985  0.3473
11584TIP3    H256168   4.549   1.596   3.307  1.5798 -0.3673  2.4205
11585TIP3   OH256169   2.906   3.629   0.038  0.1660  0.3768  0.0230
11585TIP3    H156170   2.861   3.694  -0.016 -0.9780 -0.0702  0.4284
11585TIP3    H256171   2.986   3.673   0.067 -0.8668  1.8118  0.7635
11586TIP3   OH256172   3.946   2.286  14.634 -0.5189  1.0133 -0.1811
11586TIP3    H156173   3.882   2.358  14.633  0.7840  2.2266  1.7802
11586TIP3    H256174   4.030   2.327  14.616 -0.1735 -0.5231 -2.3177
11587TIP3   OH256175   6.286   5.446  13.664  0.2437  0.4183 -0.4207
11587TIP3    H156176   6.304   5.365  13.712  2.4961  0.6609 -0.7814
11587TIP3    H256177   6.279   5.418  13.573 -0.0627  0.5020 -0.4238
11588TIP3   OH256178   2.340   2.838  12.034 -0.0042 -0.1136 -0.0592
11588TIP3    H156179   2.295   2.794  12.106  1.1867 -0.2124  0.6534
11588TIP3    H256180   2.350   2.928  12.064  0.1499 -0.0640 -0.2596
11589TIP3   OH256181   4.074   4.129  12.163  0.0015 -0.8695 -0.4309
11589TIP3    H156182   4.140   4.070  12.199 -1.3790 -2.0552  0.2064
11589TIP3    H256183   3.991   4.098  12.200 -0.4436  3.4304  2.5876
11590TIP3   OH256184   4.071   2.423  17.125  0.0456 -0.5649 -0.0707
11590TIP3    H156185   4.141   2.461  17.179 -0.7389  0.6180  0.1236
11590TIP3    H256186   3.994   2.422  17.182 -1.0937  1.7712 -1.5112
11591TIP3   OH256187   5.521   3.994  13.767 -0.4191 -0.1800 -0.0687
11591TIP3    H156188   5.472   4.064  13.811  0.6550  0.3190  0.3648
11591TIP3    H256189   5.485   3.991  13.679 -2.2329 -0.8151  0.6690
11592TIP3   OH256190   5.132   2.475  15.557  0.4202  0.1466  0.6161
11592TIP3    H156191   5.162   2.385  15.540 -0.2012  0.0135  0.2148
11592TIP3    H256192   5.204   2.515  15.606  1.3225 -0.1336 -0.4470
11593TIP3   OH256193   2.781   3.679  12.860  0.1084 -0.1753 -0.1949
11593TIP3    H156194   2.846   3.680  12.790 -0.3404  1.7064 -0.6274
11593TIP3    H256195   2.810   3.610  12.919  2.9188  1.1277  0.0081
11594TIP3   OH256196   4.655   2.438   3.747  0.5143 -0.1471  0.1171
11594TIP3    H156197   4.725   2.382   3.714  0.5574 -1.3226  2.0841
11594TIP3    H256198   4.701   2.510   3.791  0.4618  0.8287 -1.4070
11595TIP3   OH256199   6.327   5.186  13.782 -0.1422  0.0620 -0.3856
11595TIP3    H156200   6.394   5.120  13.766  0.4124  0.7608 -1.0525
11595TIP3    H256201   6.264   5.144  13.839  1.6436 -0.1218  1.4898
11596TIP3   OH256202   0.612   3.906   2.189  0.1775  0.4651 -0.1523
11596TIP3    H156203   0.612   3.998   2.161  3.0025  0.5082 -0.1646
11596TIP3    H256204   0.597   3.857   2.108 -1.0512  0.8869 -0.1944
11597TIP3   OH256205   0.647   5.605  11.031 -0.0850  0.2022 -0.5180
11597TIP3    H156206   0.600   5.609  10.947  1.3277 -0.2425 -1.3480
11597TIP3    H256207   0.593   5.547  11.085 -1.0153  0.4960 -1.1089
11598TIP3   OH256208   5.401   5.504  15.096 -0.3305  0.0075  0.2056
11598TIP3    H156209   5.332   5.462  15.148  0.9943 -1.1168  1.0678
11598TIP3    H256210   5.483   5.473  15.134  0.6738  1.3273 -0.8174
11599TIP3   OH256211   0.703   3.350   0.357  0.3109  0.0659 -0.2281
11599TIP3    H156212   0.671   3.440   0.347  1.6508  0.5212 -0.4165
11599TIP3    H256213   0.634   3.297   0.317 -1.0373  0.9125  0.8796
11600TIP3   OH256214   1.154   3.491   0.513  0.0275  0.6870  0.3262
11600TIP3    H156215   1.155   3.587   0.511 -1.0637  0.7088  0.5853
11600TIP3    H256216   1.062   3.468   0.521  0.1770 -0.4239 -0.9337
11601TIP3   OH256217   5.685   3.455  15.029 -0.2588 -0.1639  0.0540
11601TIP3    H156218   5.598   3.493  15.039  0.6837  2.2797 -0.5923
11601TIP3    H256219   5.721   3.497  14.952  2.0604 -0.0071  1.1708
11602TIP3   OH256220   4.330   2.088   5.973  0.0483 -0.3696 -0.2240
11602TIP3    H156221   4.411   2.083   5.921  1.9751 -0.9268  2.7249
11602TIP3    H256222   4.313   1.998   5.999 -1.1552 -0.1510 -0.2560
11603TIP3   OH256223   2.147   1.934   1.272 -0.4905  0.7189 -0.1527
11603TIP3    H156224   2.213   2.003   1.269 -0.3312  0.6494  1.2876
11603TIP3    H256225   2.077   1.966   1.215 -0.2625  1.9097  0.2066
11604TIP3   OH256226   6.108   3.141  11.498  0.3215  0.0303  0.2168
11604TIP3    H156227   6.192   3.161  11.539  0.4889 -0.1378 -0.0410
11604TIP3    H256228   6.129   3.133  11.405  0.2751 -1.4245  0.3295
11605TIP3   OH256229   1.977   5.555   2.004  0.8972  0.0154  0.0274
11605TIP3    H156230   2.016   5.573   2.090 -0.6099 -1.6442  1.1087
11605TIP3    H256231   2.030   5.483   1.968  1.2748  0.4363 -0.2674
11606TIP3   OH256232   0.676   0.759  13.673 -0.1440  0.4384 -0.2375
11606TIP3    H156233   0.750   0.731  13.727  0.8850 -1.3808 -2.4796
11606TIP3    H256234   0.699   0.847  13.643 -0.2174  1.0106  1.3284
11607TIP3   OH256235   4.308   0.607   6.209 -0.4349 -0.0327 -0.0075
11607TIP3    H156236   4.383   0.620   6.151 -0.1641 -1.2225  0.0678
11607TIP3    H256237   4.237   0.656   6.168  0.6168  1.8809  0.4032
11608TIP3   OH256238   0.539   0.237   6.517 -0.4738  0.2495  0.2077
11608TIP3    H156239   0.522   0.330   6.527 -1.0181  0.2576 -0.6993
11608TIP3    H256240   0.461   0.202   6.475 -0.5720 -0.7553  1.1924
11609TIP3   OH256241   6.334   0.523   2.021  0.6522 -0.0134  0.3028
11609TIP3    H156242   6.391   0.599   2.017  0.5937  0.0775  1.1409
11609TIP3    H256243   6.343   0.481   1.935  2.0129 -0.0285  0.4490
11610TIP3   OH256244   3.453   0.893  16.809  0.5806  0.0803 -0.4384
11610TIP3    H156245   3.534   0.884  16.758  2.4990  1.4630  2.2292
11610TIP3    H256246   3.468   0.839  16.887 -0.5577  1.2861  0.6467
11611TIP3   OH256247   0.408   6.128  14.459 -0.3121  0.5631 -0.0633
11611TIP3    H156248   0.453   6.085  14.532 -1.1546 -0.5647 -0.1852
11611TIP3    H256249   0.315   6.114  14.478 -0.5485  0.7109 -1.0910
11612TIP3   OH256250   5.657   3.649   5.037 -0.1661  0.2124 -0.1615
11612TIP3    H156251   5.721   3.657   4.966 -2.9593 -2.1244 -3.1423
11612TIP3    H256252   5.664   3.558   5.066 -2.2754 -0.1662 -0.7522
11613TIP3   OH256253   1.815   1.179   4.129  0.1002 -0.6125  0.7801
11613TIP3    H156254   1.818   1.210   4.039 -1.3359 -2.9347 -0.1244
11613TIP3    H256255   1.773   1.249   4.178  0.4454  0.4598 -0.4423
11614TIP3   OH256256   2.271   2.820   5.583 -0.0911  0.5291 -0.4665
11614TIP3    H156257   2.280   2.751   5.649 -1.3089  1.6306  0.8966
11614TIP3    H256258   2.266   2.773   5.500  1.5380 -0.8905  0.2113
11615TIP3   OH256259   1.746   5.177  14.301 -0.1299  0.2307  0.2587
11615TIP3    H156260   1.837   5.200  14.318 -0.4886 -0.2950  3.1817
11615TIP3    H256261   1.698   5.260  14.307 -0.0966  0.2197  0.6873
11616TIP3   OH256262   1.849   3.030   2.017  0.1377 -0.4699  0.1874
11616TIP3    H156263   1.918   3.008   1.954 -0.2573  0.1132 -0.4626
11616TIP3    H256264   1.891   3.025   2.102  1.2190  0.7122 -0.2516
11617TIP3   OH256265   2.102   4.709   4.650 -0.8389 -0.3035  0.3502
11617TIP3    H156266   2.192   4.726   4.677 -0.8913 -1.3052  1.1949
11617TIP3    H256267   2.061   4.796   4.648  0.5597  0.3526 -1.6571
11618TIP3   OH256268   4.036   5.957  14.665  0.1467  0.1191 -0.3441
11618TIP3    H156269   3.958   5.940  14.717 -0.8771 -1.3730 -2.3156
11618TIP3    H256270   4.083   5.874  14.663  1.4015  0.7972  0.1617
11619TIP3   OH256271   5.285   3.444   5.244 -0.3528  0.6025 -0.0246
11619TIP3    H156272   5.214   3.389   5.277  0.6559  0.4387  2.0033
11619TIP3    H256273   5.353   3.437   5.311  0.9013  2.1007 -1.1027
11620TIP3   OH256274   5.795   2.497   6.246  0.0274  0.1317 -0.2008
11620TIP3    H156275   5.803   2.450   6.163  1.5406  0.9692 -0.5459
11620TIP3    H256276   5.863   2.460   6.302  1.2924  1.9355 -0.5055
11621TIP3   OH256277   3.186   4.891  10.541  0.3087 -0.3070 -0.4063
11621TIP3    H156278   3.171   4.797  10.545 -1.4766 -0.0080  0.2045
11621TIP3    H256279   3.261   4.906  10.599 -0.3915 -1.1482  0.7379
11622TIP3   OH256280   1.669   5.740   0.245  0.3385 -0.4632 -0.2263
11622TIP3    H156281   1.720   5.781   0.176  0.6552 -0.8691 -0.2331
11622TIP3    H256282   1.657   5.649   0.216 -2.2473  0.1772 -1.2807
11623TIP3   OH256283   0.947   0.508  11.275  0.0390  0.7806 -0.7596
11623TIP3    H156284   0.987   0.459  11.203  1.2271  0.4820  0.0799
11623TIP3    H256285   1.009   0.498  11.348 -2.8106 -1.9688  1.4332
11624TIP3   OH256286   4.297   6.262   0.461  0.1449  0.1993 -0.1259
11624TIP3    H156287   4.268   6.174   0.483  0.5160  0.3943  1.1605
11624TIP3    H256288   4.390   6.253   0.441  0.3499  0.4099  0.7094
11625TIP3   OH256289   0.370   6.768  15.600  0.5591 -0.1770  0.2616
11625TIP3    H156290   0.343   6.692  15.550  0.0621 -0.5237  1.0583
11625TIP3    H256291   0.358   6.842  15.540 -1.5973 -0.3899  0.4185
11626TIP3   OH256292   2.268   1.805   6.368  0.1235  0.1260  0.2289
11626TIP3    H156293   2.360   1.824   6.353  0.3024 -1.4637 -0.7552
11626TIP3    H256294   2.229   1.890   6.387  2.0586  0.6362  2.1258
11627TIP3   OH256295   5.672   3.783  13.621 -0.6426 -0.0582 -0.7229
11627TIP3    H156296   5.612   3.838  13.671  2.5809  2.5847  0.4460
11627TIP3    H256297   5.691   3.709  13.680  0.1343  1.0346  0.4099
11628TIP3   OH256298   1.775   4.198   1.602  0.4175  0.1806 -0.2172
11628TIP3    H156299   1.752   4.276   1.552  0.2208 -0.3944 -1.0384
11628TIP3    H256300   1.804   4.231   1.687 -0.1155  1.1137 -0.3938
11629TIP3   OH256301   2.922   2.082   5.841  0.0610 -0.6057  0.3415
11629TIP3    H156302   2.886   1.993   5.837 -0.1074 -0.5444  0.4851
11629TIP3    H256303   2.845   2.139   5.844  0.1436 -0.3939 -0.9768
11630TIP3   OH256304   2.885   3.834   1.441 -0.1867 -0.2764  0.0835
11630TIP3    H156305   2.917   3.801   1.525 -0.8077  0.2877  0.5410
11630TIP3    H256306   2.890   3.759   1.383  2.3131 -0.1396  0.0435
11631TIP3   OH256307   3.322   0.367   3.749 -0.3467 -0.0824  0.0755
11631TIP3    H156308   3.355   0.451   3.717 -2.0187 -0.1378 -1.9469
11631TIP3    H256309   3.242   0.353   3.698 -0.2135 -2.7795  0.5769
11632TIP3   OH256310   2.317   4.725   0.529 -0.2076 -0.2688  0.1151
11632TIP3    H156311   2.221   4.725   0.531 -0.2276  0.4083 -0.5369
11632TIP3    H256312   2.339   4.772   0.449  0.6722 -0.5111  0.2111
11633TIP3   OH256313   3.720   0.780  15.467  0.3121 -0.3906  0.4063
11633TIP3    H156314   3.757   0.692  15.476 -0.3780 -0.7120  0.0981
11633TIP3    H256315   3.627   0.766  15.449  0.7493  0.3517 -2.6059
11634TIP3   OH256316   3.331   4.769  15.225  0.0293 -0.1067  0.1938
11634TIP3    H156317   3.394   4.720  15.279  0.6008  1.0259  0.5842
11634TIP3    H256318   3.246   4.753  15.267  0.2893 -0.3187  0.6494
11635TIP3   OH256319   4.339   1.890   1.418 -0.3025 -0.7756  0.1057
11635TIP3    H156320   4.264   1.891   1.358 -1.1447  0.1604  1.1424
11635TIP3    H256321   4.388   1.812   1.394 -1.2526 -1.0372 -1.0392
11636TIP3   OH256322   6.508   1.291  10.926  0.0976  0.5884  0.2606
11636TIP3    H156323   6.445   1.346  10.880 -0.3019  0.8227  1.0859
11636TIP3    H256324   6.469   1.204  10.925  0.2568  0.5214 -0.1578
11637TIP3   OH256325   0.102   4.582  12.898 -0.1540  0.4220 -0.5122
11637TIP3    H156326   0.192   4.589  12.932  0.0079 -1.4026 -0.4694
11637TIP3    H256327   0.050   4.635  12.958  0.5732 -0.3789  0.8734
11638TIP3   OH256328   3.516   6.022   6.342 -0.3494  0.3013  1.2042
11638TIP3    H156329   3.483   6.088   6.281  0.5548  0.3280  0.7221
11638TIP3    H256330   3.488   5.938   6.305  2.0339  0.1795 -0.4671
11639TIP3   OH256331   5.361   1.292   4.368  0.0883  0.9614 -0.1954
11639TIP3    H156332   5.387   1.283   4.460  1.1306  0.3133 -0.5360
11639TIP3    H256333   5.281   1.345   4.370 -0.3084  0.3327  1.1343
11640TIP3   OH256334   1.112   5.964  16.702 -0.6882 -0.3387 -0.8838
11640TIP3    H156335   1.157   5.956  16.617 -0.3652  0.4515 -0.7859
11640TIP3    H256336   1.113   5.875  16.737  0.6299 -0.3634 -0.9713
11641TIP3   OH256337   0.026   3.642  14.691  0.2042  0.2131  0.1923
11641TIP3    H156338   0.107   3.658  14.740  0.7206 -0.0000 -0.5797
11641TIP3    H256339  -0.020   3.575  14.741 -0.3103  1.5678  1.5697
11642TIP3   OH256340   3.836   6.280  11.396 -0.0087  0.1191  0.8657
11642TIP3    H156341   3.864   6.333  11.322 -1.3589  1.3508  1.2234
11642TIP3    H256342   3.903   6.212  11.403 -0.4725 -0.7320 -2.2216
11643TIP3   OH256343   0.261   4.459  16.071 -0.1178 -0.0148 -1.1143
11643TIP3    H156344   0.178   4.447  16.117  0.2212  0.4057 -0.3909
11643TIP3    H256345   0.262   4.389  16.005 -1.4741  0.5370 -1.7533
11644TIP3   OH256346   2.514   5.949  13.674 -0.6313  0.1116 -0.3456
11644TIP3    H156347   2.580   5.950  13.605 -0.8938  0.9691 -0.5842
11644TIP3    H256348   2.560   5.980  13.752 -0.5288 -0.1386 -0.3042
11645TIP3   OH256349   1.532   5.823  12.974 -0.6088  0.0795 -0.0845
11645TIP3    H156350   1.484   5.833  13.057 -1.3208 -2.0023 -0.2215
11645TIP3    H256351   1.494   5.890  12.917 -1.3377  0.3673  0.7178
11646TIP3   OH256352   5.180   2.365   4.690 -0.0956 -0.2493 -0.4419
11646TIP3    H156353   5.215   2.454   4.699 -1.3636  0.1085  1.5142
11646TIP3    H256354   5.190   2.344   4.598 -0.7700  2.3727 -1.1605
11647TIP3   OH256355   4.785   1.557  15.909 -0.5041 -0.5132  0.0552
11647TIP3    H156356   4.818   1.501  15.980  0.8695 -0.2311 -0.3418
11647TIP3    H256357   4.738   1.497  15.851  1.8940 -1.4911 -0.9397
11648TIP3   OH256358   4.125   1.143   5.188  0.1924 -0.0879  0.0249
11648TIP3    H156359   4.168   1.215   5.234  1.0672  0.0944 -1.0506
11648TIP3    H256360   4.042   1.181   5.157  0.8462  0.5776 -0.9115
11649TIP3   OH256361   3.681   1.540   4.717  0.2174 -0.2492 -0.3085
11649TIP3    H156362   3.660   1.606   4.782  0.5169 -0.2936 -0.1663
11649TIP3    H256363   3.655   1.579   4.633 -2.4300 -1.1339  0.0534
11650TIP3   OH256364   1.619   2.942  13.594 -0.3721 -0.1736 -0.3768
11650TIP3    H156365   1.630   2.868  13.534 -1.0411 -0.4860 -0.1223
11650TIP3    H256366   1.708   2.970  13.614 -0.1205 -0.6578 -0.7880
11651TIP3   OH256367   0.855   3.153   6.545 -0.5455  0.0643 -0.5319
11651TIP3    H156368   0.901   3.237   6.552  0.5039 -0.4663 -1.0386
11651TIP3    H256369   0.798   3.162   6.469 -0.5103  0.3468 -0.5237
11652TIP3   OH256370   1.686   1.184   3.389  0.1483  0.5062 -0.3939
11652TIP3    H156371   1.718   1.265   3.349 -0.7381  0.7371 -0.6270
11652TIP3    H256372   1.611   1.158   3.336 -0.4526  0.3049  0.5537
11653TIP3   OH256373   1.682   1.674   3.196  0.4997 -0.2768  0.0830
11653TIP3    H156374   1.679   1.694   3.102 -0.4873 -0.2498  0.1158
11653TIP3    H256375   1.660   1.757   3.238  1.3825 -0.1767  0.3577
11654TIP3   OH256376   6.430   1.662   4.617  0.5649  0.0825 -0.1023
11654TIP3    H156377   6.462   1.680   4.705 -0.4529 -0.0464  0.2928
11654TIP3    H256378   6.370   1.733   4.597 -2.1682 -1.8798  0.8074
11655TIP3   OH256379   3.493   6.629  12.940  0.0685 -0.1237 -0.3068
11655TIP3    H156380   3.508   6.674  12.857 -1.1034  1.0751  0.1076
11655TIP3    H256381   3.399   6.639  12.956  0.0172 -1.6535  0.4217
11656TIP3   OH256382   2.542   2.782  14.486  0.0053 -0.2078 -0.2462
11656TIP3    H156383   2.457   2.747  14.461  0.7510 -2.1945 -0.0352
11656TIP3    H256384   2.555   2.856  14.427 -0.8229 -1.3286 -1.8737
11657TIP3   OH256385   2.215   6.635  10.841 -0.5806  0.4516  0.2169
11657TIP3    H156386   2.233   6.548  10.875 -0.6213  1.3390  2.5938
11657TIP3    H256387   2.119   6.641  10.840 -0.5689  1.3093  2.3422
11658TIP3   OH256388   2.217   5.000  15.273  0.5191  0.7950 -0.3988
11658TIP3    H156389   2.152   5.070  15.263 -1.4501 -0.9966 -0.5026
11658TIP3    H256390   2.218   4.982  15.367  1.4084  1.3090 -0.3067
11659TIP3   OH256391   3.673   1.927  12.340  0.1522  0.3333  0.4786
11659TIP3    H156392   3.686   1.903  12.248  1.1453 -0.5146  0.8244
11659TIP3    H256393   3.743   1.991  12.357  2.3463 -2.2841  1.6398
11660TIP3   OH256394   5.762   5.246  11.416 -0.0409  0.3212 -0.4179
11660TIP3    H156395   5.763   5.303  11.339  0.6380  0.1324 -0.5564
11660TIP3    H256396   5.834   5.184  11.400  1.5693  1.6475  1.3797
11661TIP3   OH256397   1.152   1.753  13.583  0.2396  0.5647  0.3234
11661TIP3    H156398   1.140   1.826  13.523  0.7686  0.6329  0.2933
11661TIP3    H256399   1.169   1.678  13.526  2.4013  0.9521  0.4203
11662TIP3   OH256400   1.688   2.206  15.509 -0.4080  0.2855 -0.0829
11662TIP3    H156401   1.663   2.150  15.435 -0.5234 -0.6157  0.6327
11662TIP3    H256402   1.609   2.257  15.527 -1.5424 -1.9958  1.6592
11663TIP3   OH256403   2.649   5.995  15.817 -0.6814 -0.0065  0.2518
11663TIP3    H156404   2.625   5.920  15.762  0.6467  1.0606 -1.8793
11663TIP3    H256405   2.603   6.069  15.778 -0.9999  0.4925  1.5781
11664TIP3   OH256406   5.644   4.984   3.336  0.8979  0.3746 -0.0538
11664TIP3    H156407   5.626   5.059   3.392 -2.3071  0.8887 -1.6604
11664TIP3    H256408   5.619   4.908   3.389  3.8123  0.3578  1.4370
11665TIP3   OH256409   2.259   0.728  16.543 -0.1696 -0.1294  0.0475
11665TIP3    H156410   2.337   0.673  16.554 -0.2166 -0.0176  0.9982
11665TIP3    H256411   2.272   0.801  16.603 -1.0442 -0.1545  0.2850
11666TIP3   OH256412   4.454   5.302   4.515  0.0980 -0.2843 -0.6978
11666TIP3    H156413   4.372   5.258   4.492  0.4401 -0.3616 -1.7999
11666TIP3    H256414   4.445   5.324   4.608 -0.2319 -2.3296 -0.2240
11667TIP3   OH256415   3.379   2.280   3.481  0.4401 -0.6927  0.7210
11667TIP3    H156416   3.461   2.247   3.517  0.3767 -0.9408  0.6410
11667TIP3    H256417   3.317   2.207   3.491 -0.1959  0.0356  2.2319
11668TIP3   OH256418   2.021   2.473   5.831  0.6706 -0.0846  0.0279
11668TIP3    H156419   2.021   2.415   5.908  0.6952 -2.6519 -1.8448
11668TIP3    H256420   1.944   2.529   5.844 -0.4543 -1.7960  1.0070
11669TIP3   OH256421   4.057   5.224  10.395  0.1154  0.1346 -0.4737
11669TIP3    H156422   4.137   5.211  10.447  0.2149 -0.0155 -0.6669
11669TIP3    H256423   4.054   5.319  10.380 -0.5192  0.3273  0.7806
11670TIP3   OH256424   1.226   1.802   5.331  0.2595 -0.2059  0.0073
11670TIP3    H156425   1.319   1.825   5.329  0.7419 -2.1071 -0.4327
11670TIP3    H256426   1.184   1.877   5.374  2.1443  0.1682  1.2690
11671TIP3   OH256427   1.652   0.118   2.628  0.6528 -0.3975  0.2783
11671TIP3    H156428   1.731   0.172   2.631  0.2951  0.1540 -0.2438
11671TIP3    H256429   1.598   0.158   2.560 -0.2269 -0.5726  0.8747
11672TIP3   OH256430   1.107   4.811  13.296 -0.7339  0.2536  0.3755
11672TIP3    H156431   1.105   4.740  13.231 -1.2851  2.0682 -1.6341
11672TIP3    H256432   1.056   4.881  13.257  0.1708  1.9474  2.1421
11673TIP3   OH256433   6.596   6.582   2.084  0.1036 -0.4317  0.2041
11673TIP3    H156434   6.532   6.645   2.120 -1.6434 -1.0085 -1.8024
11673TIP3    H256435   6.636   6.628   2.011  0.5146 -0.8045  0.1960
11674TIP3   OH256436   2.453   0.746   4.001 -0.6329 -0.6431 -0.5176
11674TIP3    H156437   2.494   0.823   3.961 -0.9156 -0.5978 -0.7153
11674TIP3    H256438   2.361   0.769   4.010 -0.3814 -0.2029  1.2150
11675TIP3   OH256439   6.415   0.942  17.226 -0.2594  0.5766 -0.1124
11675TIP3    H156440   6.412   0.888  17.305 -2.9211  2.1302  0.9210
11675TIP3    H256441   6.382   1.027  17.255 -0.0950  1.5237 -2.6504
11676TIP3   OH256442   2.326   5.650   4.891 -0.0450  0.2876  0.3192
11676TIP3    H156443   2.406   5.598   4.891  1.5739  2.6453 -1.5659
11676TIP3    H256444   2.343   5.719   4.955 -0.8052  0.4749  0.3261
11677TIP3   OH256445   5.390   3.870  10.382  0.4278  0.3829  0.3070
11677TIP3    H156446   5.411   3.943  10.440  0.3503  0.5886  0.0725
11677TIP3    H256447   5.475   3.843  10.346  0.5933 -0.2979  1.1742
11678TIP3   OH256448   6.659   0.405   2.541  0.1361  0.1852  0.0276
11678TIP3    H156449   6.656   0.491   2.583  1.1108 -0.4244  1.3703
11678TIP3    H256450   6.568   0.376   2.540 -0.1382  1.0435 -0.0272
11679TIP3   OH256451   5.772   1.424  11.268 -0.1640 -0.1981 -0.2267
11679TIP3    H156452   5.720   1.501  11.291 -0.1611  0.2118 -1.5318
11679TIP3    H256453   5.730   1.390  11.189 -0.7598 -2.1148  0.8785
11680TIP3   OH256454   0.295   0.953   5.442 -0.2571 -0.4394  0.0563
11680TIP3    H156455   0.377   0.903   5.448 -0.3054 -0.5303 -0.0413
11680TIP3    H256456   0.323   1.040   5.414  0.1302  0.4181  2.9654
11681TIP3   OH256457   1.016   2.520   6.335 -0.0556  0.1907 -0.2026
11681TIP3    H156458   1.092   2.487   6.287  0.3555 -0.2621  0.7390
11681TIP3    H256459   1.052   2.587   6.394  0.0508 -1.7620  2.0377
11682TIP3   OH256460   5.580   6.168   2.021 -0.1085  0.2736  0.4658
11682TIP3    H156461   5.519   6.119   2.076  1.3602 -1.1442  0.8748
11682TIP3    H256462   5.659   6.114   2.019  0.7003  1.4649 -1.0789
11683TIP3   OH256463   6.481   5.361  17.177  0.6722  0.3199  0.1639
11683TIP3    H156464   6.458   5.357  17.084 -1.5087 -1.2287  0.7494
11683TIP3    H256465   6.549   5.295  17.188  0.9969  0.5688 -0.3404
11684TIP3   OH256466   0.624   5.990   3.331 -0.2515 -0.4765 -0.2246
11684TIP3    H156467   0.606   6.059   3.394  0.6358 -1.0075  0.6299
11684TIP3    H256468   0.564   6.007   3.258 -0.3631  0.9119  0.1802
11685TIP3   OH256469   5.528   1.146   0.894  0.1151  0.0673 -0.0337
11685TIP3    H156470   5.564   1.114   0.977 -2.4075  0.7602  1.3808
11685TIP3    H256471   5.599   1.197   0.855  1.1961  0.0713  1.8797
11686TIP3   OH256472   2.589   6.133   2.189  0.2486 -0.2528  0.2661
11686TIP3    H156473   2.564   6.141   2.097 -2.0210 -1.1051  0.7502
11686TIP3    H256474   2.543   6.205   2.233  0.0608 -0.7750  0.9405
11687TIP3   OH256475   0.724   1.750   4.788  0.2812 -0.0382  0.5793
11687TIP3    H156476   0.815   1.720   4.782 -0.2193 -1.6816  0.8824
11687TIP3    H256477   0.721   1.803   4.868  1.0431  0.2764  0.3996
11688TIP3   OH256478   4.341   4.166   2.432 -0.6113  0.0603  0.2401
11688TIP3    H156479   4.375   4.209   2.510  0.6176 -0.3674 -0.0457
11688TIP3    H256480   4.411   4.175   2.367 -1.6313  0.4482 -0.8286
11689TIP3   OH256481   5.744   0.541   0.711  0.3569 -0.0862 -0.1844
11689TIP3    H156482   5.789   0.625   0.723  1.7304 -0.8577  0.1761
11689TIP3    H256483   5.713   0.517   0.798 -1.0036  0.5647 -0.4736
11690TIP3   OH256484   4.460   5.900   1.700  0.6708  0.1540  0.8834
11690TIP3    H156485   4.514   5.875   1.774  0.3401  1.4458  1.5733
11690TIP3    H256486   4.393   5.832   1.695  0.7563  0.0078  1.7147
11691TIP3   OH256487   6.235   1.786  16.235 -0.0262  0.4985 -0.0035
11691TIP3    H156488   6.222   1.698  16.269  1.1926  0.2291 -0.2279
11691TIP3    H256489   6.326   1.788  16.207 -0.0820  1.7858 -0.1265
11692TIP3   OH256490   3.421   5.162  14.530 -0.5779  0.3998  0.0065
11692TIP3    H156491   3.513   5.160  14.556 -0.5906 -3.4004  0.1119
11692TIP3    H256492   3.373   5.147  14.612 -1.0207 -2.4680 -0.7280
11693TIP3   OH256493   3.665   3.864  16.484 -0.1753  0.7830  0.0605
11693TIP3    H156494   3.623   3.872  16.398 -1.4910 -0.0451  0.6141
11693TIP3    H256495   3.638   3.944  16.530 -1.4565  0.0901  0.5369
11694TIP3   OH256496   0.156   6.265  13.059 -0.2208  0.5790 -0.1108
11694TIP3    H156497   0.092   6.208  13.102 -0.1348 -0.4235 -1.2586
11694TIP3    H256498   0.238   6.247  13.105 -0.0516 -0.7593 -0.8866
11695TIP3   OH256499   4.155   0.200  12.591 -0.1933 -0.4362  0.1035
11695TIP3    H156500   4.242   0.236  12.611  0.1986 -0.9049 -0.7338
11695TIP3    H256501   4.173   0.113  12.556 -1.1140 -1.2341  1.6034
11696TIP3   OH256502   4.693   0.645   6.664 -0.1407  0.1519  0.2014
11696TIP3    H156503   4.649   0.565   6.692 -0.4043  0.1896 -0.1102
11696TIP3    H256504   4.637   0.716   6.696  1.0895  0.2744  2.2122
11697TIP3   OH256505   3.802   5.926   2.256  0.2553  0.5585  0.2187
11697TIP3    H156506   3.710   5.928   2.279  0.2671  0.0716  0.3095
11697TIP3    H256507   3.807   5.977   2.175 -0.2852 -0.4228 -0.4393
11698TIP3   OH256508   1.241   4.490  14.292 -0.2296 -0.0527  0.2880
11698TIP3    H156509   1.184   4.568  14.296  0.6821  0.6482 -0.2807
11698TIP3    H256510   1.194   4.430  14.234  0.4953  1.2791 -1.7303
11699TIP3   OH256511   1.765   3.574  14.340 -0.1875  0.1413  0.2110
11699TIP3    H156512   1.739   3.631  14.412 -1.3623 -0.0929 -0.0154
11699TIP3    H256513   1.812   3.502  14.383  0.9015  1.0406  0.5383
11700TIP3   OH256514   3.174   0.048   0.549 -0.4780  0.2374 -0.3015
11700TIP3    H156515   3.268   0.053   0.563 -0.3411 -0.9580 -0.7300
11700TIP3    H256516   3.153  -0.045   0.556 -1.6438  0.4987 -0.1053
11701TIP3   OH256517   6.725   3.926   2.918  0.0100 -0.4007 -0.4160
11701TIP3    H156518   6.778   3.961   2.846  1.2007 -1.7925 -0.2633
11701TIP3    H256519   6.723   3.831   2.901 -0.9349 -0.5618  0.5749
11702TIP3   OH256520   1.314   6.032  12.937 -0.2733 -0.6849 -0.1657
11702TIP3    H156521   1.255   6.024  13.012  1.0807 -2.2181  0.7641
11702TIP3    H256522   1.353   6.119  12.946 -1.9940  0.1366 -0.5120
11703TIP3   OH256523   0.782   0.551   2.641  0.6282 -0.2723 -0.0769
11703TIP3    H156524   0.843   0.625   2.642 -1.0159  1.1199  0.7880
11703TIP3    H256525   0.764   0.533   2.734  0.7820 -1.5761 -0.2868
11704TIP3   OH256526   3.757   5.584   5.591  0.0896  0.1986  0.3613
11704TIP3    H156527   3.669   5.548   5.586  0.4993 -0.8337  0.3159
11704TIP3    H256528   3.745   5.674   5.619 -0.9511 -0.0570  0.7523
11705TIP3   OH256529   3.066   1.419   6.401 -0.1506  0.5212  0.3117
11705TIP3    H156530   3.069   1.447   6.492 -0.0940  1.7769 -0.0714
11705TIP3    H256531   3.075   1.324   6.405 -1.1954  0.4572  1.6778
11706TIP3   OH256532   6.588   4.611   5.408  0.3259 -0.7409  0.1896
11706TIP3    H156533   6.526   4.660   5.461  0.4571 -0.2011 -0.1506
11706TIP3    H256534   6.533   4.569   5.341  0.2013 -1.1506  0.5475
11707TIP3   OH256535   5.742   5.785  16.746  0.5846 -0.5165 -0.1686
11707TIP3    H156536   5.805   5.798  16.675  0.8629 -1.1592 -0.0494
11707TIP3    H256537   5.768   5.848  16.813 -0.5697  1.1081 -1.2147
11708TIP3   OH256538   5.641   2.657  15.875  0.3481  0.6174 -0.1666
11708TIP3    H156539   5.669   2.608  15.798  0.2355  1.1006 -0.5204
11708TIP3    H256540   5.718   2.660  15.932  0.5233  0.5237 -0.3982
11709TIP3   OH256541   4.691   1.283   1.108  0.4590 -0.1401 -0.0982
11709TIP3    H156542   4.698   1.197   1.150 -3.2659 -0.6603 -0.3770
11709TIP3    H256543   4.705   1.266   1.015 -0.7169 -0.5454 -0.2097
11710TIP3   OH256544   4.784   5.758   4.047 -0.3837  0.2161 -0.4662
11710TIP3    H156545   4.693   5.736   4.026 -0.3521  0.4172 -0.8254
11710TIP3    H256546   4.831   5.674   4.040 -0.7935 -0.1660  1.1696
11711TIP3   OH256547   6.526   3.623   5.547  0.3585  0.0073 -0.2247
11711TIP3    H156548   6.601   3.604   5.603  1.0171  1.4213 -0.5960
11711TIP3    H256549   6.543   3.574   5.466  0.4459 -0.3639  0.0188
11712TIP3   OH256550   6.540   4.579  11.098 -0.1483 -0.2689  0.1378
11712TIP3    H156551   6.587   4.564  11.180  0.6117 -0.7044 -0.3778
11712TIP3    H256552   6.606   4.612  11.038 -0.6996  0.0180 -0.3123
11713TIP3   OH256553   3.679   3.606  16.600 -0.6620  0.5623  0.1443
11713TIP3    H156554   3.708   3.690  16.563 -1.2874  0.0699 -1.4626
11713TIP3    H256555   3.683   3.620  16.695  0.3231  2.0399 -0.0892
11714TIP3   OH256556   2.415   2.189  14.337 -0.1771  0.1103 -0.7746
11714TIP3    H156557   2.336   2.242  14.349 -1.1030 -0.8163 -2.5200
11714TIP3    H256558   2.487   2.251  14.347 -1.0910  0.9059  1.1854
11715TIP3   OH256559   1.317   2.973   5.644  0.8116 -0.3875  0.3740
11715TIP3    H156560   1.395   2.925   5.616  1.0940  0.7392 -0.8103
11715TIP3    H256561   1.349   3.031   5.713  0.8343 -0.5834  0.5291
11716TIP3   OH256562   3.218   0.838  15.056  0.1571  0.0127  0.2247
11716TIP3    H156563   3.255   0.784  14.987  0.9756  1.0223 -0.1462
11716TIP3    H256564   3.124   0.838  15.040  0.4579  1.2471 -1.6357
11717TIP3   OH256565   0.785   2.156   6.005  0.3029 -0.4779  0.0995
11717TIP3    H156566   0.854   2.096   5.978  0.0062 -0.1066 -1.5272
11717TIP3    H256567   0.738   2.177   5.924  0.0159  1.4554  0.7464
11718TIP3   OH256568   4.582   1.121  16.091  0.0212  0.3650 -0.1481
11718TIP3    H156569   4.533   1.084  16.164 -0.3549 -1.9575 -1.5129
11718TIP3    H256570   4.627   1.197  16.128 -1.1009 -0.0521  2.1802
11719TIP3   OH256571   2.674   4.505  11.734  0.0674 -0.4120 -0.0750
11719TIP3    H156572   2.668   4.428  11.791  0.0009 -0.9252 -0.7719
11719TIP3    H256573   2.766   4.511  11.711 -0.1318 -1.0979 -1.1192
11720TIP3   OH256574   1.088   1.843  11.288 -0.2406  0.6632  0.2027
11720TIP3    H156575   1.183   1.852  11.300 -0.0389 -0.0367 -0.8099
11720TIP3    H256576   1.076   1.835  11.194 -1.2730  0.3117  0.3518
11721TIP3   OH256577   1.044   5.568   2.368  0.4980 -0.0863 -0.6227
11721TIP3    H156578   1.077   5.587   2.456 -0.6421 -0.6903 -0.0495
11721TIP3    H256579   1.109   5.509   2.330  1.2878  0.6307 -0.4068
11722TIP3   OH256580   1.278   4.779   0.870 -0.7198 -0.4444  0.5078
11722TIP3    H156581   1.286   4.780   0.775  0.3954 -1.2521  0.5839
11722TIP3    H256582   1.203   4.836   0.889 -2.1463 -1.7987 -0.9480
11723TIP3   OH256583   6.080   2.291  11.457  0.5521  0.2103 -1.1242
11723TIP3    H156584   6.105   2.312  11.367 -1.1236  1.4972 -1.3252
11723TIP3    H256585   6.082   2.375  11.503  1.0559 -0.3828 -0.0345
11724TIP3   OH256586   5.974   2.221   5.631  0.0118 -0.2179 -0.1205
11724TIP3    H156587   5.956   2.199   5.540 -2.6868 -1.3807  0.6454
11724TIP3    H256588   5.981   2.136   5.675 -1.2207  0.3311  1.1885
11725TIP3   OH256589   4.617   0.555  11.958 -0.7970 -0.1683 -0.1262
11725TIP3    H156590   4.656   0.557  11.870 -0.6681 -1.7737 -0.1141
11725TIP3    H256591   4.674   0.611  12.011 -0.3226  0.0323 -0.8425
11726TIP3   OH256592   4.357   5.186  13.875  0.2651  0.5993 -0.3027
11726TIP3    H156593   4.263   5.173  13.876  0.1207  1.6570 -0.4145
11726TIP3    H256594   4.374   5.255  13.939  1.1980 -1.0503  1.3037
11727TIP3   OH256595   3.710   6.553   6.019 -0.3668 -0.9789  0.2482
11727TIP3    H156596   3.664   6.542   5.935 -0.1297 -1.3881  0.1719
11727TIP3    H256597   3.641   6.580   6.080 -0.4494 -0.1963 -0.1884
11728TIP3   OH256598   3.664   6.144  16.184  0.5686  0.1384  0.0671
11728TIP3    H156599   3.652   6.208  16.254 -0.0597 -0.4155  0.4708
11728TIP3    H256600   3.759   6.137  16.174  0.6522  0.5743  0.5372
11729TIP3   OH256601   6.210   3.664  13.038 -0.4134 -0.1492  0.3592
11729TIP3    H156602   6.184   3.625  13.122 -2.4225  0.9685  0.2886
11729TIP3    H256603   6.144   3.633  12.976 -1.1798  2.1131 -0.0008
11730TIP3   OH256604   1.644   6.245   3.363  0.5464  0.0224 -0.2467
11730TIP3    H156605   1.683   6.275   3.281  1.1572 -0.2641 -0.0680
11730TIP3    H256606   1.571   6.304   3.379 -0.7534 -1.0850 -1.9821
11731TIP3   OH256607   1.828   0.776  15.132  0.3975 -0.1874 -0.0137
11731TIP3    H156608   1.806   0.866  15.155  0.9222  0.0287 -0.3510
11731TIP3    H256609   1.767   0.754  15.061  0.1053 -0.1800  0.2379
11732TIP3   OH256610   3.881   2.143   2.777  0.2643  0.0727  0.1944
11732TIP3    H156611   3.961   2.099   2.746  0.0688 -0.7876  0.8892
11732TIP3    H256612   3.890   2.144   2.872  1.5135  3.9103  0.1383
11733TIP3   OH256613   4.274   4.646  12.938  0.2914 -0.5021 -0.2732
11733TIP3    H156614   4.355   4.693  12.958  0.0691 -0.0323 -0.4605
11733TIP3    H256615   4.208   4.689  12.992  0.1199 -0.7263 -0.3041
11734TIP3   OH256616   4.102   0.665  11.905 -0.0172  0.7591  0.3771
11734TIP3    H156617   4.117   0.598  11.838 -0.9531  2.0007 -1.1100
11734TIP3    H256618   4.187   0.677  11.947  1.1565  1.6869 -2.2018
11735TIP3   OH256619   1.063   4.035   0.977 -0.0445 -0.3847  0.4188
11735TIP3    H156620   1.034   3.960   0.926  0.0763  0.7317 -1.3532
11735TIP3    H256621   1.158   4.038   0.965 -0.2216  0.9180 -0.7657
11736TIP3   OH256622   3.244   5.097   3.553  0.5904 -0.5004 -0.6177
11736TIP3    H156623   3.236   5.110   3.647 -0.8553  0.0594 -0.7937
11736TIP3    H256624   3.301   5.021   3.543  0.1568 -1.0112  0.7222
11737TIP3   OH256625   5.845   4.498  11.229  0.6373  0.2153 -0.5812
11737TIP3    H156626   5.906   4.541  11.289  0.3792 -2.3800  1.6578
11737TIP3    H256627   5.767   4.482  11.282  0.7473 -2.9847 -1.3196
11738TIP3   OH256628   3.307   0.401  11.491 -0.3529 -0.1754 -0.1887
11738TIP3    H156629   3.284   0.463  11.421 -1.8719 -0.5567 -0.0347
11738TIP3    H256630   3.358   0.453  11.552 -3.6283  1.5988  1.1407
11739TIP3   OH256631   2.838   2.666   1.388 -0.5762 -0.0984 -0.1729
11739TIP3    H156632   2.880   2.599   1.442  2.2578  1.7395  0.0337
11739TIP3    H256633   2.837   2.628   1.300  1.4014 -0.2801 -0.1452
11740TIP3   OH256634   1.637   5.648   6.586  0.0616 -0.6838 -0.0756
11740TIP3    H156635   1.699   5.581   6.611 -0.2892 -0.5605  1.1411
11740TIP3    H256636   1.552   5.616   6.617 -0.1766  0.1035  0.0986
11741TIP3   OH256637   2.002   1.883  11.032 -0.0969  0.0157 -0.8590
11741TIP3    H156638   2.078   1.897  10.975  0.6534 -0.1673  0.0893
11741TIP3    H256639   2.030   1.815  11.093 -0.5293  0.9604  0.4024
11742TIP3   OH256640   6.629   1.365  17.175 -0.0331 -0.3943  0.4112
11742TIP3    H156641   6.552   1.313  17.198  1.1487 -0.9809  3.1431
11742TIP3    H256642   6.669   1.389  17.258  3.2705 -0.8685 -0.9640
11743TIP3   OH256643   4.805   1.506  15.271 -1.0268  0.0220  0.7771
11743TIP3    H156644   4.880   1.515  15.212 -0.1601 -1.4072  1.6293
11743TIP3    H256645   4.775   1.596  15.286 -0.9599  0.4494 -1.4173
11744TIP3   OH256646   3.545   6.749  14.368  0.4796  0.0979  0.1776
11744TIP3    H156647   3.630   6.775  14.404  0.8799  0.3589 -0.9293
11744TIP3    H256648   3.483   6.762  14.439  1.0151  2.0920  0.2951
11745TIP3   OH256649   2.362   1.361  14.561 -0.1431 -0.1795 -0.4151
11745TIP3    H156650   2.298   1.390  14.626  0.1155  1.2546 -0.7808
11745TIP3    H256651   2.308   1.320  14.492 -0.4565 -1.1996  0.4254
11746TIP3   OH256652   3.003   4.601   3.793  0.1041  0.2659  0.0060
11746TIP3    H156653   2.992   4.519   3.746  0.1438  1.0541 -1.3882
11746TIP3    H256654   2.929   4.655   3.766  0.3122  0.8457  0.5770
11747TIP3   OH256655   6.375   6.708  14.267 -0.0092  0.2073  0.1784
11747TIP3    H156656   6.463   6.739  14.247  0.0452 -0.6748 -0.9891
11747TIP3    H256657   6.388   6.631  14.322 -0.0639  0.3037  0.3266
11748TIP3   OH256658   2.656   4.096   4.776  0.2334  0.4214  0.0332
11748TIP3    H156659   2.673   4.012   4.732 -0.6326  0.1425  0.2197
11748TIP3    H256660   2.623   4.153   4.707 -2.0098 -0.2922  0.4691
11749TIP3   OH256661   4.297   0.301  15.535 -0.0517 -0.1464 -0.2355
11749TIP3    H156662   4.329   0.306  15.625  1.6881  1.3003 -0.9011
11749TIP3    H256663   4.204   0.281  15.544  0.5795 -2.4515  1.8026
11750TIP3   OH256664   2.563   4.414   5.890  0.1403  0.1421 -0.0830
11750TIP3    H156665   2.657   4.399   5.905  0.4574  0.8661 -1.2906
11750TIP3    H256666   2.549   4.505   5.916 -0.0188  0.3419 -0.8784
11751TIP3   OH256667   5.566   0.704   2.354  0.1109 -0.7199 -0.5025
11751TIP3    H156668   5.641   0.742   2.400  0.7850 -1.4670 -0.9568
11751TIP3    H256669   5.605   0.654   2.282 -0.6574 -3.1806  0.7171
11752TIP3   OH256670   5.876   3.188  13.201  0.1960  0.4221 -0.2837
11752TIP3    H156671   5.912   3.275  13.217 -0.7223  1.3589 -3.0114
11752TIP3    H256672   5.939   3.146  13.142  1.2402 -1.2458  1.9557
11753TIP3   OH256673   3.898   1.034   2.839 -0.1864  0.1233  0.5341
11753TIP3    H156674   3.984   1.018   2.800 -0.4065  0.0642  0.0777
11753TIP3    H256675   3.854   1.093   2.777 -1.3132 -1.6044 -0.3318
11754TIP3   OH256676   2.768   5.892   1.019  0.2716 -0.2255 -0.5162
11754TIP3    H156677   2.720   5.813   0.992 -0.9807  0.0153  0.9651
11754TIP3    H256678   2.748   5.956   0.950 -0.5763 -0.4952 -0.5279
11755TIP3   OH256679   0.184   4.648  16.850  0.0150  0.5384 -0.3337
11755TIP3    H156680   0.230   4.627  16.931  1.8788 -0.0880 -1.5280
11755TIP3    H256681   0.097   4.610  16.862  0.7714 -0.9038  0.7668
11756TIP3   OH256682   3.019   3.654   3.532  0.2145  0.0271  0.1699
11756TIP3    H156683   2.942   3.653   3.589  1.3785  0.4190  1.7728
11756TIP3    H256684   3.015   3.571   3.485 -0.9580 -0.1371  0.5388
11757TIP3   OH256685   4.595   4.574  14.641 -0.1850  0.0668  0.3262
11757TIP3    H156686   4.691   4.577  14.645  0.0413 -0.1011 -2.9107
11757TIP3    H256687   4.568   4.535  14.724  2.6016 -0.5939  0.9702
11758TIP3   OH256688   6.296   1.466   4.469  0.2187 -0.1918  0.4758
11758TIP3    H156689   6.344   1.520   4.531  1.5079  2.2255 -2.4948
11758TIP3    H256690   6.363   1.410   4.429 -0.8223 -2.7731  2.2171
11759TIP3   OH256691   1.985   3.863  16.614 -0.2602 -0.0081  0.3153
11759TIP3    H156692   1.899   3.832  16.583 -0.6340  0.8907  0.4331
11759TIP3    H256693   2.015   3.923  16.546 -0.8486  1.5762  1.4177
11760TIP3   OH256694   3.619   3.999  13.149 -0.4392 -0.1792 -0.0460
11760TIP3    H156695   3.700   4.033  13.110 -1.1921 -0.0253 -1.5175
11760TIP3    H256696   3.636   3.905  13.162 -0.2758 -0.2853 -1.0153
11761TIP3   OH256697   4.336   2.962  14.487  0.0290  0.0727  0.1797
11761TIP3    H156698   4.426   2.991  14.476 -0.1713  1.5139  2.1607
11761TIP3    H256699   4.342   2.867  14.496  1.2819  0.0989 -0.3121
11762TIP3   OH256700   6.338   6.529  14.483  0.4704  0.1733 -0.3562
11762TIP3    H156701   6.383   6.487  14.556 -1.0141 -2.8716 -1.1521
11762TIP3    H256702   6.256   6.562  14.521  0.9615  1.0715 -0.0601
11763TIP3   OH256703   6.129   1.086  13.823 -0.7306 -0.3159 -0.3473
11763TIP3    H156704   6.215   1.069  13.861 -0.3151 -0.2902 -1.2495
11763TIP3    H256705   6.067   1.075  13.895 -0.0769 -1.4868  0.0408
11764TIP3   OH256706   2.871   1.798  15.262 -0.7972 -0.7713 -0.0883
11764TIP3    H156707   2.870   1.891  15.285 -2.7912 -1.1770  1.6438
11764TIP3    H256708   2.964   1.774  15.264 -0.2486  1.1691 -0.6356
11765TIP3   OH256709   5.281   6.345   2.672  0.2258  0.1302  0.1097
11765TIP3    H156710   5.248   6.333   2.762 -0.0581 -0.7345 -0.0995
11765TIP3    H256711   5.204   6.328   2.617  0.5208  0.1744 -0.3083
11766TIP3   OH256712   3.452   3.459  16.731 -0.5105  0.3443 -0.2430
11766TIP3    H156713   3.446   3.515  16.809 -0.1106  0.1996 -0.1043
11766TIP3    H256714   3.501   3.511  16.667  0.6562 -0.1750  0.1989
11767TIP3   OH256715   5.297   4.694  12.192  0.1742  0.0650  0.7070
11767TIP3    H156716   5.330   4.751  12.123  0.2288  0.2984  0.9208
11767TIP3    H256717   5.351   4.616  12.188 -0.4694 -0.3351 -0.1539
11768TIP3   OH256718   4.872   5.363  13.038  0.1596 -0.3239 -0.1593
11768TIP3    H156719   4.823   5.436  13.001  2.0453 -0.0413 -2.2142
11768TIP3    H256720   4.842   5.286  12.990  0.7030 -0.3556 -0.4607
11769TIP3   OH256721   0.832   0.843  11.908  0.4546  0.4652  0.0824
11769TIP3    H156722   0.885   0.856  11.986  0.5747  1.5340 -0.1693
11769TIP3    H256723   0.762   0.784  11.936  0.5334  0.7919  0.9722
11770TIP3   OH256724   0.652   0.915   3.732  0.8280 -0.2915 -0.5955
11770TIP3    H156725   0.720   0.964   3.687  1.2900  0.5526  0.9807
11770TIP3    H256726   0.582   0.905   3.667  1.5466  0.7354 -1.5436
11771TIP3   OH256727   2.747   1.114  15.182 -0.2745  0.1914  0.1754
11771TIP3    H156728   2.762   1.031  15.228  0.2155 -0.3060 -0.8742
11771TIP3    H256729   2.652   1.122  15.175 -0.2846 -1.0697 -1.1497
11772TIP3   OH256730   6.014   2.691  11.885 -0.0174  0.5532 -0.1591
11772TIP3    H156731   6.039   2.755  11.818 -2.5758  3.1901  1.2955
11772TIP3    H256732   5.971   2.621  11.836  2.2872  0.1295 -1.7074
11773TIP3   OH256733   4.490   0.192  12.309 -0.2571 -0.2471 -0.4399
11773TIP3    H156734   4.447   0.107  12.303 -2.2674  0.7042  0.0209
11773TIP3    H256735   4.498   0.209  12.403 -0.1136  0.1917 -0.5288
11774TIP3   OH256736   3.404   1.481   1.157 -0.1910 -0.0598  0.8956
11774TIP3    H156737   3.367   1.436   1.081 -0.0073  1.1975  0.0559
11774TIP3    H256738   3.342   1.550   1.177  0.2665  0.2429  1.2649
11775TIP3   OH256739   1.646   1.909   4.042 -0.1732  0.0329  0.1859
11775TIP3    H156740   1.680   1.907   3.952  1.5198  2.0730  0.7423
11775TIP3    H256741   1.678   1.992   4.078 -0.2402 -1.0632  2.8964
11776TIP3   OH256742   3.968   5.673  16.480  0.2590  0.1755 -0.3640
11776TIP3    H156743   3.966   5.742  16.546 -0.9188 -0.8686  0.6981
11776TIP3    H256744   3.914   5.603  16.515  1.6760 -1.4323 -1.2999
11777TIP3   OH256745   1.631   0.081  13.707 -0.2796 -0.2167  0.0280
11777TIP3    H156746   1.634   0.170  13.741 -0.2255 -0.0575 -0.3945
11777TIP3    H256747   1.717   0.045  13.727 -0.1084  0.0090 -0.2903
11778TIP3   OH256748   1.475   3.324   1.771  0.4589  0.1451  0.0865
11778TIP3    H156749   1.535   3.283   1.833 -0.7305  0.9919  1.8469
11778TIP3    H256750   1.493   3.418   1.779 -1.7719  0.4871  1.4021
11779TIP3   OH256751   5.630   1.068   2.149 -0.1931 -0.3029  0.3141
11779TIP3    H156752   5.579   1.141   2.184  0.7967 -0.5787  2.4550
11779TIP3    H256753   5.711   1.107   2.118  0.5963 -0.5277  2.0244
11780TIP3   OH256754   6.590   0.130  11.435  0.5573  0.5340 -0.3245
11780TIP3    H156755   6.672   0.099  11.396 -0.2301  0.7810 -2.2475
11780TIP3    H256756   6.537   0.051  11.444 -0.2228  0.8136 -2.1949
11781TIP3   OH256757   2.361   0.636  15.077  0.0235 -0.2236  0.0292
11781TIP3    H156758   2.397   0.724  15.084  1.3067 -0.8349  1.2685
11781TIP3    H256759   2.388   0.592  15.157 -2.1265 -1.2124  0.2528
11782TIP3   OH256760   3.299   1.042   3.162  0.0075 -0.5475  0.2082
11782TIP3    H156761   3.237   0.969   3.166  0.4547 -0.8829  1.0826
11782TIP3    H256762   3.310   1.059   3.068  0.3281 -1.9595 -0.0176
11783TIP3   OH256763   2.406   3.633  15.681 -0.0261 -0.5768 -0.1149
11783TIP3    H156764   2.435   3.542  15.678 -1.6308 -1.0725 -1.0799
11783TIP3    H256765   2.467   3.675  15.741  0.8614 -2.2396  0.1875
11784TIP3   OH256766   1.460   3.071   2.190 -0.2792 -0.1711  0.2041
11784TIP3    H156767   1.513   3.008   2.238 -0.4884 -1.0512 -0.7026
11784TIP3    H256768   1.374   3.030   2.183 -0.0868 -0.3306 -1.4447
11785TIP3   OH256769   4.491   5.312  11.818  0.3266 -0.1935  0.4134
11785TIP3    H156770   4.518   5.232  11.774 -0.1985 -0.1411 -0.0068
11785TIP3    H256771   4.515   5.382  11.757 -1.5661 -0.2064 -0.3651
11786TIP3   OH256772   5.081   3.331   1.683 -0.1051  0.5208  0.0100
11786TIP3    H156773   5.090   3.271   1.757  0.5977 -0.3533 -0.7719
11786TIP3    H256774   5.126   3.410   1.710  1.0708 -0.1705  0.1209
11787TIP3   OH256775   2.438   1.802   5.946  0.3286  0.1565 -0.0802
11787TIP3    H156776   2.366   1.865   5.948 -0.4840 -0.7755  0.9470
11787TIP3    H256777   2.397   1.719   5.923  1.1382 -0.3205  0.1550
11788TIP3   OH256778   4.924   0.594   3.943  0.2062 -0.4952 -0.4546
11788TIP3    H156779   5.006   0.630   3.978 -0.5232  1.8958 -1.0463
11788TIP3    H256780   4.946   0.569   3.853  0.4746 -0.5689 -0.3706
11789TIP3   OH256781   0.865   0.482  15.415 -0.1683  0.4835 -0.3714
11789TIP3    H156782   0.951   0.512  15.386  0.0659  0.3522  0.1782
11789TIP3    H256783   0.830   0.555  15.467 -0.1873  0.3493 -0.1952
11790TIP3   OH256784   2.861   5.152  12.577 -0.6688 -0.1447 -0.5130
11790TIP3    H156785   2.842   5.231  12.527  0.1173 -0.1869 -0.8934
11790TIP3    H256786   2.894   5.184  12.661  1.1187 -0.0489 -1.2325
11791TIP3   OH256787   3.139   4.242   5.939  0.2661  0.1811 -0.1624
11791TIP3    H156788   3.086   4.162   5.944 -0.1350  0.4673  0.3533
11791TIP3    H256789   3.193   4.240   6.018 -0.3173  0.8053  0.2598
11792TIP3   OH256790   3.548   3.417   1.466  0.7922  0.5064 -0.0542
11792TIP3    H156791   3.465   3.400   1.512  1.1668  0.1023  0.4835
11792TIP3    H256792   3.548   3.511   1.451  0.3272  0.5393  0.1283
11793TIP3   OH256793   2.749   3.025   2.062 -0.5858 -0.1713  0.1601
11793TIP3    H156794   2.816   3.076   2.107  0.0882 -1.5255  0.7097
11793TIP3    H256795   2.667   3.055   2.101 -0.2544  0.9694  0.0009
11794TIP3   OH256796   4.458   0.034   0.994  0.5120 -0.7142 -0.1397
11794TIP3    H156797   4.447  -0.043   1.051  0.7122  0.3691  1.3840
11794TIP3    H256798   4.552   0.050   0.994  0.3099  0.4786  0.8123
11795TIP3   OH256799   2.933   6.339  11.787  0.2145 -0.2168 -0.1050
11795TIP3    H156800   2.846   6.301  11.797  0.5776 -1.1312 -0.3576
11795TIP3    H256801   2.992   6.264  11.795  0.9653  0.3685 -0.1531
11796TIP3   OH256802   0.285   2.247  12.509  0.3784 -0.0517 -0.0671
11796TIP3    H156803   0.199   2.213  12.483  0.3641  0.1960 -0.3365
11796TIP3    H256804   0.272   2.341  12.520  0.4688 -0.0998  0.4961
11797TIP3   OH256805   0.413   6.036   4.098  0.1795 -0.2148  0.3958
11797TIP3    H156806   0.380   6.102   4.160  1.4780 -1.6906  2.7146
11797TIP3    H256807   0.494   6.074   4.065  1.3312 -0.9330  2.3154
11798TIP3   OH256808   6.314   4.790  16.383 -0.0966 -0.7016 -0.3026
11798TIP3    H156809   6.303   4.807  16.477 -1.4862  0.3769 -0.6414
11798TIP3    H256810   6.332   4.876  16.345  0.8215 -1.1896 -0.9723
11799TIP3   OH256811   3.914   3.399   3.834  0.3756 -0.0404  0.2870
11799TIP3    H156812   3.853   3.390   3.907  2.4116 -0.9421  1.9052
11799TIP3    H256813   3.955   3.484   3.847 -0.2301  0.3886 -0.5748
11800TIP3   OH256814   4.927   6.250  14.649 -0.4330  0.1350  0.2878
11800TIP3    H156815   4.944   6.298  14.568 -1.4097 -1.8630 -1.1668
11800TIP3    H256816   4.889   6.167  14.620 -0.1390 -0.9325  2.7708
11801TIP3   OH256817   1.057   0.153   5.152 -0.2907 -0.6507 -0.4834
11801TIP3    H156818   1.002   0.085   5.191  0.7491 -0.9201  0.5177
11801TIP3    H256819   1.109   0.107   5.086  0.3039 -0.7934  0.0880
11802TIP3   OH256820   2.060   0.229   2.236  0.1392  0.2251  0.3985
11802TIP3    H156821   2.013   0.156   2.276  1.7627 -1.0207  0.0813
11802TIP3    H256822   2.121   0.188   2.175  0.9223  1.8541  0.0564
11803TIP3   OH256823   5.290   5.109  11.679  0.3168 -0.0458  0.2952
11803TIP3    H156824   5.367   5.158  11.650 -0.1496  0.3072 -0.3590
11803TIP3    H256825   5.293   5.115  11.775 -0.3437  2.2164  0.2005
11804TIP3   OH256826   3.663   6.358   1.764 -0.5359 -0.3838  0.1228
11804TIP3    H156827   3.607   6.280   1.768 -1.3722  0.2415  0.9240
11804TIP3    H256828   3.750   6.326   1.787 -0.2059 -1.6671 -2.7183
11805TIP3   OH256829   0.376   5.478  17.172  0.4701  0.2333  0.9666
11805TIP3    H156830   0.464   5.456  17.202  0.0054  0.8457  2.9062
11805TIP3    H256831   0.365   5.570  17.194 -0.2483  0.4468 -0.2662
11806TIP3   OH256832   6.068   0.252   2.528  0.3195  0.2333  0.2475
11806TIP3    H156833   6.039   0.207   2.449  1.3423  0.2578 -0.1534
11806TIP3    H256834   6.131   0.191   2.567  0.7366  0.7551  0.3879
11807TIP3   OH256835   5.128   2.315  12.307  0.2930 -0.2183 -0.0565
11807TIP3    H156836   5.167   2.375  12.243  0.6498  0.2465  0.5968
11807TIP3    H256837   5.197   2.301  12.371 -0.2669 -0.2302  0.5417
11808TIP3   OH256838   1.668   4.320   4.896  0.1728 -0.3825  0.1616
11808TIP3    H156839   1.745   4.292   4.947  0.9651  1.3497 -0.0510
11808TIP3    H256840   1.636   4.398   4.942  0.6336  0.9387 -1.7209
11809TIP3   OH256841   4.638   4.046  16.388 -0.4404  0.5974  0.2554
11809TIP3    H156842   4.602   4.134  16.376  0.4957  1.0062  0.3520
11809TIP3    H256843   4.615   4.022  16.477 -2.2556 -0.0004 -0.3560
11810TIP3   OH256844   2.439   4.570   3.351  0.0842 -0.0458 -0.4405
11810TIP3    H156845   2.450   4.476   3.368 -1.3694 -0.0144  0.7721
11810TIP3    H256846   2.345   4.581   3.340  0.1298  1.4883  0.7269
11811TIP3   OH256847   0.848   1.337   0.518  0.4561  0.1086 -0.3646
11811TIP3    H156848   0.788   1.384   0.460 -0.3270  0.8817  1.0414
11811TIP3    H256849   0.862   1.253   0.475 -0.9406  0.2686 -1.1589
11812TIP3   OH256850   3.520   0.240   4.843  0.0686 -0.3204  0.1790
11812TIP3    H156851   3.550   0.150   4.833 -1.2273 -0.9250  1.5327
11812TIP3    H256852   3.431   0.240   4.808 -0.8159 -0.1548  2.3403
11813TIP3   OH256853   3.357   2.719   2.336 -0.5822 -0.1531  0.2522
11813TIP3    H156854   3.341   2.806   2.300 -0.7446  1.1268  3.2869
11813TIP3    H256855   3.282   2.702   2.393  1.3675 -0.5678  2.7697
11814TIP3   OH256856   2.169   1.502   4.140 -0.2738 -0.4335  0.3407
11814TIP3    H156857   2.092   1.508   4.083 -1.1463 -1.3377  1.3884
11814TIP3    H256858   2.133   1.506   4.229  1.1696  2.2115  0.8688
11815TIP3   OH256859   4.993   5.465  13.713 -0.1102  0.0084  0.8355
11815TIP3    H156860   5.056   5.524  13.754 -1.5931  2.1284  0.1797
11815TIP3    H256861   5.003   5.481  13.619 -0.3581 -0.9884  0.6343
11816TIP3   OH256862   1.022   5.924   2.320 -0.1539  0.2807  0.0548
11816TIP3    H156863   1.115   5.906   2.306 -0.4097 -2.4393  1.6073
11816TIP3    H256864   1.020   5.991   2.388  0.6631 -1.0167  1.3854
11817TIP3   OH256865   4.730   5.462  12.007  0.3335  0.3945  0.2884
11817TIP3    H156866   4.702   5.524  12.074 -0.2097 -0.0094  0.4405
11817TIP3    H256867   4.691   5.495  11.926 -1.5355 -0.7798  0.6900
11818TIP3   OH256868   3.612   1.398  14.898 -0.3236 -0.0716 -0.1547
11818TIP3    H156869   3.540   1.412  14.960 -0.7791 -0.9628 -0.4775
11818TIP3    H256870   3.669   1.474  14.910 -0.5208 -0.1271  1.2109
11819TIP3   OH256871   2.096   0.444   3.749 -0.4671 -0.7064  0.3394
11819TIP3    H156872   2.083   0.362   3.795 -0.9122 -1.5875 -1.3140
11819TIP3    H256873   2.180   0.433   3.703 -0.7230 -0.4056 -0.2127
11820TIP3   OH256874   0.281   0.508   2.956  0.9862 -0.1602 -0.3850
11820TIP3    H156875   0.290   0.453   2.878 -1.9935  0.0304 -0.9177
11820TIP3    H256876   0.285   0.446   3.029 -1.7430 -1.0420 -0.9535
11821TIP3   OH256877   2.453   3.542   4.073 -0.4182  0.5817  0.3944
11821TIP3    H156878   2.535   3.585   4.048 -0.4321  0.8120  0.7443
11821TIP3    H256879   2.458   3.456   4.033 -0.6365  1.1159 -0.8102
11822TIP3   OH256880   6.319   2.450  11.388  0.2306  0.2442  0.0145
11822TIP3    H156881   6.326   2.513  11.317  0.1697 -0.6696 -0.8062
11822TIP3    H256882   6.242   2.479  11.438  0.3750  0.9784 -0.1848
11823TIP3   OH256883   4.206   2.148  14.095 -0.1129 -0.5640 -0.1466
11823TIP3    H156884   4.253   2.146  14.178  0.9353 -2.0767 -0.7728
11823TIP3    H256885   4.118   2.179  14.118  0.7482  0.9546  1.2185
11824TIP3   OH256886   4.199   1.450   2.851 -0.1565 -0.7307  0.0045
11824TIP3    H156887   4.145   1.390   2.902  0.1861 -0.2242  0.9827
11824TIP3    H256888   4.243   1.394   2.787 -1.4773 -1.2073 -0.4962
11825TIP3   OH256889   3.591   6.075   6.612 -0.5572  0.6333 -0.0327
11825TIP3    H156890   3.524   6.133   6.647 -1.1402 -0.2599  0.3649
11825TIP3    H256891   3.568   6.064   6.520 -1.4683 -0.3568  0.3047
11826TIP3   OH256892   1.104   5.744  10.783 -0.0002 -0.3907 -0.2166
11826TIP3    H156893   1.148   5.774  10.703 -0.5629  1.3483  0.1107
11826TIP3    H256894   1.106   5.819  10.842 -2.6789 -0.5103  0.1052
11827TIP3   OH256895   1.939   4.371  10.911 -0.6012  0.3988 -0.0344
11827TIP3    H156896   1.976   4.395  10.826  0.4028 -1.1401 -0.0505
11827TIP3    H256897   1.951   4.276  10.916 -0.7666  0.4629  1.7813
11828TIP3   OH256898   1.752   6.030  16.468 -0.1228  0.1871 -0.5282
11828TIP3    H156899   1.767   6.081  16.547  2.2020 -2.2169  0.6851
11828TIP3    H256900   1.782   6.086  16.397  1.2259  0.9944  0.6537
11829TIP3   OH256901   3.772   5.168  16.270  0.0459 -0.5672 -0.5900
11829TIP3    H156902   3.742   5.231  16.336 -2.9932 -1.4546 -1.0766
11829TIP3    H256903   3.861   5.145  16.298 -0.7848 -0.0970  2.5729
11830TIP3   OH256904   6.131   6.703  11.462  0.6441 -0.4873 -0.0544
11830TIP3    H156905   6.104   6.616  11.490  0.0588 -0.3538 -0.1894
11830TIP3    H256906   6.093   6.713  11.375  0.2769  0.0963  0.1653
11831TIP3   OH256907   0.855   4.182   5.405 -0.5139  0.1429  0.2836
11831TIP3    H156908   0.897   4.124   5.468 -0.4962  1.4147  1.4750
11831TIP3    H256909   0.900   4.266   5.416 -1.7051  0.8547 -0.1705
11832TIP3   OH256910   2.059   0.717  13.291  0.3918  0.0979 -0.1926
11832TIP3    H156911   2.087   0.666  13.215 -2.4397 -0.3086 -0.9938
11832TIP3    H256912   2.106   0.800  13.282  0.5682 -0.1692 -2.0359
11833TIP3   OH256913   4.061   2.573   2.460  0.0658 -0.0836 -0.0485
11833TIP3    H156914   3.974   2.614   2.454 -0.5791 -1.5849 -1.3060
11833TIP3    H256915   4.103   2.617   2.534 -2.5100 -0.7402  1.8750
11834TIP3   OH256916   4.836   1.714  13.809  0.1667  0.0035  0.0093
11834TIP3    H156917   4.892   1.706  13.886  1.1572 -1.4161 -0.8338
11834TIP3    H256918   4.821   1.624  13.781  2.7118  0.5453 -3.5039
11835TIP3   OH256919   2.378   3.741   2.564  0.4222 -0.3656 -0.0639
11835TIP3    H156920   2.322   3.728   2.488  0.5089 -1.1785  0.0039
11835TIP3    H256921   2.467   3.741   2.529  0.3720  1.6103 -0.2629
11836TIP3   OH256922   3.733   2.445  12.746  0.4701 -0.0092  0.2007
11836TIP3    H156923   3.717   2.531  12.784 -0.1260 -0.2114  0.4166
11836TIP3    H256924   3.714   2.384  12.817 -0.0045 -0.3595 -0.2268
11837TIP3   OH256925   2.584   1.748  13.654 -0.7447  0.1958 -0.4595
11837TIP3    H156926   2.568   1.791  13.738  0.4136 -1.4097  0.6244
11837TIP3    H256927   2.617   1.818  13.597  2.2199  0.5994  1.6101
11838TIP3   OH256928   6.409   1.192   2.078  0.3003  0.2713 -0.3450
11838TIP3    H156929   6.360   1.267   2.111  1.5019  1.9421 -2.1945
11838TIP3    H256930   6.441   1.148   2.157 -1.4236  1.0072  0.8028
11839TIP3   OH256931   1.488   0.488   5.683 -0.9501  0.7022  0.3752
11839TIP3    H156932   1.541   0.473   5.761 -0.1733 -0.0436 -0.2867
11839TIP3    H256933   1.434   0.409   5.675  0.2487 -0.0172 -0.8305
11840TIP3   OH256934   5.245   6.660  12.961  0.2101 -0.1534 -0.5451
11840TIP3    H156935   5.304   6.727  12.997 -0.3182  0.7814 -1.3761
11840TIP3    H256936   5.299   6.612  12.898  0.3000  0.2113 -0.7506
11841TIP3   OH256937   5.466   0.052   3.010  0.3349 -0.0515 -0.4950
11841TIP3    H156938   5.500   0.097   3.087  0.6261 -0.4214 -0.4092
11841TIP3    H256939   5.460   0.121   2.943 -1.6990  0.6721  0.4000
11842TIP3   OH256940   2.342   3.687   1.963 -0.4256  0.1967  0.4151
11842TIP3    H156941   2.400   3.701   2.038  0.4999 -0.2474 -0.1991
11842TIP3    H256942   2.324   3.775   1.930  0.8207  0.2802 -0.0688
11843TIP3   OH256943   0.742   4.997   0.302 -0.2310 -0.3742 -0.5892
11843TIP3    H156944   0.790   4.921   0.336  0.3632  0.2278 -0.0730
11843TIP3    H256945   0.804   5.043   0.247 -0.3213  0.2127 -0.2071
11844TIP3   OH256946   0.793   5.228  17.040  0.1236  0.7491  0.4782
11844TIP3    H156947   0.808   5.141  17.078 -1.7327  0.2104 -0.0005
11844TIP3    H256948   0.876   5.250  16.998  0.2115 -1.3615 -0.5281
11845TIP3   OH256949   0.145   1.943   4.208  0.4830  0.1477  0.1128
11845TIP3    H156950   0.151   1.993   4.289  1.1839  0.4016 -0.0846
11845TIP3    H256951   0.166   2.007   4.139 -2.2073  0.4660 -0.4715
11846TIP3   OH256952   4.334   0.193  10.665  0.1679  0.0360 -0.2886
11846TIP3    H156953   4.253   0.234  10.696 -0.2486 -0.6049 -0.5135
11846TIP3    H256954   4.371   0.256  10.604 -0.7506 -0.1421 -1.0516
11847TIP3   OH256955   1.949   2.704   2.303  0.3553  0.4367  0.0800
11847TIP3    H156956   1.974   2.789   2.341 -0.8580  1.3258 -1.0473
11847TIP3    H256957   2.019   2.645   2.328  1.2195  1.7772  0.9061
11848TIP3   OH256958   0.702   0.109  14.961  0.4978  0.0565  0.2562
11848TIP3    H156959   0.697   0.089  14.867  1.2881 -1.0208  0.4372
11848TIP3    H256960   0.679   0.202  14.967  0.0020  0.0261 -0.9546
11849TIP3   OH256961   1.815   3.294  11.640 -0.1643  0.4851  0.5705
11849TIP3    H156962   1.808   3.388  11.659 -0.1276  0.7062 -0.4956
11849TIP3    H256963   1.884   3.288  11.574  0.4077 -0.3825  1.2387
11850TIP3   OH256964   1.220   4.817   0.611  0.3881  0.7063  0.4384
11850TIP3    H156965   1.267   4.771   0.541 -0.2767  0.6423  0.0346
11850TIP3    H256966   1.218   4.908   0.582 -1.3809  0.3959 -0.4463
11851TIP3   OH256967   6.002   3.774   5.017 -0.3549 -0.1355  0.7806
11851TIP3    H156968   5.946   3.824   4.957  2.0875  1.1598 -0.4997
11851TIP3    H256969   6.090   3.806   4.999  0.6498 -1.0748  3.7929
11852TIP3   OH256970   3.435   2.381   6.055  0.0387 -0.3850 -1.1518
11852TIP3    H156971   3.355   2.335   6.077  1.5159 -2.5385 -0.0715
11852TIP3    H256972   3.478   2.326   5.989  1.0801  0.2422 -1.0182
11853TIP3   OH256973   2.711   2.219   5.234  0.1755 -0.3362  0.2548
11853TIP3    H156974   2.695   2.279   5.161 -3.8593 -0.0604  1.1958
11853TIP3    H256975   2.734   2.136   5.193  3.6286  1.2192 -1.1249
11854TIP3   OH256976   4.529   4.057   1.358  0.0490  0.1830 -0.0707
11854TIP3    H156977   4.501   4.132   1.307  2.7259  2.0397  1.0767
11854TIP3    H256978   4.559   3.993   1.293 -0.0234  1.0542 -0.9628
11855TIP3   OH256979   5.910   2.544   1.920  0.0163 -0.6695  0.1881
11855TIP3    H156980   5.879   2.454   1.911 -0.8790 -0.5349  1.6442
11855TIP3    H256981   5.926   2.574   1.831 -1.2795 -1.7154 -0.4060
11856TIP3   OH256982   1.210   2.830  13.096  0.2253 -0.0720  0.7521
11856TIP3    H156983   1.148   2.826  13.169  0.1452 -0.7384  0.6439
11856TIP3    H256984   1.198   2.919  13.061 -1.3089 -0.4864  0.1681
11857TIP3   OH256985   3.725   2.876   3.066  0.8032 -0.1475  0.5358
11857TIP3    H156986   3.652   2.879   3.127  0.7623  0.1469  0.4709
11857TIP3    H256987   3.701   2.808   3.003 -0.8637  2.1051 -1.3312
11858TIP3   OH256988   6.238   0.629   3.289  0.1245 -0.1391  0.4722
11858TIP3    H156989   6.224   0.619   3.195  0.9706 -1.1007  0.4409
11858TIP3    H256990   6.163   0.680   3.319 -1.1702 -1.5069 -0.3870
11859TIP3   OH256991   6.099   2.258   3.506 -0.0195  0.0914 -0.3538
11859TIP3    H156992   6.161   2.252   3.579  0.8854 -1.3302 -1.2159
11859TIP3    H256993   6.143   2.313   3.441 -0.5375  0.7880 -0.1234
11860TIP3   OH256994   0.977   6.084   3.672  0.9447 -0.1052 -0.1834
11860TIP3    H156995   1.037   6.112   3.604  2.3215 -0.2321  0.9457
11860TIP3    H256996   1.019   6.007   3.711  0.4803  0.3028  1.1782
11861TIP3   OH256997   3.881   6.349   5.435 -0.1171 -0.2455 -0.2729
11861TIP3    H156998   3.954   6.295   5.466 -0.5583 -0.2421  0.8074
11861TIP3    H256999   3.846   6.390   5.515 -1.3704 -0.3413 -0.7662
11862TIP3   OH257000   4.045   3.722  12.196  0.2353 -0.1646  0.5234
11862TIP3    H157001   4.030   3.673  12.276 -1.6176  0.5440  0.6138
11862TIP3    H257002   4.093   3.800  12.223  1.4631 -0.9404  0.6362
11863TIP3   OH257003   5.489   5.973   2.248 -0.7893 -0.1259  0.6895
11863TIP3    H157004   5.512   5.921   2.325 -0.4293 -0.4612  0.3556
11863TIP3    H257005   5.516   6.062   2.272  0.3477 -0.4164  0.5257
11864TIP3   OH257006   2.754   2.838  16.269 -0.4148  0.1113 -0.0923
11864TIP3    H157007   2.768   2.915  16.325 -0.5259 -0.2866  0.4937
11864TIP3    H257008   2.699   2.780  16.322 -0.1874 -0.4431 -0.4586
11865TIP3   OH257009   3.727   1.498  14.074  0.3128 -0.0693 -0.1032
11865TIP3    H157010   3.805   1.520  14.125  1.6746  1.0548 -2.5853
11865TIP3    H257011   3.679   1.581  14.067 -2.9023 -1.4005  4.2074
11866TIP3   OH257012   0.930   6.479   3.527  0.3325 -0.2364 -0.4032
11866TIP3    H157013   0.999   6.418   3.552  0.2699 -1.2358 -2.5960
11866TIP3    H257014   0.850   6.440   3.563  0.4691 -0.8011 -0.6997
11867TIP3   OH257015   0.157   0.149  15.976 -0.1345 -0.4500 -0.4790
11867TIP3    H157016   0.220   0.203  16.023 -1.1003 -0.9495  1.4459
11867TIP3    H257017   0.074   0.197  15.984 -0.8848 -1.9218  0.7736
11868TIP3   OH257018   1.926   3.826   0.590  0.3055  0.1940 -0.0424
11868TIP3    H157019   1.975   3.751   0.623 -1.8006 -2.1380 -2.0254
11868TIP3    H257020   1.918   3.884   0.666 -0.8561 -3.0822  2.4716
11869TIP3   OH257021   2.011   0.986  13.068  0.1142  0.2084 -0.3902
11869TIP3    H157022   2.086   1.005  13.125 -0.3499 -2.5967  1.2980
11869TIP3    H257023   1.939   0.970  13.129 -0.9779 -0.6289 -1.8651
11870TIP3   OH257024   3.550   5.383   0.282 -0.1399 -0.2765  0.2455
11870TIP3    H157025   3.569   5.289   0.279  0.9319 -0.0468 -0.7542
11870TIP3    H257026   3.459   5.389   0.311 -0.6220 -1.6684 -0.9546
11871TIP3   OH257027   6.696   3.250   5.295 -0.1487 -0.9402 -0.7895
11871TIP3    H157028   6.673   3.159   5.277 -0.0302 -0.6411 -2.5339
11871TIP3    H257029   6.782   3.245   5.336 -1.4167 -1.7793  1.8917
11872TIP3   OH257030   2.187   4.235   3.690  0.1190  0.2572 -0.3966
11872TIP3    H157031   2.177   4.230   3.595 -1.2400 -0.4507 -0.2307
11872TIP3    H257032   2.258   4.297   3.703  0.7266 -0.0911 -1.8952
11873TIP3   OH257033   1.530   5.650  16.977  0.2799 -0.1554 -0.3897
11873TIP3    H157034   1.506   5.680  16.890  0.4942 -0.6306 -0.6132
11873TIP3    H257035   1.459   5.680  17.033 -0.9641 -1.7374 -1.0910
11874TIP3   OH257036   1.733   6.733   5.789  0.5317  0.0916  0.1274
11874TIP3    H157037   1.742   6.764   5.699 -1.2916 -0.5225 -0.2888
11874TIP3    H257038   1.670   6.661   5.783 -0.0238  0.4083  1.9702
11875TIP3   OH257039   5.130   1.515   3.845 -0.0209  0.3943 -0.0778
11875TIP3    H157040   5.070   1.552   3.780 -1.0232 -2.0738 -0.6384
11875TIP3    H257041   5.215   1.550   3.821 -0.7430  1.3999 -1.2683
11876TIP3   OH257042   3.343   4.784   4.209  0.6147  0.5449 -0.3763
11876TIP3    H157043   3.279   4.849   4.179 -0.2611 -0.3728 -0.5126
11876TIP3    H257044   3.414   4.836   4.246 -0.4641  1.5707  0.2937
11877TIP3   OH257045   6.606   5.599  10.518 -0.1388  0.1114 -0.2271
11877TIP3    H157046   6.632   5.542  10.446 -0.1535  0.5596 -0.5934
11877TIP3    H257047   6.631   5.687  10.489 -1.8428  0.5279 -0.4838
11878TIP3   OH257048   4.571   4.927   6.239 -0.3286 -0.0518 -0.1332
11878TIP3    H157049   4.600   4.906   6.151 -0.7145  0.7375 -0.4576
11878TIP3    H257050   4.476   4.938   6.231 -0.5206 -1.1297  0.6082
11879TIP3   OH257051   3.492   3.217  14.147 -0.7233 -0.2935  0.1096
11879TIP3    H157052   3.443   3.296  14.170 -0.6616 -0.7188  1.8075
11879TIP3    H257053   3.443   3.178  14.075 -1.8369  0.2816  0.5463
11880TIP3   OH257054   6.072   1.182   1.885 -0.1959  0.3098 -0.4115
11880TIP3    H157055   6.132   1.146   1.951 -1.1804 -0.3758  0.1150
11880TIP3    H257056   6.018   1.108   1.858 -0.2189  0.7300 -1.5385
11881TIP3   OH257057   1.876   0.464   5.450  0.0095  0.3426 -0.2690
11881TIP3    H157058   1.949   0.410   5.480 -0.9895 -1.4320 -0.9244
11881TIP3    H257059   1.901   0.494   5.363 -0.3140 -0.8633 -0.7946
11882TIP3   OH257060   6.352   1.830  14.420  0.1112  0.7451 -0.3174
11882TIP3    H157061   6.359   1.767  14.492  0.3236  0.3240 -0.7068
11882TIP3    H257062   6.425   1.889  14.434 -0.4643  1.2930  0.4185
11883TIP3   OH257063   4.550   1.634   4.553  0.2034 -0.4477 -0.5596
11883TIP3    H157064   4.541   1.682   4.470  1.1497  0.5548 -0.1008
11883TIP3    H257065   4.643   1.643   4.575  0.4561 -2.7448 -0.5901
11884TIP3   OH257066   1.130   2.111   5.221  0.0624 -0.2927 -0.3443
11884TIP3    H157067   1.168   2.117   5.308  0.8663  0.8256 -0.7550
11884TIP3    H257068   1.205   2.098   5.163 -0.4710 -1.1091 -0.8551
11885TIP3   OH257069   2.062   6.300   5.529  0.5386  0.5173 -0.0717
11885TIP3    H157070   1.969   6.290   5.546  0.5060  1.2318  0.1516
11885TIP3    H257071   2.071   6.277   5.436  0.3362 -0.7711  0.2122
11886TIP3   OH257072   6.762   4.018   4.987 -0.0287 -0.4438 -0.3276
11886TIP3    H157073   6.788   4.012   5.079 -1.0736 -1.4376 -0.0866
11886TIP3    H257074   6.788   4.107   4.961 -1.6886  0.6489  1.5396
11887TIP3   OH257075   3.563   1.558   3.648 -0.8456 -0.6004  0.1066
11887TIP3    H157076   3.600   1.647   3.640  0.9483 -1.2908  0.4227
11887TIP3    H257077   3.566   1.540   3.742  0.9246 -1.8504 -0.1640
11888TIP3   OH257078   1.473   2.031  14.169  0.0750 -0.3121  0.0696
11888TIP3    H157079   1.518   1.963  14.219 -0.8285 -1.0129 -0.0723
11888TIP3    H257080   1.432   2.087  14.236  2.7544  1.4899  0.2987
11889TIP3   OH257081   3.889   2.928   6.098 -0.2693 -0.0353 -0.1981
11889TIP3    H157082   3.942   3.000   6.064  2.1126 -1.9425 -0.6075
11889TIP3    H257083   3.952   2.864   6.131 -2.3644 -1.5039  1.0980
11890TIP3   OH257084   6.708   6.471  13.137  0.8627 -0.4267  0.1889
11890TIP3    H157085   6.661   6.411  13.079  0.1431 -0.6086  0.9491
11890TIP3    H257086   6.715   6.552  13.087  0.6058 -0.7096 -0.3099
11891TIP3   OH257087   1.428   0.077   2.758  0.2137  0.0066 -0.2453
11891TIP3    H157088   1.507   0.102   2.709  1.4586 -0.7283  1.3542
11891TIP3    H257089   1.439  -0.016   2.777 -0.4413  0.1948  1.0961
11892TIP3   OH257090   0.213   5.464  16.510  0.1906 -0.2941 -0.6963
11892TIP3    H157091   0.152   5.527  16.472 -0.1647  0.2782  0.8056
11892TIP3    H257092   0.216   5.486  16.603  2.5056 -0.4627 -0.7019
11893TIP3   OH257093   0.338   5.463   5.655  0.0244 -0.5277  0.5558
11893TIP3    H157094   0.265   5.442   5.713  0.5195  0.1814  1.4574
11893TIP3    H257095   0.415   5.425   5.698  0.6076  1.2291  1.1272
11894TIP3   OH257096   2.800   6.431   3.531  0.3869  0.0757  0.2948
11894TIP3    H157097   2.888   6.464   3.515 -0.3613  1.2561 -1.6392
11894TIP3    H257098   2.811   6.337   3.545  2.4113  0.7962  4.3894
11895TIP3   OH257099   2.312   0.609  11.298 -0.2973 -0.0184 -0.3323
11895TIP3    H157100   2.301   0.636  11.389  0.9495  1.5262 -0.6238
11895TIP3    H257101   2.229   0.567  11.275 -1.3221  1.2756  0.9386
11896TIP3   OH257102   6.351   5.762  14.218 -0.3513 -0.3174 -0.1586
11896TIP3    H157103   6.381   5.847  14.251  0.2671 -0.5826 -0.0323
11896TIP3    H257104   6.256   5.765  14.228 -0.3698  0.5063 -0.5005
11897TIP3   OH257105   1.862   0.973  11.534 -0.4433 -0.3078  0.2177
11897TIP3    H157106   1.822   0.974  11.621 -0.4834  0.4658  0.1982
11897TIP3    H257107   1.852   1.063  11.503  1.3593 -0.0858  0.2367
11898TIP3   OH257108   2.699   4.880  15.496 -0.1923 -0.1001 -0.1489
11898TIP3    H157109   2.609   4.896  15.467 -1.8291 -1.3329  3.9500
11898TIP3    H257110   2.701   4.786  15.517  1.3820  0.3840  2.0371
11899TIP3   OH257111   0.135   5.912  15.408  0.1596  0.3197 -0.2303
11899TIP3    H157112   0.077   5.869  15.471 -1.1451  1.3898 -0.6750
11899TIP3    H257113   0.091   5.995  15.388  2.2101  1.4831 -0.0277
11900TIP3   OH257114   2.662   2.588   0.262  0.4592 -0.2154  0.2875
11900TIP3    H157115   2.666   2.614   0.170 -3.0562 -0.0042  0.1301
11900TIP3    H257116   2.627   2.499   0.261 -0.2152  0.0269  1.4600
11901TIP3   OH257117   4.448   1.487  11.610  0.2898  0.5720 -1.0289
11901TIP3    H157118   4.469   1.440  11.691 -0.7987  1.3256 -0.3067
11901TIP3    H257119   4.367   1.534  11.630  0.1786  0.9929 -2.4667
11902TIP3   OH257120   2.871   3.017   5.139 -0.6131 -0.4675  0.2487
11902TIP3    H157121   2.965   3.019   5.123 -0.5979 -0.6830  0.3047
11902TIP3    H257122   2.841   2.939   5.092 -0.9496  0.2590 -0.7596
11903TIP3   OH257123   1.288   5.087  13.907  0.2533 -0.2358  0.1491
11903TIP3    H157124   1.263   5.008  13.860  3.2039 -0.3684 -1.3156
11903TIP3    H257125   1.298   5.059  13.998 -1.4981 -0.8749  0.1686
11904TIP3   OH257126   3.375   3.063  16.023 -0.3516 -0.4976  0.7094
11904TIP3    H157127   3.315   3.122  16.069  0.7399 -0.2074  1.7900
11904TIP3    H257128   3.459   3.108  16.024  0.0388 -1.1883 -0.2227
11905TIP3   OH257129   4.686   3.488  16.551 -0.0295  0.0950 -0.0886
11905TIP3    H157130   4.725   3.539  16.621 -0.9886  0.4810  0.1728
11905TIP3    H257131   4.722   3.400  16.562 -0.6587 -0.0046  1.2731
11906TIP3   OH257132   5.613   1.118  13.303 -0.0507 -0.2890  0.1904
11906TIP3    H157133   5.684   1.062  13.334 -0.2237  0.5105  2.0694
11906TIP3    H257134   5.651   1.205  13.297 -0.0209 -0.4216 -1.8885
11907TIP3   OH257135   0.957   2.182   3.345  0.2511  0.0166 -0.3402
11907TIP3    H157136   0.969   2.275   3.364 -1.3773  0.1676  0.0542
11907TIP3    H257137   1.029   2.138   3.391  1.9231  1.1953 -1.7931
11908TIP3   OH257138   3.851   3.653  14.102  0.0115 -0.1334 -0.3091
11908TIP3    H157139   3.775   3.606  14.069 -1.1485  1.0908  0.5673
11908TIP3    H257140   3.867   3.616  14.188  0.0624  0.0130 -0.2558
11909TIP3   OH257141   4.028   1.688   4.749 -0.6069 -0.3634  0.2603
11909TIP3    H157142   4.121   1.665   4.745 -0.5328 -0.1544  0.8073
11909TIP3    H257143   3.988   1.620   4.802 -0.7526 -0.4010  0.1028
11910TIP3   OH257144   3.227   1.235   3.852 -0.0060 -0.4535 -0.2767
11910TIP3    H157145   3.297   1.177   3.883 -1.3991 -1.6997  0.5941
11910TIP3    H257146   3.211   1.294   3.926 -0.0874 -0.3862 -0.3489
11911TIP3   OH257147   2.630   4.665  13.204 -0.0960 -0.0798  0.0369
11911TIP3    H157148   2.551   4.623  13.237  0.0895 -0.5943 -0.1591
11911TIP3    H257149   2.699   4.600  13.219  0.0400 -0.2150 -1.0890
11912TIP3   OH257150   5.663   6.119   1.623  0.7530  0.5902 -0.5313
11912TIP3    H157151   5.714   6.199   1.637  1.3926  0.3796 -1.5664
11912TIP3    H257152   5.622   6.101   1.707  2.9215  0.3852  0.4927
11913TIP3   OH257153   4.589   4.452   4.716  0.0766 -0.3509  0.1681
11913TIP3    H157154   4.662   4.495   4.671 -1.9211  2.3961 -0.5581
11913TIP3    H257155   4.566   4.379   4.659  1.1898 -0.2557 -0.4276
11914TIP3   OH257156   5.424   2.041   1.336  0.1941 -0.0260  0.6041
11914TIP3    H157157   5.339   2.067   1.303  1.2479  1.3693 -1.0402
11914TIP3    H257158   5.424   2.069   1.428 -0.6632  0.9926  0.2913
11915TIP3   OH257159   2.338   3.107  16.769  0.1361  0.4100  0.4693
11915TIP3    H157160   2.250   3.088  16.800 -0.2303 -1.7614 -1.7209
11915TIP3    H257161   2.389   3.121  16.848 -1.9981  0.9355  1.7979
11916TIP3   OH257162   6.659   6.127  12.789 -0.8284 -0.5884  0.3259
11916TIP3    H157163   6.690   6.038  12.775  0.9646  0.3134 -1.8962
11916TIP3    H257164   6.739   6.181  12.783 -2.1403  1.3337 -0.4580
11917TIP3   OH257165   4.938   0.629  16.481 -0.2617 -0.7859 -0.2287
11917TIP3    H157166   4.956   0.583  16.399 -0.1301 -0.6831 -0.2579
11917TIP3    H257167   4.895   0.710  16.454 -0.7167 -1.0010 -0.1649
11918TIP3   OH257168   3.843   2.763  13.490  0.3763 -0.0199 -0.4815
11918TIP3    H157169   3.749   2.776  13.494  0.3777 -0.0141 -0.4673
11918TIP3    H257170   3.854   2.668  13.483  0.4959 -0.3389  3.3428
11919TIP3   OH257171   4.691   1.546   1.119 -0.4407 -0.0705 -0.2765
11919TIP3    H157172   4.718   1.540   1.211  0.3145 -0.9856 -0.5481
11919TIP3    H257173   4.653   1.460   1.100  0.2728 -0.2106 -1.0837
11920TIP3   OH257174   6.379   6.563  11.962  0.2675  0.1101  0.3331
11920TIP3    H157175   6.412   6.619  11.892 -0.6207  0.7242  0.3995
11920TIP3    H257176   6.287   6.548  11.939 -0.0801  0.4548  1.4616
11921TIP3   OH257177   4.788   0.948   1.491 -0.3424 -0.0248 -0.5612
11921TIP3    H157178   4.703   0.992   1.492  1.4071  3.4861 -0.1550
11921TIP3    H257179   4.809   0.933   1.583 -0.7782 -1.5053 -0.6847
11922TIP3   OH257180   1.488   1.820  12.104  0.4110 -0.2067  0.0250
11922TIP3    H157181   1.563   1.841  12.048  1.1123  0.1604  1.0933
11922TIP3    H257182   1.496   1.726  12.122  1.7522  0.2279  1.7810
11923TIP3   OH257183   0.027   4.702   3.162  0.0562 -0.4372  0.1573
11923TIP3    H157184  -0.050   4.758   3.175 -0.1858 -0.2434 -1.8727
11923TIP3    H257185   0.074   4.744   3.090  0.2604 -2.4626 -0.9129
11924TIP3   OH257186   3.944   2.055   2.468 -0.6324  0.5019 -0.5375
11924TIP3    H157187   3.998   2.119   2.515 -0.5320  0.9250 -1.2324
11924TIP3    H257188   3.866   2.103   2.443 -0.6362  0.3044 -0.9102
11925TIP3   OH257189   0.080   3.953   0.545 -0.1974  0.6091 -0.0467
11925TIP3    H157190   0.122   3.917   0.623 -1.1043  0.2902  0.3028
11925TIP3    H257191   0.138   4.024   0.517 -1.2633  2.5512  2.5159
11926TIP3   OH257192   4.299   1.833  11.430  0.3540 -0.7410  0.2313
11926TIP3    H157193   4.249   1.906  11.392 -0.9980 -2.7770 -2.0005
11926TIP3    H257194   4.299   1.851  11.524 -1.9304  0.9193 -0.0423
11927TIP3   OH257195   5.598   6.529   0.470  0.3344 -0.1835  0.1662
11927TIP3    H157196   5.662   6.562   0.408  0.0243  0.1830  0.0400
11927TIP3    H257197   5.514   6.536   0.424 -0.0981  1.5104  1.1893
11928TIP3   OH257198   2.391   4.073   2.848 -0.5696  0.0181  0.1801
11928TIP3    H157199   2.295   4.073   2.850 -0.5825 -0.6151 -0.3710
11928TIP3    H257200   2.414   3.986   2.816  0.1634  0.9202 -1.7967
11929TIP3   OH257201   0.141   5.892   2.754  0.4067 -0.0390 -0.2003
11929TIP3    H157202   0.225   5.919   2.718  0.5867  0.4814  0.5809
11929TIP3    H257203   0.076   5.917   2.688  0.8847 -0.7179 -0.9355
11930TIP3   OH257204   3.003   1.643  11.762 -0.1954 -0.1929  0.1601
11930TIP3    H157205   3.070   1.592  11.717  0.4012 -0.3700  1.2177
11930TIP3    H257206   3.053   1.709  11.811 -0.7502 -0.5761  1.2657
11931TIP3   OH257207   5.333   5.405  10.979  0.5374 -0.2474  0.3267
11931TIP3    H157208   5.303   5.477  10.924 -0.5215  0.1886  1.4495
11931TIP3    H257209   5.397   5.446  11.038  2.2948 -0.8756 -1.0756
11932TIP3   OH257210   3.564   4.007   3.697  0.9972  0.2016  0.1451
11932TIP3    H157211   3.637   4.040   3.643 -0.5945  2.2087 -0.8597
11932TIP3    H257212   3.536   3.927   3.653  1.5262  0.3070 -0.3995
11933TIP3   OH257213   2.189   2.212  10.476  0.1092  0.0493  0.0793
11933TIP3    H157214   2.282   2.233  10.471  0.9725 -3.0814  1.5415
11933TIP3    H257215   2.167   2.227  10.568 -0.9381  1.1772 -0.3534
11934TIP3   OH257216   0.488   0.580   2.775 -0.0281 -0.1126  0.1385
11934TIP3    H157217   0.513   0.672   2.782 -0.5436  0.0768 -0.5118
11934TIP3    H257218   0.424   0.567   2.845  0.5695 -0.1617  0.6858
11935TIP3   OH257219   1.330   3.848  13.501  0.7653  0.2251 -0.1012
11935TIP3    H157220   1.412   3.878  13.540  0.6553 -1.3495  1.4064
11935TIP3    H257221   1.338   3.752  13.499 -0.6165  0.1155 -0.8546
11936TIP3   OH257222   0.474   6.763  12.844 -0.4961 -0.0263 -0.7739
11936TIP3    H157223   0.542   6.747  12.778  0.9528  0.2175  0.6300
11936TIP3    H257224   0.438   6.676  12.863 -0.1287 -0.2401 -1.0435
11937TIP3   OH257225   2.789   5.009   4.335  0.0238  0.0661  0.4255
11937TIP3    H157226   2.718   4.978   4.390  0.3283 -1.7213 -0.1409
11937TIP3    H257227   2.864   4.955   4.359  1.2579  2.0630  1.1578
11938TIP3   OH257228   5.738   1.427  13.404 -0.6502 -0.0644 -0.0670
11938TIP3    H157229   5.702   1.493  13.345 -0.2824  2.1634  2.1483
11938TIP3    H257230   5.827   1.410  13.370  0.3164  2.6967  0.9813
11939TIP3   OH257231   6.552   2.167  16.998  0.5041 -0.1717  0.4129
11939TIP3    H157232   6.566   2.182  16.904  0.2829  0.5245  0.4849
11939TIP3    H257233   6.637   2.186  17.038  0.5482 -0.2858  0.3740
11940TIP3   OH257234   0.553   5.909   6.524 -0.5992 -0.5788  0.0805
11940TIP3    H157235   0.600   5.991   6.523 -2.0911  0.3081  0.5492
11940TIP3    H257236   0.596   5.856   6.592 -0.7422  0.4910  1.0158
11941TIP3   OH257237   4.089   1.243  13.491  0.2617  0.0943 -0.4595
11941TIP3    H157238   4.096   1.163  13.439 -1.1575 -1.0931  1.1601
11941TIP3    H257239   4.026   1.297  13.443 -0.6851 -0.8064 -0.2435
11942TIP3   OH257240   0.354   6.033  16.021 -0.0737  0.5691 -0.6409
11942TIP3    H157241   0.302   6.050  16.100  1.3697 -0.4532  0.5674
11942TIP3    H257242   0.305   6.074  15.950 -1.3463  1.6011  0.8095
11943TIP3   OH257243   3.151   5.253  16.167 -0.2996 -0.2617  0.0587
11943TIP3    H157244   3.112   5.292  16.088  1.2916  0.4726 -0.3859
11943TIP3    H257245   3.173   5.327  16.222  1.6130 -0.5593 -0.2538
11944TIP3   OH257246   3.362   0.918   4.677 -0.4280  0.4035 -0.0633
11944TIP3    H157247   3.376   0.975   4.602  0.7580 -1.2169 -1.0861
11944TIP3    H257248   3.427   0.946   4.741  0.8416 -0.4845 -0.9602
11945TIP3   OH257249   4.434   2.324  16.220  0.2075 -0.2808  0.1354
11945TIP3    H157250   4.405   2.277  16.298  0.0687  0.1963  0.3723
11945TIP3    H257251   4.464   2.255  16.161 -1.3575 -0.7953 -0.0928
11946TIP3   OH257252   4.220   6.596  13.639  0.4616 -0.7313 -0.0143
11946TIP3    H157253   4.296   6.595  13.580 -0.7873 -2.1353 -1.6678
11946TIP3    H257254   4.208   6.504  13.662 -0.4403 -0.4548  0.6237
11947TIP3   OH257255   4.465   2.688  14.519 -0.6440 -0.5036  0.0004
11947TIP3    H157256   4.427   2.614  14.471 -1.1372 -0.1332 -0.1878
11947TIP3    H257257   4.486   2.653  14.605  1.4233 -1.5082 -0.8864
11948TIP3   OH257258   5.144   1.503  15.238 -0.3724  0.4280 -0.1055
11948TIP3    H157259   5.069   1.506  15.179  1.1874  1.2393 -2.1529
11948TIP3    H257260   5.218   1.532  15.183  1.8022 -2.3236  1.2202
11949TIP3   OH257261   0.648   6.323  11.841  0.1737  0.2808 -0.1182
11949TIP3    H157262   0.663   6.232  11.867 -1.9771 -0.2728 -0.7012
11949TIP3    H257263   0.569   6.349  11.890 -1.5459  0.5374 -2.9033
11950TIP3   OH257264   0.259   0.701  16.744  0.5446  0.3556 -0.2205
11950TIP3    H157265   0.280   0.663  16.659 -1.5037  1.2920 -1.1802
11950TIP3    H257266   0.231   0.627  16.797  1.9014 -0.2451 -0.3101
11951TIP3   OH257267   5.003   4.785   0.629 -0.4261  0.2080 -0.1698
11951TIP3    H157268   5.022   4.844   0.556 -0.4552  1.3133  0.7042
11951TIP3    H257269   5.079   4.728   0.634 -0.4314  0.1081 -1.0676
11952TIP3   OH257270   2.493   3.726  17.109 -0.1306  0.6221  0.1511
11952TIP3    H157271   2.420   3.763  17.159 -0.0245  0.1353  0.6711
11952TIP3    H257272   2.537   3.803  17.072  0.3002  1.0494  1.5131
11953TIP3   OH257273   5.002   5.254  14.772  0.1587 -0.1635  0.4020
11953TIP3    H157274   5.074   5.272  14.712 -0.2967 -1.0173 -0.4125
11953TIP3    H257275   4.923   5.259  14.718 -0.1793 -1.9960  0.6865
11954TIP3   OH257276   0.311   2.979  15.754  0.8395 -0.0247  1.0296
11954TIP3    H157277   0.236   3.022  15.713  1.1592  1.8472  2.3422
11954TIP3    H257278   0.274   2.901  15.796  0.3161 -1.3163 -1.6742
11955TIP3   OH257279   6.247   0.145  15.235  0.5621  0.6107 -0.2774
11955TIP3    H157280   6.294   0.227  15.218  1.3079  0.6808  1.9914
11955TIP3    H257281   6.169   0.171  15.284  0.7938 -0.0240  0.4405
11956TIP3   OH257282   2.363   0.605  12.338  0.1019  0.6433  0.2647
11956TIP3    H157283   2.361   0.606  12.434 -1.9841  0.7351  0.2439
11956TIP3    H257284   2.393   0.517  12.316 -0.4854  0.2536  1.0051
11957TIP3   OH257285   2.713   4.598  15.573  0.5553  0.1964  0.6132
11957TIP3    H157286   2.739   4.512  15.540  1.1760  0.5798  0.1023
11957TIP3    H257287   2.626   4.584  15.610  0.5874 -0.6172  0.3844
11958TIP3   OH257288   2.634   1.082   4.988  0.0550 -0.1193 -0.1874
11958TIP3    H157289   2.666   1.159   4.941  2.1311 -0.2253  0.9648
11958TIP3    H257290   2.632   1.012   4.922  1.4946  0.0960 -0.4807
11959TIP3   OH257291   1.588   6.438   1.905 -0.6308  0.4195  0.0974
11959TIP3    H157292   1.562   6.473   1.820 -2.1802  0.3693  0.5333
11959TIP3    H257293   1.644   6.364   1.884 -1.3768  0.1242 -0.8879
11960TIP3   OH257294   6.450   0.587   4.964 -0.1863 -0.6860 -0.3596
11960TIP3    H157295   6.432   0.501   4.926 -0.1768 -0.3507 -1.1295
11960TIP3    H257296   6.529   0.574   5.016 -0.8494 -1.4205  0.4701
11961TIP3   OH257297   1.621   0.605  10.788 -0.0501 -0.2305  0.2451
11961TIP3    H157298   1.568   0.543  10.738  4.0136 -2.3995 -1.6435
11961TIP3    H257299   1.660   0.663  10.723  2.8970 -1.1494  1.0986
11962TIP3   OH257300   2.966   4.745   4.872  0.2390 -0.3709  0.3266
11962TIP3    H157301   2.918   4.812   4.824  0.7143 -0.5081 -0.3546
11962TIP3    H257302   3.026   4.793   4.928 -0.3059 -0.2081  0.7715
11963TIP3   OH257303   5.772   2.994   3.090 -0.1026 -0.0538 -0.1524
11963TIP3    H157304   5.806   2.945   3.165  1.4216  2.5362  0.9465
11963TIP3    H257305   5.712   2.934   3.047  0.5865 -2.3431  1.9422
11964TIP3   OH257306   4.292   2.802   2.341 -0.0133  0.9979 -0.0472
11964TIP3    H157307   4.217   2.807   2.281 -0.5409  0.5501  0.5630
11964TIP3    H257308   4.252   2.783   2.426  0.8747 -0.1323  0.1174
11965TIP3   OH257309   1.681   1.272  13.763 -0.0179 -0.4682 -0.0136
11965TIP3    H157310   1.703   1.185  13.730  1.0101 -0.4187  0.5195
11965TIP3    H257311   1.757   1.297  13.816 -1.1084 -0.0487  1.3888
11966TIP3   OH257312   5.452   3.278  14.382  0.4583  0.5639 -0.0862
11966TIP3    H157313   5.490   3.191  14.391 -1.9905 -0.6261 -0.8033
11966TIP3    H257314   5.470   3.321  14.466  2.5567 -0.2678 -0.1013
11967TIP3   OH257315   2.342   5.612   2.571 -0.2397  0.5035  0.2052
11967TIP3    H157316   2.429   5.601   2.531  0.3044  0.2916  1.4240
11967TIP3    H257317   2.359   5.655   2.655 -1.5825  3.0288 -0.7613
11968TIP3   OH257318   3.886   2.058   5.260 -0.2990  0.2596 -0.2824
11968TIP3    H157319   3.808   2.033   5.210 -0.7317  0.0605  0.4735
11968TIP3    H257320   3.856   2.129   5.316  0.8780  2.3568 -2.2485
11969TIP3   OH257321   2.153   0.844  12.838  0.2065 -0.1782  0.5633
11969TIP3    H157322   2.084   0.878  12.896  0.7423  0.0180  1.1026
11969TIP3    H257323   2.139   0.750  12.837  0.9030 -0.3208  1.9773
11970TIP3   OH257324   0.519   4.650  13.822 -0.0368 -0.0608 -0.4348
11970TIP3    H157325   0.571   4.629  13.899  0.7586 -0.0578 -0.9700
11970TIP3    H257326   0.524   4.572  13.767 -0.2148  0.1141 -0.7003
11971TIP3   OH257327   6.390   6.358   5.127 -0.0229  0.6439  0.0449
11971TIP3    H157328   6.425   6.347   5.216  0.5523  3.1598  0.1709
11971TIP3    H257329   6.297   6.374   5.139 -0.2631 -0.7963  0.0783
11972TIP3   OH257330   4.929   2.645   0.338  0.2921 -0.0439  0.2837
11972TIP3    H157331   5.022   2.624   0.336  0.6347  1.4077  0.3495
11972TIP3    H257332   4.911   2.683   0.252 -0.1813 -0.0628  0.3714
11973TIP3   OH257333   2.199   0.928   5.068  0.3398  0.2125 -0.0939
11973TIP3    H157334   2.234   0.856   5.016 -0.4520  0.8856 -1.5965
11973TIP3    H257335   2.260   0.936   5.141  0.9988 -1.3138 -0.4457
11974TIP3   OH257336   4.834   5.482  13.275 -0.5065 -0.0356 -0.0384
11974TIP3    H157337   4.768   5.430  13.320 -1.6172  0.3351 -1.1901
11974TIP3    H257338   4.853   5.433  13.195 -0.3763  0.5203 -0.3516
11975TIP3   OH257339   2.433   0.968   0.644 -0.2280  0.1107  0.1737
11975TIP3    H157340   2.511   0.942   0.694 -1.5506 -0.0095  2.2455
11975TIP3    H257341   2.360   0.932   0.694 -1.5572 -1.3547 -2.7013
11976TIP3   OH257342   4.215   6.663  11.021 -0.4436 -0.5002 -0.0222
11976TIP3    H157343   4.223   6.635  11.112 -0.8497 -0.6167 -0.0188
11976TIP3    H257344   4.281   6.731  11.010  1.5398 -2.4587 -0.4295
11977TIP3   OH257345   3.221   2.785   3.955 -0.1219 -0.1759  0.0733
11977TIP3    H157346   3.151   2.787   4.021 -1.3538  0.6457 -1.2349
11977TIP3    H257347   3.175   2.773   3.872  1.2319  1.2450 -0.9034
11978TIP3   OH257348   2.803   1.807  14.620  1.0597  0.6265 -0.0604
11978TIP3    H157349   2.744   1.731  14.620  0.0498  1.3919  0.5008
11978TIP3    H257350   2.755   1.874  14.571  1.9227  0.9245 -0.5062
11979TIP3   OH257351   0.300   5.305   4.938 -0.2353 -0.0838 -0.6167
11979TIP3    H157352   0.337   5.238   4.996 -2.9294  0.6173  2.0402
11979TIP3    H257353   0.257   5.367   4.998  2.6962  4.4202 -2.8936
11980TIP3   OH257354   0.955   0.097  12.733 -0.0661 -0.1587  0.1357
11980TIP3    H157355   1.023   0.163  12.726 -0.1034 -0.0873  0.4496
11980TIP3    H257356   0.976   0.033  12.665 -1.4645  1.4720 -1.9167
11981TIP3   OH257357   1.098   0.332  11.103  0.1789 -0.4068  0.2808
11981TIP3    H157358   1.073   0.376  11.022  2.2561  0.5635  0.1377
11981TIP3    H257359   1.182   0.291  11.084  0.6821 -0.1790  1.9329
11982TIP3   OH257360   5.772   1.126   3.948  0.3905  0.1621  0.1840
11982TIP3    H157361   5.728   1.203   3.913  0.5102 -0.3199 -1.0699
11982TIP3    H257362   5.756   1.058   3.882 -0.7239 -1.2194  1.8169
11983TIP3   OH257363   5.465   1.858   4.030  0.2257 -0.0156 -0.8642
11983TIP3    H157364   5.440   1.945   4.062 -0.2500 -0.8911  1.2252
11983TIP3    H257365   5.547   1.873   3.982 -0.0822  1.6571 -0.8951
11984TIP3   OH257366   5.758   1.980  12.246 -0.8576 -0.0881  0.2482
11984TIP3    H157367   5.835   2.017  12.290 -0.5781 -0.3641 -0.0029
11984TIP3    H257368   5.761   2.016  12.157 -0.6698 -0.5961  0.0504
11985TIP3   OH257369   3.574   3.178  14.968 -0.1663 -0.2040  0.1029
11985TIP3    H157370   3.498   3.135  14.929  0.1917  0.5344 -1.4151
11985TIP3    H257371   3.626   3.210  14.894  0.7658  0.7869  1.1489
11986TIP3   OH257372   2.173   3.701  11.650 -0.2306 -0.5779 -0.5673
11986TIP3    H157373   2.097   3.714  11.706 -0.6868 -1.9083 -0.8875
11986TIP3    H257374   2.226   3.635  11.695 -0.0195 -0.7888 -1.1174
11987TIP3   OH257375   5.508   1.971   2.898  0.0210 -0.2036  0.0364
11987TIP3    H157376   5.528   2.053   2.854 -0.9160  0.6658  1.2105
11987TIP3    H257377   5.590   1.946   2.941 -0.3251  1.4064  1.7041
11988TIP3   OH257378   4.646   0.210  10.475 -0.0036  0.1556 -0.1612
11988TIP3    H157379   4.740   0.230  10.478  0.5176 -2.1856 -0.5417
11988TIP3    H257380   4.612   0.266  10.404  0.7935  2.1440  0.9830
11989TIP3   OH257381   5.587   2.328  14.060  0.2847  0.5560 -0.5718
11989TIP3    H157382   5.630   2.366  14.137 -0.9979 -0.4710  0.6904
11989TIP3    H257383   5.640   2.252  14.036  0.7287  0.9227 -0.7493
11990TIP3   OH257384   4.555   4.983  13.828 -0.4075 -0.1585 -0.0616
11990TIP3    H157385   4.634   5.035  13.843 -0.5054  0.1153 -0.4799
11990TIP3    H257386   4.484   5.035  13.866 -0.8428  1.1832 -2.6285
11991TIP3   OH257387   5.401   6.316  14.656  0.0740  0.0521  0.0847
11991TIP3    H157388   5.430   6.344  14.743  0.7489 -0.4405  0.0203
11991TIP3    H257389   5.478   6.326  14.601 -0.7561  1.8084 -0.8002
11992TIP3   OH257390   0.106   1.668  13.329 -0.0417 -0.3479  0.2122
11992TIP3    H157391   0.103   1.610  13.406  0.5962  0.1650  0.6183
11992TIP3    H257392   0.194   1.704  13.329 -0.2830  0.2462 -0.3300
11993TIP3   OH257393   0.012   2.240  12.600  0.3680 -0.2384  0.4101
11993TIP3    H157394  -0.018   2.276  12.516  0.9688  0.5087  0.5110
11993TIP3    H257395  -0.055   2.177  12.624 -0.1522  0.0302 -0.3106
11994TIP3   OH257396   6.176   1.647  13.208  0.1694 -0.7767 -0.7949
11994TIP3    H157397   6.142   1.577  13.153  0.2679 -0.6759 -0.9833
11994TIP3    H257398   6.259   1.613  13.242  0.5661 -0.4695 -1.4601
11995TIP3   OH257399   2.633   4.544   3.162 -0.2886  0.0767  0.1004
11995TIP3    H157400   2.573   4.586   3.224  0.1848  0.4174  0.3310
11995TIP3    H257401   2.692   4.614   3.135 -0.9064  0.0853 -1.2507
11996TIP3   OH257402   6.063   0.272   6.025 -0.4750 -0.1889  0.1252
11996TIP3    H157403   6.008   0.351   6.021  1.5650  1.3909  2.2116
11996TIP3    H257404   6.151   0.305   6.040  0.9848 -2.7340 -2.2618
11997TIP3   OH257405   6.058   5.646  16.319 -0.2273  0.5914  0.3485
11997TIP3    H157406   6.132   5.655  16.260  1.2794 -0.7486  1.9795
11997TIP3    H257407   6.097   5.624  16.404 -2.3623  1.9227  1.7290
11998TIP3   OH257408   1.679   0.167   5.496 -0.2190  0.0738  0.1128
11998TIP3    H157409   1.662   0.247   5.445 -0.1724 -0.4983 -0.8038
11998TIP3    H257410   1.764   0.182   5.536  1.3897 -0.8995 -2.8050
11999TIP3   OH257411   6.191   2.041  16.359  0.3188 -0.1822  0.1509
11999TIP3    H157412   6.191   1.958  16.312 -0.7620 -0.3574  0.4650
11999TIP3    H257413   6.185   2.108  16.291 -0.0469 -0.3953 -0.0210
12000TIP3   OH257414   1.883   3.825   4.048  0.2224  0.1015  0.3767
12000TIP3    H157415   1.859   3.892   4.112  1.5433  1.7411 -0.7970
12000TIP3    H257416   1.965   3.790   4.082 -0.2261 -0.6025  0.7408
12001TIP3   OH257417   6.305   4.865  12.010  0.0932  0.5031 -0.1136
12001TIP3    H157418   6.296   4.830  11.921 -0.0120 -0.9486  0.4549
12001TIP3    H257419   6.226   4.834  12.055  0.4862  0.6545  0.6744
12002TIP3   OH257420   3.698   4.237   2.986 -0.1849  0.1009  0.6161
12002TIP3    H157421   3.691   4.162   2.928  0.6263  0.2750  0.2814
12002TIP3    H257422   3.684   4.313   2.929 -1.2796  0.1954  1.0040
12003TIP3   OH257423   5.336   6.251   2.305 -0.1996  0.0329 -0.4839
12003TIP3    H157424   5.342   6.266   2.210  1.0023 -0.7565 -0.5395
12003TIP3    H257425   5.243   6.233   2.321 -0.4142  0.2139 -1.5059
12004TIP3   OH257426   2.365   1.508   5.570  0.2185  0.2591 -0.2271
12004TIP3    H157427   2.426   1.545   5.634 -0.0574  0.5363 -0.1222
12004TIP3    H257428   2.365   1.414   5.589  1.5789  0.0808 -1.0618
12005TIP3   OH257429   2.062   2.520  14.630  0.1836  0.0825 -0.0424
12005TIP3    H157430   2.095   2.561  14.710 -0.1087  0.3887 -0.0792
12005TIP3    H257431   1.971   2.499  14.649 -0.5545  2.2557 -1.0908
12006TIP3   OH257432   2.807   0.985   4.812  0.2569  0.2946 -0.2055
12006TIP3    H157433   2.898   0.991   4.784  0.2178  0.8350 -0.2265
12006TIP3    H257434   2.769   0.916   4.758  1.3145 -1.7700  1.5888
12007TIP3   OH257435   6.346   6.098   1.307  0.4653 -0.2891  0.0806
12007TIP3    H157436   6.300   6.134   1.231  0.2717  0.0235  0.3468
12007TIP3    H257437   6.352   6.004   1.288  0.4753 -0.2028 -0.3509
12008TIP3   OH257438   0.757   6.243  17.082  0.1359  0.0472 -0.1585
12008TIP3    H157439   0.777   6.247  16.989 -0.5812 -0.8603 -0.3502
12008TIP3    H257440   0.669   6.207  17.087  1.2458 -2.7147  0.9553
12009TIP3   OH257441   5.898   6.729   4.760 -0.4961 -0.0564 -0.1313
12009TIP3    H157442   5.844   6.668   4.711  0.3129 -0.7029 -0.2312
12009TIP3    H257443   5.969   6.675   4.797 -1.0498  0.4247  1.6953
12010TIP3   OH257444   3.433   0.285  13.575 -0.0360  0.2940 -0.1332
12010TIP3    H157445   3.418   0.207  13.522  0.6360  1.2580 -1.7926
12010TIP3    H257446   3.398   0.357  13.522  0.8869  1.3144  0.6185
12011TIP3   OH257447   2.891   5.124  11.468  0.1427 -0.1776 -0.3775
12011TIP3    H157448   2.884   5.142  11.374  0.7686  0.4753 -0.2993
12011TIP3    H257449   2.984   5.136  11.487 -0.1705  0.7774  0.5544
12012TIP3   OH257450   5.635   5.994  13.010  0.4176 -0.0149  0.4131
12012TIP3    H157451   5.671   5.964  12.927  0.1726  0.8407 -0.0200
12012TIP3    H257452   5.690   6.068  13.035 -0.4698  0.7379  0.1948
12013TIP3   OH257453   1.518   6.550  14.595  0.8481 -0.1206  0.2229
12013TIP3    H157454   1.601   6.554  14.547  1.5689 -1.1779  1.3680
12013TIP3    H257455   1.476   6.634  14.576  1.5176 -0.1679 -1.5492
12014TIP3   OH257456   2.600   3.685  15.860 -0.4761 -0.1208  0.2516
12014TIP3    H157457   2.689   3.661  15.886 -0.8495 -0.3759  1.3166
12014TIP3    H257458   2.587   3.773  15.894 -0.6404 -0.0863  0.1063
12015TIP3   OH257459   6.708   1.944  15.250 -0.4509  0.0871 -0.0769
12015TIP3    H157460   6.695   1.860  15.294 -1.6277  0.3518  0.0792
12015TIP3    H257461   6.666   1.933  15.165 -1.3707  0.8098  0.2768
12016TIP3   OH257462   6.217   5.689  15.504  0.2576  0.2365  0.4498
12016TIP3    H157463   6.227   5.603  15.462  2.5092 -0.1124  1.6223
12016TIP3    H257464   6.123   5.707  15.499  0.2190 -0.6072 -3.0741
12017TIP3   OH257465   4.856   1.532   0.720 -0.0086  0.1021 -0.5283
12017TIP3    H157466   4.874   1.547   0.813 -1.8590 -2.8237  0.3715
12017TIP3    H257467   4.778   1.584   0.702 -0.4784 -0.4232 -0.0472
12018TIP3   OH257468   5.094   0.786  12.012 -0.0797 -0.2272  0.4381
12018TIP3    H157469   5.121   0.699  12.041  2.0573 -0.1164 -1.0837
12018TIP3    H257470   5.016   0.771  11.960  0.3005 -1.2522  0.1528
12019TIP3   OH257471   2.562   5.633   3.345  0.1642  0.0856  0.2487
12019TIP3    H157472   2.624   5.689   3.392 -0.6139  1.3002 -0.1292
12019TIP3    H257473   2.543   5.561   3.405  1.7340 -0.1690  0.4627
12020TIP3   OH257474   6.707   6.557  13.969  0.2561 -0.0060  0.1474
12020TIP3    H157475   6.628   6.549  13.916  0.2725 -0.5218  0.1970
12020TIP3    H257476   6.684   6.620  14.037  0.1998  0.5693 -0.4061
12021TIP3   OH257477   3.108   3.461   2.533  0.9236  0.1346 -0.1998
12021TIP3    H157478   3.164   3.478   2.608  2.5853 -1.9055 -0.9335
12021TIP3    H257479   3.107   3.544   2.485  1.5591  0.8167  0.9527
12022TIP3   OH257480   4.654   2.408   0.977 -0.2003  0.6176 -0.0105
12022TIP3    H157481   4.749   2.408   0.971 -0.2602  0.1406 -0.8984
12022TIP3    H257482   4.628   2.317   0.967 -0.8285  0.8984 -1.0725
12023TIP3   OH257483   1.898   2.223   5.393 -0.0662 -0.0846 -0.1687
12023TIP3    H157484   1.942   2.188   5.471 -3.5078 -1.3020  1.3538
12023TIP3    H257485   1.881   2.315   5.414 -0.6859 -0.3252  0.4043
12024TIP3   OH257486   3.769   0.485  12.937  0.5070 -0.6482 -0.3492
12024TIP3    H157487   3.833   0.532  12.883  0.3693 -0.7836 -0.6338
12024TIP3    H257488   3.805   0.397  12.946  0.4477 -0.6743 -0.3634
12025TIP3   OH257489   5.938   6.128   1.044 -0.0120  0.1786  0.5493
12025TIP3    H157490   5.896   6.114   1.129 -0.6659  0.2850  0.2492
12025TIP3    H257491   5.877   6.090   0.980  1.3925 -1.6735  0.2780
12026TIP3   OH257492   2.033   0.505   4.747  0.0490  0.0523 -0.1245
12026TIP3    H157493   2.030   0.598   4.769 -0.1966  0.1336 -0.5003
12026TIP3    H257494   2.125   0.489   4.725  0.1760  0.1069  0.3456
12027TIP3   OH257495   0.849   4.697  16.122 -0.4748  0.3219  0.3059
12027TIP3    H157496   0.883   4.723  16.207  1.1332  0.2468 -0.2950
12027TIP3    H257497   0.905   4.625  16.094 -0.0716  1.2813 -1.4549
12028TIP3   OH257498   4.511   2.181  13.808 -0.3481 -0.2224 -0.4589
12028TIP3    H157499   4.482   2.100  13.850  0.2144 -1.1738 -1.8827
12028TIP3    H257500   4.448   2.196  13.738 -0.8604  0.9657  0.2393
12029TIP3   OH257501   5.508   4.841   0.383 -0.6284  0.0669  0.7384
12029TIP3    H157502   5.587   4.858   0.332 -1.2714  0.0231 -0.3011
12029TIP3    H257503   5.505   4.911   0.448 -0.0589  0.4210  0.3898
12030TIP3   OH257504   2.816   2.594   0.884  0.4595  0.1450  0.6056
12030TIP3    H157505   2.814   2.555   0.797 -0.1319  2.0103 -0.2395
12030TIP3    H257506   2.906   2.584   0.914  0.2019 -2.2937  0.6297
12031TIP3   OH257507   1.452   3.110   1.290 -0.3305  0.1376 -0.2261
12031TIP3    H157508   1.484   3.107   1.380  0.7592 -1.8914 -0.6452
12031TIP3    H257509   1.367   3.066   1.293 -0.3443  0.1696 -0.1550
12032TIP3   OH257510   4.694   3.231   5.940  0.7056 -0.0417  0.1069
12032TIP3    H157511   4.605   3.199   5.955  1.1375 -1.7819 -0.8786
12032TIP3    H257512   4.686   3.327   5.941 -1.3405 -0.1813 -0.8573
12033TIP3   OH257513   2.825   2.578   4.689 -0.0957 -0.0691 -0.0083
12033TIP3    H157514   2.870   2.509   4.738 -0.9493 -0.3778  0.3519
12033TIP3    H257515   2.769   2.622   4.753 -0.8917 -0.1933 -0.5979
12034TIP3   OH257516   3.849   6.443  13.683 -0.0436 -0.4208  0.0649
12034TIP3    H157517   3.876   6.356  13.715 -0.4591  0.1336  1.9763
12034TIP3    H257518   3.906   6.459  13.608  1.2573 -1.5929  0.7750
12035TIP3   OH257519   0.554   6.665   2.223 -0.2404 -0.3661 -0.5922
12035TIP3    H157520   0.642   6.685   2.254  0.2805 -2.3281 -0.7319
12035TIP3    H257521   0.564   6.649   2.129 -1.0430  1.0345 -0.9361
12036TIP3   OH257522   6.376   2.970   5.032  0.1015 -0.1367  0.5483
12036TIP3    H157523   6.466   2.966   5.063 -0.5255 -2.7542  2.1838
12036TIP3    H257524   6.379   2.928   4.945  0.3063 -1.1320  1.0273
12037TIP3   OH257525   2.455   5.060   4.844  0.7354  0.0413 -0.1131
12037TIP3    H157526   2.494   5.148   4.843  0.1387  0.3073 -0.0843
12037TIP3    H257527   2.484   5.020   4.762 -0.8152  1.0667 -1.1906
12038TIP3   OH257528   6.641   5.060   1.881 -0.3352 -0.4379  0.5549
12038TIP3    H157529   6.658   5.092   1.970 -0.4431  0.1839  0.3497
12038TIP3    H257530   6.724   5.071   1.835 -1.1215  2.0939 -0.2919
12039TIP3   OH257531   1.064   3.368  15.549  0.1167  0.0987 -1.0813
12039TIP3    H157532   1.018   3.419  15.483 -0.1978 -0.2884 -1.1639
12039TIP3    H257533   1.154   3.402  15.548 -0.5221  1.8640  0.1229
12040TIP3   OH257534   3.752   1.297  14.372  0.1933  0.7288  0.0068
12040TIP3    H157535   3.703   1.373  14.403 -1.6659 -0.4105 -0.0675
12040TIP3    H257536   3.842   1.328  14.364 -0.1624  2.3471  1.9440
12041TIP3   OH257537   3.065   3.769   0.219  0.1316 -0.4401  0.1261
12041TIP3    H157538   3.158   3.746   0.218  0.5931  1.3422  0.8394
12041TIP3    H257539   3.023   3.695   0.263  1.2955 -0.9619  0.3869
12042TIP3   OH257540   3.954   3.105   5.014 -0.1801  0.2779 -0.4945
12042TIP3    H157541   3.982   3.174   5.074 -1.7827  1.3262 -0.9168
12042TIP3    H257542   3.932   3.151   4.933 -0.9572 -0.7624 -0.8886
12043TIP3   OH257543   4.268   6.274   1.094 -0.0495 -0.0311  0.5591
12043TIP3    H157544   4.283   6.364   1.122 -0.5304  0.2340 -0.0137
12043TIP3    H257545   4.283   6.276   0.999  1.8640 -0.9686  0.8237
12044TIP3   OH257546   3.061   3.406   5.971 -0.7644 -0.1799  0.1513
12044TIP3    H157547   3.134   3.398   5.910  0.0329 -1.3703  1.2354
12044TIP3    H257548   2.994   3.455   5.923  1.4989  2.7302 -0.1636
12045TIP3   OH257549   2.680   5.336   1.381  0.1252  0.2446 -0.3779
12045TIP3    H157550   2.625   5.272   1.426  1.8253 -2.3662 -1.9081
12045TIP3    H257551   2.621   5.378   1.318 -0.9295  0.0453  0.4441
12046TIP3   OH257552   0.511   0.097  15.960  0.2959 -0.3480 -0.0934
12046TIP3    H157553   0.449   0.158  15.920 -0.5537 -0.3928  1.1448
12046TIP3    H257554   0.509   0.020  15.902  1.0448  0.6094 -1.4176
12047TIP3   OH257555   4.908   6.310   0.044  0.6721  0.1723  0.2362
12047TIP3    H157556   4.867   6.361  -0.026  1.4090  0.0908 -0.2442
12047TIP3    H257557   4.948   6.235   0.000  0.4347 -0.3154  0.8379
12048TIP3   OH257558   3.565   1.152  15.283 -0.3343  0.4378  0.2442
12048TIP3    H157559   3.565   1.122  15.374  1.8450  0.2267  0.1913
12048TIP3    H257560   3.601   1.240  15.287 -1.0122  0.7469 -0.3357
12049TIP3   OH257561   3.238   2.134  12.791  0.6474 -0.5355  0.5521
12049TIP3    H157562   3.143   2.133  12.780  0.6829 -2.8174  0.2509
12049TIP3    H257563   3.264   2.222  12.762 -1.3696  0.1820  0.8109
12050TIP3   OH257564   1.529   1.126  12.082 -0.0395 -0.2458  0.7271
12050TIP3    H157565   1.510   1.174  12.163 -2.3021  0.3816 -0.1384
12050TIP3    H257566   1.491   1.180  12.013 -0.1974 -1.9217 -0.5235
12051TIP3   OH257567   4.510   5.326  10.872 -0.1621 -0.1262  0.3935
12051TIP3    H157568   4.566   5.301  10.946  2.2521  1.9699 -0.6540
12051TIP3    H257569   4.452   5.393  10.907 -0.9876 -1.2075  1.1061
12052TIP3   OH257570   4.035   1.585  13.648 -0.6232 -0.0520 -0.2123
12052TIP3    H157571   4.011   1.513  13.707 -0.0749 -0.4112 -0.4233
12052TIP3    H257572   4.006   1.555  13.561 -0.8159  0.1802 -0.2264
12053TIP3   OH257573   4.039   2.960  16.367 -0.4800  0.0084 -0.2868
12053TIP3    H157574   3.948   2.952  16.341 -0.3748 -1.5060 -0.2481
12053TIP3    H257575   4.088   2.917  16.297  0.2728  1.4719 -0.6882
12054TIP3   OH257576   0.285   6.502   1.825  0.3473 -0.3404 -0.2062
12054TIP3    H157577   0.213   6.521   1.764  0.9674 -0.0421 -0.8651
12054TIP3    H257578   0.285   6.576   1.886 -0.1069 -0.5031 -0.0066
12055TIP3   OH257579   4.549   4.763  15.321 -0.2508  0.6751 -0.0645
12055TIP3    H157580   4.531   4.776  15.228  1.3354  1.2293 -0.3137
12055TIP3    H257581   4.512   4.677  15.341 -0.2285  0.3613 -1.3067
12056TIP3   OH257582   1.172   4.511  11.276  0.0516  0.1467  1.4237
12056TIP3    H157583   1.221   4.483  11.352 -0.5132 -1.5268  1.1911
12056TIP3    H257584   1.210   4.462  11.203  0.1399  1.2148  0.7454
12057TIP3   OH257585   4.501   2.748   3.086  0.2358  0.3027  0.4522
12057TIP3    H157586   4.469   2.662   3.112  1.3429  0.1076  1.1878
12057TIP3    H257587   4.424   2.792   3.049 -1.1294  0.1802  3.0163
12058TIP3   OH257588   1.011   4.793   3.563  0.0418 -0.7408 -0.5366
12058TIP3    H157589   0.972   4.708   3.542 -0.3453 -1.1681  1.7752
12058TIP3    H257590   1.097   4.791   3.522 -0.8981 -1.2933 -2.5107
12059TIP3   OH257591   4.164   3.477  13.121  0.3973  0.2310 -1.3267
12059TIP3    H157592   4.089   3.477  13.181 -0.7030  1.5167 -2.6719
12059TIP3    H257593   4.181   3.385  13.103  0.5169 -0.1493  0.6829
12060TIP3   OH257594   0.546   2.619  13.857  0.2358  0.4023  0.0570
12060TIP3    H157595   0.603   2.598  13.931  1.0213  1.2646 -0.2799
12060TIP3    H257596   0.563   2.550  13.793 -0.3465 -0.2701  0.6251
12061TIP3   OH257597   3.430   0.015   0.898 -0.0984 -0.1367  0.3334
12061TIP3    H157598   3.467  -0.010   0.983 -0.3673  0.5995  0.6788
12061TIP3    H257599   3.415  -0.067   0.853  0.4941 -0.5173  0.8141
12062TIP3   OH257600   0.670   0.731  17.057 -0.0162  0.7535 -0.4914
12062TIP3    H157601   0.638   0.723  16.968 -1.8016  0.3136  0.1791
12062TIP3    H257602   0.593   0.754  17.109  0.6044 -0.9882  1.2462
12063TIP3   OH257603   1.600   5.808   1.041  0.2762  0.5182  0.0436
12063TIP3    H157604   1.613   5.902   1.058 -0.5249  0.3721  1.5852
12063TIP3    H257605   1.678   5.781   0.994  0.2989  2.0707 -0.8501
12064TIP3   OH257606   2.463   0.028   0.610 -0.1580 -0.5616 -0.3173
12064TIP3    H157607   2.549   0.001   0.578  0.1690 -0.7326  0.6940
12064TIP3    H257608   2.404  -0.044   0.586  0.2355 -1.0406  0.1411
12065TIP3   OH257609   4.495   5.323   2.212 -0.4007 -0.0603 -0.5275
12065TIP3    H157610   4.579   5.305   2.169 -0.4311 -0.9966 -0.1962
12065TIP3    H257611   4.517   5.386   2.280  0.3623 -1.6477  0.7337
12066TIP3   OH257612   1.960   6.400  15.761  0.4768 -0.0228  0.5867
12066TIP3    H157613   1.965   6.426  15.669 -3.0799 -1.4261 -0.0878
12066TIP3    H257614   1.974   6.481  15.809  2.2324  0.7633 -1.1712
12067TIP3   OH257615   4.625   0.530  15.460  0.3988  0.2421  0.0337
12067TIP3    H157616   4.605   0.436  15.468 -2.8019  1.0610  2.9119
12067TIP3    H257617   4.719   0.536  15.478  0.2814 -2.2310  1.7959
12068TIP3   OH257618   5.421   2.600   6.687  0.4132 -0.0517 -0.4573
12068TIP3    H157619   5.387   2.515   6.716  0.0972 -0.1167 -1.0071
12068TIP3    H257620   5.350   2.637   6.634  0.5254  0.5810 -0.1719
12069TIP3   OH257621   3.061   1.488   1.585  0.1359  0.6551 -0.0344
12069TIP3    H157622   3.036   1.492   1.678  0.6342  0.6543  0.0988
12069TIP3    H257623   3.111   1.407   1.578 -0.8853  0.0471 -0.5433
12070TIP3   OH257624   5.660   3.976  13.161  0.7137  0.0464  0.3382
12070TIP3    H157625   5.751   3.990  13.135  0.3100  1.0187 -0.6235
12070TIP3    H257626   5.660   3.985  13.256  1.8338 -1.2481  0.4726
12071TIP3   OH257627   1.872   2.355  14.344 -0.0747 -0.3381  0.0471
12071TIP3    H157628   1.828   2.365  14.428 -0.1279  1.0138 -0.1156
12071TIP3    H257629   1.879   2.261  14.330  2.5989 -0.6523  2.9536
12072TIP3   OH257630   5.364   4.848   4.045  0.8604  0.1060 -0.1876
12072TIP3    H157631   5.314   4.782   4.094 -0.5320  1.3418  0.0773
12072TIP3    H257632   5.337   4.931   4.083  1.7277  0.9095 -1.3204
12073TIP3   OH257633   2.112   3.227   2.261  0.1047 -0.5625  0.2727
12073TIP3    H157634   2.042   3.257   2.203 -0.4310 -1.5144  0.4072
12073TIP3    H257635   2.119   3.295   2.328 -0.2653 -0.1659 -0.0881
12074TIP3   OH257636   5.909   1.430   2.777  0.8456  0.3797  0.1407
12074TIP3    H157637   5.995   1.404   2.810  0.6313  0.0655  0.4553
12074TIP3    H257638   5.895   1.517   2.813  1.4998  0.8785 -0.7909
12075TIP3   OH257639   0.224   1.046   0.702  0.1179 -0.2084 -0.3964
12075TIP3    H157640   0.263   1.045   0.615  0.9118  0.1505 -0.0406
12075TIP3    H257641   0.130   1.032   0.686  0.2350  0.0534 -1.3182
12076TIP3   OH257642   6.189   2.263   5.111 -0.1299  0.5150  0.2892
12076TIP3    H157643   6.210   2.276   5.204 -0.2363  0.8725  0.2634
12076TIP3    H257644   6.120   2.327   5.093 -1.1970 -0.5931  0.3504
12077TIP3   OH257645   1.399   5.112  15.179 -0.4753  0.3684  0.4315
12077TIP3    H157646   1.416   5.206  15.185  0.4825  0.1614  1.1048
12077TIP3    H257647   1.320   5.105  15.126  0.5781  1.4604 -1.3484
12078TIP3   OH257648   1.807   4.701  15.666  0.3340  0.2646 -0.1949
12078TIP3    H157649   1.857   4.691  15.585  1.7342  0.1039  0.6819
12078TIP3    H257650   1.800   4.796  15.678  1.8265  0.2960  0.5230
12079TIP3   OH257651   2.606   6.458  12.284 -0.4978 -0.6200  0.0287
12079TIP3    H157652   2.696   6.426  12.284 -0.4242 -0.4189  0.4667
12079TIP3    H257653   2.592   6.488  12.373 -0.2795  1.3680 -0.5842
12080TIP3   OH257654   3.331   2.000  16.882  0.7135  0.0540  0.0113
12080TIP3    H157655   3.256   2.036  16.929  0.0981  0.1158 -0.9957
12080TIP3    H257656   3.407   2.046  16.918  0.1230  0.9965  0.0724
12081TIP3   OH257657   5.825   3.138   6.330  0.1750 -0.2257  0.0987
12081TIP3    H157658   5.805   3.152   6.422 -0.0449 -0.1168  0.0366
12081TIP3    H257659   5.739   3.135   6.287  0.3258  2.0793 -0.4329
12082TIP3   OH257660   0.259   2.194   4.379 -0.6858  0.7355 -0.1956
12082TIP3    H157661   0.323   2.184   4.449 -1.1210  2.6088  0.4875
12082TIP3    H257662   0.311   2.195   4.298 -0.1391 -0.8217  0.1176
12083TIP3   OH257663   0.128   2.293   0.396  0.3792 -0.0055 -0.3941
12083TIP3    H157664   0.193   2.229   0.424  2.0251  2.4981  1.7334
12083TIP3    H257665   0.064   2.295   0.467 -0.6480 -0.5078 -1.2709
12084TIP3   OH257666   3.005   5.751  10.596  0.2544  0.0846  0.5389
12084TIP3    H157667   2.934   5.768  10.657 -0.2660  2.4455 -0.6552
12084TIP3    H257668   2.965   5.759  10.510  1.2411 -2.0207 -0.1317
12085TIP3   OH257669   3.795   5.122  16.752  0.3955 -0.0020 -0.2310
12085TIP3    H157670   3.784   5.204  16.801 -0.1108 -2.0662  3.2645
12085TIP3    H257671   3.890   5.110  16.747  0.5156  1.5751 -2.1819
12086TIP3   OH257672   5.388   5.166  14.129 -0.0933  0.1081  0.1057
12086TIP3    H157673   5.468   5.162  14.076 -0.3645  0.3861 -0.3330
12086TIP3    H257674   5.379   5.079  14.166  0.2733  0.0025 -0.0547
12087TIP3   OH257675   0.479   4.920  14.889  0.0392 -0.2991  0.3028
12087TIP3    H157676   0.493   4.896  14.797  0.2575 -0.3725  0.3539
12087TIP3    H257677   0.398   4.874  14.913  0.2531 -0.6852  0.2929
12088TIP3   OH257678   5.388   0.450   4.576  0.2688 -0.5427 -0.2867
12088TIP3    H157679   5.438   0.507   4.634 -0.2532  0.1918 -0.5490
12088TIP3    H257680   5.402   0.487   4.489 -1.2423  0.0441 -0.2824
12089TIP3   OH257681   0.723   1.775  12.073 -0.5558  0.6096 -0.4554
12089TIP3    H157682   0.663   1.821  12.132 -0.9483  2.1892 -2.0229
12089TIP3    H257683   0.785   1.843  12.045  2.0399 -1.0022  1.1837
12090TIP3   OH257684   2.626   4.156  12.277  0.1005  0.3029 -0.2592
12090TIP3    H157685   2.550   4.105  12.250 -0.5887  1.5299 -0.7135
12090TIP3    H257686   2.616   4.167  12.372  0.5381 -0.8511 -0.0789
12091TIP3   OH257687   3.401   0.422   6.441 -0.4406 -0.1872 -0.2973
12091TIP3    H157688   3.443   0.355   6.387 -0.7243 -1.6855  1.3031
12091TIP3    H257689   3.475   0.470   6.480 -0.2393  1.0884 -2.2367
12092TIP3   OH257690   1.836   0.276   0.374  0.0875 -0.0230 -0.2466
12092TIP3    H157691   1.777   0.311   0.440  0.7072  1.0096 -0.2432
12092TIP3    H257692   1.923   0.303   0.402  0.1606  2.6788 -2.8017
12093TIP3   OH257693   2.730   3.166   6.667  0.5121 -0.1953 -0.1265
12093TIP3    H157694   2.793   3.102   6.635  0.6063 -0.4619  0.5635
12093TIP3    H257695   2.651   3.116   6.684  0.6729 -0.1845  0.6827
12094TIP3   OH257696   0.233   1.407   5.958 -1.0290  0.1178  0.6433
12094TIP3    H157697   0.202   1.424   6.047 -1.6392 -0.5218  0.5563
12094TIP3    H257698   0.159   1.430   5.902 -1.0133 -0.4841  0.3717
12095TIP3   OH257699   0.467   4.808   0.382  0.7290  0.1886 -0.3767
12095TIP3    H157700   0.458   4.904   0.379 -0.3455  0.0820 -1.1270
12095TIP3    H257701   0.494   4.784   0.293  2.9302 -0.0403  0.3364
12096TIP3   OH257702   4.372   5.317  17.238  0.2046 -0.4043 -0.4757
12096TIP3    H157703   4.311   5.327  17.312 -0.4755  0.7896 -1.1850
12096TIP3    H257704   4.357   5.228  17.206  0.4473 -0.9119  0.7602
12097TIP3   OH257705   0.556   6.405   3.363  0.2244  0.0049  0.0562
12097TIP3    H157706   0.566   6.421   3.269 -0.6184 -0.1751 -0.0686
12097TIP3    H257707   0.507   6.481   3.394 -0.7242 -0.6157  0.0938
12098TIP3   OH257708   5.824   0.681   4.465  0.5139  0.1339  0.2634
12098TIP3    H157709   5.850   0.773   4.459  0.6695  0.1253  0.8533
12098TIP3    H257710   5.824   0.661   4.558  0.9633 -0.5990  0.1141
12099TIP3   OH257711   5.509   0.392  11.969  0.3548  0.5939 -0.1304
12099TIP3    H157712   5.437   0.348  11.925  0.5883  1.3820 -1.3280
12099TIP3    H257713   5.470   0.427  12.050 -0.5018  0.6195 -0.5454
12100TIP3   OH257714   5.732   0.804   2.035 -0.1813  0.9719 -0.1990
12100TIP3    H157715   5.809   0.769   2.080  0.1677 -1.2903 -2.4713
12100TIP3    H257716   5.716   0.889   2.077  3.3167  1.3156  0.5570
12101TIP3   OH257717   4.930   6.416  10.871  0.2009  0.5418  0.4554
12101TIP3    H157718   4.895   6.505  10.874  0.0703  0.5097 -0.0419
12101TIP3    H257719   4.910   6.385  10.782  0.5545  0.1422  0.5115
12102TIP3   OH257720   4.959   3.874  13.991 -0.2489 -0.5477  0.0571
12102TIP3    H157721   4.875   3.917  13.974 -0.2186 -0.4032  0.2672
12102TIP3    H257722   4.997   3.860  13.905  0.2076  0.7676  0.0371
12103TIP3   OH257723   3.388   5.714   2.531 -0.5007  0.0657  0.9201
12103TIP3    H157724   3.368   5.802   2.564 -0.6805 -0.0580  1.1400
12103TIP3    H257725   3.303   5.672   2.521 -0.4527  0.1133  0.2588
12104TIP3   OH257726   4.945   6.619  16.282  0.0095  0.2877  0.2480
12104TIP3    H157727   4.886   6.687  16.315 -1.1721 -1.1327  1.1121
12104TIP3    H257728   4.989   6.586  16.360  2.4038  1.6980 -0.4427
12105TIP3   OH257729   0.341   5.370  14.913 -0.9686  0.2284  0.4337
12105TIP3    H157730   0.338   5.430  14.839  1.8973 -0.5093 -0.3740
12105TIP3    H257731   0.312   5.286  14.876 -0.0448 -0.0176  0.2414
12106TIP3   OH257732   1.502   0.849   5.035 -0.1474  0.0306 -0.2120
12106TIP3    H157733   1.451   0.931   5.036 -1.2885 -0.6771  0.8512
12106TIP3    H257734   1.530   0.837   5.125 -1.8115 -1.8554  0.0886
12107TIP3   OH257735   5.739   3.933   5.129  0.2258 -0.3754 -0.1398
12107TIP3    H157736   5.693   3.854   5.157 -1.3140 -0.0757 -1.7654
12107TIP3    H257737   5.764   3.915   5.038 -0.1730  1.0322 -0.5343
12108TIP3   OH257738   3.901   0.569  15.547 -0.0851 -0.3182 -0.7261
12108TIP3    H157739   3.928   0.574  15.456  0.5846 -2.8162 -0.7103
12108TIP3    H257740   3.968   0.617  15.595  0.1850  0.0130 -1.4341
12109TIP3   OH257741   2.738   2.852   2.779 -0.0909  0.0675  0.1468
12109TIP3    H157742   2.690   2.927   2.816  0.2131  0.1855  0.3041
12109TIP3    H257743   2.817   2.846   2.832 -0.0976 -0.3469  0.1107
12110TIP3   OH257744   4.555   2.950   6.375  0.1633  0.2708 -0.5954
12110TIP3    H157745   4.461   2.948   6.393  0.4253  2.1290  1.2065
12110TIP3    H257746   4.591   2.880   6.430 -0.0011  0.5375 -0.1425
12111TIP3   OH257747   6.761   4.668   4.171 -0.4562 -0.6633 -0.6685
12111TIP3    H157748   6.770   4.727   4.246 -1.1919 -0.6652 -0.5759
12111TIP3    H257749   6.830   4.603   4.182  1.6548  1.3188 -1.8153
12112TIP3   OH257750   1.413   1.850   1.196 -0.0271 -0.3418  0.1696
12112TIP3    H157751   1.376   1.762   1.200  1.4951 -0.9170  3.1260
12112TIP3    H257752   1.485   1.842   1.133  0.0211 -1.1949  0.3201
12113TIP3   OH257753   1.880   1.341  15.590 -0.0563  0.2668  0.1319
12113TIP3    H157754   1.845   1.254  15.607 -0.5042  0.7343  1.7026
12113TIP3    H257755   1.803   1.398  15.590  0.2160  0.6466 -1.0559
12114TIP3   OH257756   1.531   5.178   0.629 -0.6394  0.4087 -0.4641
12114TIP3    H157757   1.624   5.191   0.610 -0.4881 -1.2996 -1.0202
12114TIP3    H257758   1.511   5.239   0.699  0.3015  2.5337 -2.0172
12115TIP3   OH257759   1.135   4.652   5.626  0.4134 -0.4997  0.4430
12115TIP3    H157760   1.198   4.675   5.695  1.0161 -0.1520 -0.2146
12115TIP3    H257761   1.185   4.657   5.545 -1.0564  2.3824 -0.3756
12116TIP3   OH257762   1.005   1.791   4.091 -0.0851  0.4315 -0.2217
12116TIP3    H157763   1.008   1.767   4.183 -0.6814  0.3270 -0.2303
12116TIP3    H257764   0.985   1.885   4.091 -0.5977  0.3203 -0.2601
12117TIP3   OH257765   0.933   1.369  15.102  0.0207 -0.0649  0.2013
12117TIP3    H157766   0.891   1.286  15.125 -0.2161  0.4518  1.6343
12117TIP3    H257767   0.934   1.419  15.183 -0.0413  1.4373 -0.7098
12118TIP3   OH257768   3.118   0.649  16.839  0.0058  0.3875 -0.6242
12118TIP3    H157769   3.133   0.650  16.934 -1.8467 -0.7896 -0.2893
12118TIP3    H257770   3.206   0.647  16.801  0.7626  0.1000  1.0830
12119TIP3   OH257771   0.207   0.004  14.750  0.4616  0.4071 -0.4575
12119TIP3    H157772   0.196   0.082  14.696  1.8423 -0.0989 -1.5184
12119TIP3    H257773   0.293   0.015  14.791  0.3646 -0.2317 -0.0692
12120TIP3   OH257774   5.899   0.953   5.428  0.4325  0.6592  0.1714
12120TIP3    H157775   5.842   0.914   5.362  1.2173  0.7420 -0.5610
12120TIP3    H257776   5.987   0.944   5.393  0.7779  1.5244  0.7818
12121TIP3   OH257777   4.173   1.743  11.026  0.4547  0.0490  0.2994
12121TIP3    H157778   4.220   1.821  11.056  1.2067  0.2789 -1.4391
12121TIP3    H257779   4.084   1.774  11.010  0.3577  0.1972  1.0967
12122TIP3   OH257780   4.692   4.354   0.173  0.1538  0.7390 -0.2272
12122TIP3    H157781   4.692   4.443   0.207  0.2966  1.3361 -1.7219
12122TIP3    H257782   4.769   4.313   0.213 -0.1730  1.1477  0.8158
12123TIP3   OH257783   0.203   1.142   0.959 -0.0044  0.0969 -0.6059
12123TIP3    H157784   0.209   1.233   0.932  1.3150  0.1123 -0.2745
12123TIP3    H257785   0.214   1.092   0.878  1.4539  0.1978 -0.4837
12124TIP3   OH257786   3.406   6.676  16.427 -0.2891 -0.2130  0.5193
12124TIP3    H157787   3.360   6.596  16.403 -0.5915  0.0741  0.1495
12124TIP3    H257788   3.337   6.738  16.450 -0.0602 -0.0112  0.6706
12125TIP3   OH257789   2.651   2.570   5.767  1.0813 -0.2562 -0.0041
12125TIP3    H157790   2.681   2.615   5.688  1.1701  0.6923  0.5624
12125TIP3    H257791   2.644   2.478   5.741  0.6469  0.1185 -1.2467
12126TIP3   OH257792   1.645   1.633   2.906  0.0501  0.1433 -0.2788
12126TIP3    H157793   1.633   1.538   2.909  0.2012  0.1497  0.7458
12126TIP3    H257794   1.651   1.653   2.813 -0.1427 -0.8310 -0.5126
12127TIP3   OH257795   5.608   3.259   4.203 -0.4976  0.2100 -1.0509
12127TIP3    H157796   5.620   3.170   4.170  0.6189  0.8852 -2.5070
12127TIP3    H257797   5.683   3.273   4.260 -0.7041  0.1972 -0.7768
12128TIP3   OH257798   4.872   2.556  13.780  0.0936  0.8149  0.2098
12128TIP3    H157799   4.800   2.503  13.813  0.3522  1.0578  1.2064
12128TIP3    H257800   4.946   2.495  13.774 -0.4515  0.3152 -1.8556
12129TIP3   OH257801   5.291   0.733   3.223 -0.4073  0.1975 -0.4948
12129TIP3    H157802   5.273   0.644   3.253  1.8981 -0.5017 -1.1220
12129TIP3    H257803   5.231   0.747   3.150 -1.2155 -0.6130  0.0127
12130TIP3   OH257804   0.996   6.714  11.702 -0.3488  0.3045  0.1292
12130TIP3    H157805   1.023   6.783  11.763  1.2081  0.0782 -0.2970
12130TIP3    H257806   1.070   6.704  11.643 -1.1962 -0.6489 -0.7813
12131TIP3   OH257807   1.723   2.314   5.718 -0.4795  0.3825 -0.5380
12131TIP3    H157808   1.754   2.390   5.766 -1.1395 -0.0171  0.5380
12131TIP3    H257809   1.632   2.303   5.747  0.1199 -1.7882  0.5294
12132TIP3   OH257810   3.569   4.500  11.646  0.3012  0.1038 -0.4868
12132TIP3    H157811   3.579   4.595  11.638 -0.3548  0.0414 -2.3412
12132TIP3    H257812   3.500   4.489  11.712 -0.2788  0.9438 -0.9445
12133TIP3   OH257813   3.902   1.480   2.124  0.4867  0.1993  0.4502
12133TIP3    H157814   3.919   1.569   2.091 -0.3006  0.3086  0.3410
12133TIP3    H257815   3.862   1.493   2.210 -2.2318  0.0254 -0.7391
12134TIP3   OH257816   2.483   5.166   1.456  0.2729  0.1293  0.1103
12134TIP3    H157817   2.400   5.138   1.419 -0.0100  1.1435 -0.0123
12134TIP3    H257818   2.521   5.085   1.492 -0.2937 -0.5124 -0.7227
12135TIP3   OH257819   5.981   4.539   6.171  0.5277 -0.2540  0.1972
12135TIP3    H157820   5.980   4.561   6.077 -0.0474 -1.2554 -0.0334
12135TIP3    H257821   5.890   4.549   6.199  0.9207  1.3920  0.9836
12136TIP3   OH257822   4.134   1.906   2.853  0.3487  0.5031  0.4716
12136TIP3    H157823   4.082   1.847   2.799 -1.1876  0.6141  1.8003
12136TIP3    H257824   4.224   1.891   2.825 -0.4216  0.7701 -2.3100
12137TIP3   OH257825   1.075   4.221   5.121  0.3378 -0.3794  0.1238
12137TIP3    H157826   1.123   4.177   5.191  1.7796 -1.2980 -1.3955
12137TIP3    H257827   1.074   4.313   5.146  2.5802 -0.3973  0.3809
12138TIP3   OH257828   0.129   6.612   4.564 -0.4064  0.6679 -0.1583
12138TIP3    H157829   0.154   6.699   4.531 -1.0470  1.6710  1.9233
12138TIP3    H257830   0.096   6.628   4.652  2.0232 -2.0104  1.3504
12139TIP3   OH257831   5.127   3.720   5.559  0.2902  0.3504 -0.2578
12139TIP3    H157832   5.159   3.710   5.648  0.6300  0.0112 -0.4184
12139TIP3    H257833   5.169   3.800   5.528  1.2864 -0.2965 -0.5975
12140TIP3   OH257834   1.702   4.144  11.788 -0.2947  0.1627 -0.3067
12140TIP3    H157835   1.642   4.215  11.764 -0.2086 -0.4514 -2.4809
12140TIP3    H257836   1.698   4.083  11.713 -0.4830 -2.2060  1.5687
12141TIP3   OH257837   4.401   0.591   4.552  0.0726 -0.4903 -0.8339
12141TIP3    H157838   4.383   0.654   4.481 -2.3157 -0.3568 -0.1509
12141TIP3    H257839   4.483   0.549   4.526  0.3456  1.0559 -2.6216
12142TIP3   OH257840   0.744   3.567  16.565 -0.1324  0.4415 -0.1448
12142TIP3    H157841   0.778   3.481  16.590 -0.4846  0.7430  1.4245
12142TIP3    H257842   0.690   3.550  16.488  0.1875 -0.6731 -0.1255
12143TIP3   OH257843   1.823   4.105   2.733  0.0257 -0.0439 -0.0735
12143TIP3    H157844   1.758   4.036   2.748 -0.6100  0.5678 -0.0039
12143TIP3    H257845   1.820   4.121   2.639  1.2871 -1.1893 -0.3362
12144TIP3   OH257846   2.430   2.018  11.547 -0.3659  0.5018 -0.4677
12144TIP3    H157847   2.480   1.992  11.470  0.2718  0.3043  0.0010
12144TIP3    H257848   2.386   2.100  11.522  2.0735  1.9731 -0.1467
12145TIP3   OH257849   0.502   5.789  13.894 -0.2331 -0.4212 -0.3181
12145TIP3    H157850   0.433   5.855  13.898  0.3974  0.3425 -1.7962
12145TIP3    H257851   0.566   5.816  13.961  0.3085  0.7897 -1.3249
12146TIP3   OH257852   6.150   5.676   0.457  0.1082 -0.5379 -0.4045
12146TIP3    H157853   6.075   5.645   0.405 -0.3373  2.7954 -1.8516
12146TIP3    H257854   6.126   5.655   0.547 -1.7615 -1.1223 -0.9957
12147TIP3   OH257855   2.321   1.729   2.343  0.2065 -0.5037  0.5931
12147TIP3    H157856   2.270   1.684   2.411 -1.1393  1.6393  1.0785
12147TIP3    H257857   2.397   1.765   2.390  1.0025 -1.7878  0.3078
12148TIP3   OH257858   6.764   0.908   3.827 -0.2797 -0.3440  0.4384
12148TIP3    H157859   6.752   0.950   3.912  0.6326 -0.3913  0.5948
12148TIP3    H257860   6.693   0.942   3.773 -0.7546 -0.1715  1.1632
12149TIP3   OH257861   3.422   0.091  13.357  0.4898  0.6422  0.3476
12149TIP3    H157862   3.450   0.127  13.274  1.6345  0.3259  0.5951
12149TIP3    H257863   3.423  -0.004  13.344 -0.9279  0.6309  0.2101
12150TIP3   OH257864   1.935   0.781   5.090  0.0757 -0.4527 -0.0135
12150TIP3    H157865   2.001   0.843   5.121  1.5560 -0.6314 -2.6059
12150TIP3    H257866   1.856   0.834   5.077  1.2562  0.8999 -1.9815
12151TIP3   OH257867   6.486   0.797   3.665  0.0984  0.1402 -0.6280
12151TIP3    H157868   6.515   0.888   3.653 -0.4507  0.1588 -1.9571
12151TIP3    H257869   6.392   0.800   3.646 -0.5116 -0.1914  2.1374
12152TIP3   OH257870   0.950   0.427   5.786  0.7160  0.4425 -0.3967
12152TIP3    H157871   0.858   0.447   5.804  1.0474  2.1194 -0.5096
12152TIP3    H257872   0.998   0.501   5.821  2.1682 -1.1111  0.9757
12153TIP3   OH257873   3.938   6.640   2.518  0.4102  0.3980 -0.6370
12153TIP3    H157874   3.977   6.641   2.605  1.5804  0.5515 -1.1599
12153TIP3    H257875   3.927   6.732   2.495  0.6664  0.3588 -0.9118
12154TIP3   OH257876   4.678   2.579  12.423 -0.6134 -0.1504 -0.1092
12154TIP3    H157877   4.634   2.664  12.432 -1.1405 -0.3584 -0.6728
12154TIP3    H257878   4.770   2.601  12.413 -0.8429  0.4105 -1.1094
12155TIP3   OH257879   5.394   5.080   3.103 -0.2194 -0.2943  0.2061
12155TIP3    H157880   5.377   5.093   3.196 -2.1673 -1.6402  0.0822
12155TIP3    H257881   5.391   4.985   3.091 -0.4510 -0.1151 -1.2952
12156TIP3   OH257882   4.162   6.167  17.107 -0.0422  0.0410 -0.2946
12156TIP3    H157883   4.102   6.232  17.145  0.7334  0.8182 -0.3841
12156TIP3    H257884   4.198   6.211  17.030  1.1271 -0.1876  0.1199
12157TIP3   OH257885   3.670   3.952   0.441 -0.1168 -0.5667  0.3010
12157TIP3    H157886   3.701   3.924   0.528  0.7982 -0.4220  0.0230
12157TIP3    H257887   3.607   4.021   0.460  0.0537 -0.5571  0.8529
12158TIP3   OH257888   4.811   5.649   2.735  0.3870 -0.1007  1.0211
12158TIP3    H157889   4.846   5.737   2.744 -0.5261  0.6886 -2.3404
12158TIP3    H257890   4.718   5.657   2.757  0.1636 -0.0596  0.1000
12159TIP3   OH257891   4.997   2.038  11.181 -0.2850 -0.4514 -0.3715
12159TIP3    H157892   5.026   2.113  11.128 -0.1222 -0.6816 -0.6080
12159TIP3    H257893   4.983   2.075  11.268 -1.0214  0.0374 -0.6850
12160TIP3   OH257894   4.333   3.809   4.953  0.0599 -0.1511 -0.5404
12160TIP3    H157895   4.313   3.901   4.936  0.3668 -0.2162 -1.2556
12160TIP3    H257896   4.296   3.762   4.879  1.1627 -0.4620 -0.9066
12161TIP3   OH257897   1.866   2.883   4.077  0.3210  0.4928  0.1456
12161TIP3    H157898   1.944   2.936   4.058  0.6490 -0.0339 -0.0045
12161TIP3    H257899   1.794   2.930   4.036  0.4387  1.3890  0.9411
12162TIP3   OH257900   2.245   6.592  16.486 -0.2688  0.1679  0.4769
12162TIP3    H157901   2.310   6.536  16.444 -1.6104 -3.4439  2.8928
12162TIP3    H257902   2.168   6.587  16.429 -0.6737 -1.2734  1.1108
12163TIP3   OH257903   2.432   5.849  13.322  0.4387  0.1208  0.4973
12163TIP3    H157904   2.400   5.931  13.284 -0.1310 -1.0739 -1.6964
12163TIP3    H257905   2.355   5.793  13.324  1.1702 -0.8857  0.5001
12164TIP3   OH257906   1.652   5.322  15.033 -0.0824  0.4031 -0.1890
12164TIP3    H157907   1.747   5.331  15.023  0.1728 -0.5761  1.2012
12164TIP3    H257908   1.624   5.274  14.955  0.6270  0.3611 -0.4194
12165TIP3   OH257909   1.400   0.170  12.165 -0.2204 -0.0216  1.0233
12165TIP3    H157910   1.406   0.104  12.234 -1.4517  1.6166  2.7671
12165TIP3    H257911   1.452   0.244  12.197  2.2189 -0.5630 -1.4835
12166TIP3   OH257912   5.836   4.984  12.883 -0.3118  0.5711 -0.1025
12166TIP3    H157913   5.857   5.006  12.974  1.5852 -0.4009 -0.2613
12166TIP3    H257914   5.844   5.066  12.835 -1.4030  1.0997  0.6276
12167TIP3   OH257915   6.721   4.656   0.500 -0.0678 -0.9845 -0.0481
12167TIP3    H157916   6.811   4.679   0.477  0.6539  0.6029  3.8960
12167TIP3    H257917   6.673   4.738   0.500 -0.5736 -1.2458  1.5301
12168TIP3   OH257918   1.395   0.682  15.222  0.1515 -0.8093  0.8389
12168TIP3    H157919   1.348   0.636  15.292 -1.2478 -1.5686 -0.5653
12168TIP3    H257920   1.438   0.612  15.172  0.1144 -0.3827  0.2024
12169TIP3   OH257921   1.223   2.359   2.296  0.0511 -0.5474  0.4999
12169TIP3    H157922   1.298   2.411   2.323 -0.5800  0.5306  0.1880
12169TIP3    H257923   1.260   2.291   2.239  0.8375 -0.2998  0.7110
12170TIP3   OH257924   1.164   4.907   4.252  0.5773 -0.6281 -0.1324
12170TIP3    H157925   1.229   4.836   4.252  0.8247 -0.4053 -0.8569
12170TIP3    H257926   1.087   4.868   4.210 -0.0917 -1.1857  1.5750
12171TIP3   OH257927   1.394   6.646   1.758  0.1970 -0.6727  0.0506
12171TIP3    H157928   1.348   6.579   1.809  0.6075 -0.7975  0.2557
12171TIP3    H257929   1.327   6.713   1.741 -0.1434 -1.0084  0.0694
12172TIP3   OH257930   4.343   4.733   4.910 -0.2667 -0.2853  0.4214
12172TIP3    H157931   4.412   4.668   4.921  1.0579  0.9607 -0.3365
12172TIP3    H257932   4.389   4.815   4.897 -1.9093  0.9985  2.2817
12173TIP3   OH257933   5.249   5.529  11.437 -0.0490 -0.0813 -1.1045
12173TIP3    H157934   5.316   5.547  11.371 -1.1436  0.3866 -2.1013
12173TIP3    H257935   5.223   5.439  11.420  0.2784 -0.2373 -0.7681
12174TIP3   OH257936   0.410   6.642   0.722 -0.2809  0.2341  0.5398
12174TIP3    H157937   0.423   6.557   0.764  0.6097  0.0671 -0.0658
12174TIP3    H257938   0.357   6.692   0.784  1.1337  0.0432  1.9078
12175TIP3   OH257939   3.055   6.045   1.052  0.1847  0.1821 -0.1542
12175TIP3    H157940   3.053   5.952   1.070 -1.3345  0.2325  0.0019
12175TIP3    H257941   3.129   6.057   0.992 -0.5293 -1.3412 -1.3715
12176TIP3   OH257942   1.812   0.171   2.338 -0.0753  0.0851 -0.1259
12176TIP3    H157943   1.747   0.215   2.284 -0.5244  0.4682  0.7250
12176TIP3    H257944   1.830   0.232   2.410 -0.5998 -1.0411  0.9828
12177TIP3   OH257945   2.119   3.542   5.486 -0.1476 -0.3147 -0.2756
12177TIP3    H157946   2.032   3.525   5.520 -0.0550 -0.0114  0.1232
12177TIP3    H257947   2.113   3.630   5.449 -0.1789 -0.5414 -0.8048
12178TIP3   OH257948   2.956   2.446   3.824 -0.4058  0.2047 -0.1657
12178TIP3    H157949   2.902   2.373   3.793  0.2620 -0.2337 -0.2977
12178TIP3    H257950   2.964   2.505   3.749 -0.7191  0.2878 -0.1367
12179TIP3   OH257951   2.875   2.111   3.447  0.4387  0.6055 -0.2773
12179TIP3    H157952   2.916   2.025   3.441  0.1609  0.6335 -3.2277
12179TIP3    H257953   2.782   2.093   3.454  0.4503  0.6614  0.0409
12180TIP3   OH257954   2.924   0.683   2.027 -0.1131 -0.3034  0.0963
12180TIP3    H157955   2.997   0.745   2.027  0.2266 -0.6418 -2.3465
12180TIP3    H257956   2.851   0.733   1.990 -1.0154 -0.1282  2.0387
12181TIP3   OH257957   2.613   3.857   5.031 -0.1290  0.3160  0.7452
12181TIP3    H157958   2.575   3.939   5.064 -0.0305  1.2526 -1.3704
12181TIP3    H257959   2.538   3.797   5.025 -0.4259  0.6415  1.1565
12182TIP3   OH257960   0.203   4.567   1.829 -0.2680  0.5669  0.1517
12182TIP3    H157961   0.164   4.483   1.804 -1.4697  0.5157  2.1123
12182TIP3    H257962   0.141   4.633   1.799 -0.6196  0.6122  0.9603
12183TIP3   OH257963   4.356   0.141  16.376 -0.0617 -0.0340 -0.1257
12183TIP3    H157964   4.357   0.052  16.342 -1.0384 -0.4421  0.8505
12183TIP3    H257965   4.392   0.195  16.306 -1.2964 -0.9430 -1.4722
12184TIP3   OH257966   3.380   3.566  14.987 -0.1629 -0.2599  0.5680
12184TIP3    H157967   3.329   3.529  15.059 -0.3478  1.4857  1.3593
12184TIP3    H257968   3.379   3.498  14.919  0.7764 -2.3181  2.5336
12185TIP3   OH257969   2.235   0.798  12.198  0.0752  0.2113  0.0564
12185TIP3    H157970   2.251   0.862  12.267  2.5711  0.6257 -0.8475
12185TIP3    H257971   2.281   0.719  12.226 -1.0188 -0.4529  0.0385
12186TIP3   OH257972   4.114   2.395  13.307 -0.2483 -0.4258 -0.0256
12186TIP3    H157973   4.173   2.350  13.246 -1.3673  0.8279 -2.0927
12186TIP3    H257974   4.026   2.374  13.274 -0.8190  1.6790  0.1405
12187TIP3   OH257975   6.193   0.626   5.068  0.1964  0.4745  0.4930
12187TIP3    H157976   6.222   0.603   5.156 -0.8217  1.5984  1.1249
12187TIP3    H257977   6.273   0.620   5.015  0.9172  0.2956  1.5782
12188TIP3   OH257978   2.139   5.693  15.735 -0.1057 -0.1178  0.2410
12188TIP3    H157979   2.156   5.758  15.803  1.1480  1.0961 -1.1929
12188TIP3    H257980   2.058   5.722  15.693 -1.3930 -1.3866  1.7913
12189TIP3   OH257981   6.515   0.862  13.196  0.9428 -0.7545 -0.6703
12189TIP3    H157982   6.534   0.775  13.161  2.6352  0.2022 -2.2584
12189TIP3    H257983   6.444   0.895  13.141  0.3217 -1.1101 -0.0871
12190TIP3   OH257984   4.181   1.707   6.425  0.7582  0.1528 -1.3144
12190TIP3    H157985   4.256   1.698   6.484  1.2426  1.1268 -1.7670
12190TIP3    H257986   4.199   1.787   6.375 -0.6836  0.5105 -1.2854
12191TIP3   OH257987   2.446   5.542  13.135 -0.1842 -0.3297 -0.0997
12191TIP3    H157988   2.364   5.496  13.153 -0.6379  0.7328  0.6593
12191TIP3    H257989   2.500   5.478  13.090 -1.6757 -0.8444 -1.2221
12192TIP3   OH257990   1.826   1.695   2.397  0.2548  0.3865 -0.2763
12192TIP3    H157991   1.740   1.665   2.367  0.3499 -0.7784  0.5705
12192TIP3    H257992   1.888   1.658   2.334  0.2621 -0.1117  0.0202
12193TIP3   OH257993   0.590   3.316   2.691  0.1662 -0.0743 -0.3993
12193TIP3    H157994   0.579   3.242   2.752 -1.0751 -0.2408 -0.8095
12193TIP3    H257995   0.600   3.274   2.606 -2.0760  0.2417 -0.8546
12194TIP3   OH257996   1.164   1.507   2.572  0.2323  0.0104 -0.2469
12194TIP3    H157997   1.126   1.554   2.498  0.0290  1.3497  0.6886
12194TIP3    H257998   1.214   1.574   2.620 -0.7242 -0.5209  1.5578
12195TIP3   OH257999   6.745   1.049   3.153  0.1871  0.1790  0.3329
12195TIP3    H158000   6.779   1.005   3.231  1.2873  0.2253 -0.0987
12195TIP3    H258001   6.682   0.987   3.116  0.1152 -0.1004  0.9231
12196TIP3   OH258002   4.784   4.605   1.838 -0.0383 -0.1144 -0.4143
12196TIP3    H158003   4.689   4.612   1.830 -0.1713  1.6575  2.2196
12196TIP3    H258004   4.818   4.651   1.762 -1.2780  0.5358 -0.5854
12197TIP3   OH258005   2.553   2.418   2.949  0.3407 -0.1501  0.3178
12197TIP3    H158006   2.643   2.410   2.980  0.2485 -2.9381  0.0455
12197TIP3    H258007   2.560   2.458   2.863  1.4198 -1.0507 -0.0281
12198TIP3   OH258008   5.051   1.320   0.078 -0.1257  0.2552 -0.2774
12198TIP3    H158009   5.119   1.386   0.064  0.3518 -0.0926  0.3879
12198TIP3    H258010   5.001   1.352   0.153  1.5027 -1.2376  1.5035
12199TIP3   OH258011   1.432   6.394   3.466 -0.0005 -0.3467  0.3264
12199TIP3    H158012   1.475   6.479   3.464 -0.1716 -0.2935 -2.4509
12199TIP3    H258013   1.363   6.403   3.532 -1.1829  2.2672 -1.1890
12200TIP3   OH258014   2.092   5.985   5.121  0.2170 -0.0116 -0.5189
12200TIP3    H158015   2.092   6.073   5.160 -0.5212 -0.2039 -0.0800
12200TIP3    H258016   2.056   5.997   5.033 -0.3211  0.0526 -0.2905
12201TIP3   OH258017   5.364   4.190  12.171  0.3038 -0.6923 -0.0602
12201TIP3    H158018   5.337   4.121  12.231  1.3795 -1.7058 -0.7237
12201TIP3    H258019   5.338   4.158  12.084  0.6461 -0.1942 -0.3512
12202TIP3   OH258020   0.027   3.992   5.266 -0.7611  0.2387  0.0803
12202TIP3    H158021   0.073   3.910   5.280 -1.1624 -0.1813 -1.0022
12202TIP3    H258022  -0.060   3.978   5.305 -0.9420  0.0231 -0.3888
12203TIP3   OH258023   4.137   0.540  16.219 -0.2088 -0.1106 -0.2092
12203TIP3    H158024   4.129   0.632  16.242 -1.8359 -0.1372 -0.5610
12203TIP3    H258025   4.198   0.504  16.283 -1.2745  0.7517  1.3284
12204TIP3   OH258026   0.613   3.652   5.957 -0.0735  0.0653  0.1031
12204TIP3    H158027   0.627   3.591   6.028  2.6439  1.9377  1.2459
12204TIP3    H258028   0.548   3.714   5.991 -0.8911 -0.6536 -0.1190
12205TIP3   OH258029   1.749   1.685  12.536 -0.3625  0.3000  0.0244
12205TIP3    H158030   1.754   1.621  12.465  0.3915 -1.4679  1.6221
12205TIP3    H258031   1.748   1.769  12.492  3.8039 -0.5899 -2.0128
12206TIP3   OH258032   1.169   5.320   2.283 -0.7015  0.0242 -0.1195
12206TIP3    H158033   1.173   5.254   2.214 -0.7271 -1.6586  1.4370
12206TIP3    H258034   1.254   5.313   2.327 -1.2242  0.0760  0.9072
12207TIP3   OH258035   2.719   1.466   2.806  0.1730 -0.1345  0.2041
12207TIP3    H158036   2.727   1.471   2.711  0.1048 -0.7702  0.1648
12207TIP3    H258037   2.807   1.446   2.837  0.7387  2.6477  0.4611
12208TIP3   OH258038   6.443   4.110  11.848  0.8962  0.5241 -0.2009
12208TIP3    H158039   6.504   4.176  11.814  0.2414  1.4923  0.4920
12208TIP3    H258040   6.457   4.110  11.942  0.5666  0.0147 -0.1520
12209TIP3   OH258041   1.580   6.025  12.152  0.0035 -0.1077  0.2602
12209TIP3    H158042   1.629   6.105  12.133 -1.4313  0.2966 -1.7949
12209TIP3    H258043   1.504   6.054  12.202  1.3327 -0.6365  2.6665
12210TIP3   OH258044   6.758   4.075  12.635  0.0248  0.2407 -0.0824
12210TIP3    H158045   6.683   4.021  12.611  0.8197 -0.4718 -1.0266
12210TIP3    H258046   6.726   4.165  12.631 -0.7264 -0.0521 -0.6759
12211TIP3   OH258047   4.645   4.803  12.837  0.6334  0.1738 -0.3466
12211TIP3    H158048   4.686   4.888  12.855 -0.8527  0.9671 -0.5671
12211TIP3    H258049   4.616   4.772  12.923  3.8796 -1.5966  0.1825
12212TIP3   OH258050   3.393   3.075  13.903  0.1075  0.1112 -0.6087
12212TIP3    H158051   3.348   3.089  13.820  0.8811 -0.5607 -1.1550
12212TIP3    H258052   3.484   3.059  13.878 -0.2585 -3.4486  0.0910
12213TIP3   OH258053   5.270   5.249   3.309 -0.1105  0.0453  0.0685
12213TIP3    H158054   5.245   5.335   3.273  1.5561  0.0996 -0.9827
12213TIP3    H258055   5.329   5.269   3.381 -0.8840 -0.1903  0.7835
12214TIP3   OH258056   1.624   3.281  14.521 -0.5779  0.3079 -0.3922
12214TIP3    H158057   1.719   3.278  14.511 -0.8104  0.6302 -3.2884
12214TIP3    H258058   1.591   3.227  14.449 -2.6033  1.1926 -0.1697
12215TIP3   OH258059   3.608   4.225  17.135 -0.5009  0.0456  0.0946
12215TIP3    H158060   3.598   4.178  17.218 -0.5716 -0.7732 -0.3730
12215TIP3    H258061   3.600   4.317  17.159  0.9854 -0.1006  1.2167
12216TIP3   OH258062   3.868   4.258   1.120 -0.3763 -0.8535 -0.1810
12216TIP3    H158063   3.922   4.214   1.185 -0.0944  1.3450  1.0887
12216TIP3    H258064   3.779   4.253   1.155 -0.3654 -0.5180 -0.1091
12217TIP3   OH258065   5.151   4.040   0.625  0.5432 -0.0057  0.5798
12217TIP3    H158066   5.066   4.012   0.591  0.4982  1.1896 -0.3318
12217TIP3    H258067   5.181   3.967   0.679 -0.6559 -0.7968  0.1858
12218TIP3   OH258068   2.629   3.367  11.914 -0.0489 -0.0290 -0.1956
12218TIP3    H158069   2.583   3.371  11.831 -1.9332 -1.3417  0.7303
12218TIP3    H258070   2.673   3.282  11.914  0.2792  0.1365 -0.0148
12219TIP3   OH258071   2.812   0.980   3.260  0.0148 -0.5728  0.1845
12219TIP3    H158072   2.731   1.004   3.306  0.9622 -0.0846  1.6083
12219TIP3    H258073   2.822   0.886   3.276  0.9175 -0.1949  1.9038
12220TIP3   OH258074   2.787   4.820   0.661 -0.0375 -0.0326  0.0199
12220TIP3    H158075   2.814   4.853   0.575 -2.9170  1.0271 -0.5535
12220TIP3    H258076   2.701   4.861   0.676  0.3094 -0.3947  3.2926
12221TIP3   OH258077   6.578   6.076  16.611  0.0376 -0.1485  0.2789
12221TIP3    H158078   6.522   6.108  16.540  1.0934 -1.7190 -1.3004
12221TIP3    H258079   6.642   6.146  16.624  1.0997 -0.7061 -1.7557
12222TIP3   OH258080   6.587   0.897   5.602 -0.3233  0.5936 -0.7870
12222TIP3    H158081   6.673   0.897   5.559  1.1671  0.0075  2.0492
12222TIP3    H258082   6.581   0.811   5.643 -0.9957  1.6575  1.4125
12223TIP3   OH258083   5.807   6.127  15.527 -0.1434  0.5124  0.1301
12223TIP3    H158084   5.777   6.153  15.440  1.6767  2.4770  0.0335
12223TIP3    H258085   5.751   6.053  15.551 -0.4961 -0.2331 -2.7988
12224TIP3   OH258086   3.884   4.397   4.524  0.2031 -0.1644 -0.6558
12224TIP3    H158087   3.892   4.369   4.433 -0.5428 -2.6953  0.0285
12224TIP3    H258088   3.792   4.383   4.546 -0.5008  3.9500 -0.5688
12225TIP3   OH258089   1.347   4.518  13.036  0.4492 -0.6555 -0.6878
12225TIP3    H158090   1.395   4.440  13.062  1.8439  0.2618 -0.4913
12225TIP3    H258091   1.304   4.494  12.954 -0.4430 -2.1446  0.2074
12226TIP3   OH258092   5.105   5.323  16.609 -0.1112  0.8380  0.4676
12226TIP3    H158093   5.069   5.277  16.685 -1.6970 -1.1370 -1.4022
12226TIP3    H258094   5.049   5.400  16.599 -1.4622 -0.1852 -0.1046
12227TIP3   OH258095   6.187   5.443  15.361  0.6336 -0.0340  0.4259
12227TIP3    H158096   6.272   5.401  15.377 -0.3089 -2.1798 -0.0177
12227TIP3    H258097   6.123   5.385  15.403 -0.6797  1.2546  0.2604
12228TIP3   OH258098   2.529   2.588   3.549  0.3699  0.0705 -0.4887
12228TIP3    H158099   2.537   2.623   3.638 -0.7918 -2.5278  0.6781
12228TIP3    H258100   2.474   2.510   3.559  1.6392 -1.2234 -3.2251
12229TIP3   OH258101   3.078   1.236  15.208 -0.8075 -0.2678 -0.3915
12229TIP3    H158102   3.144   1.172  15.235  0.1634  0.3551 -1.2732
12229TIP3    H258103   3.026   1.190  15.142  0.5256  0.1707 -1.7729
12230TIP3   OH258104   3.923   5.732   2.586 -0.0779  0.0370 -0.2692
12230TIP3    H158105   3.838   5.769   2.606  0.4953  0.6115  1.1400
12230TIP3    H258106   3.968   5.801   2.536 -0.5762 -0.4269 -1.3806
12231TIP3   OH258107   3.854   1.538   2.417  0.0329 -0.0827  0.1069
12231TIP3    H158108   3.834   1.630   2.401 -1.2481 -0.3031  0.4191
12231TIP3    H258109   3.782   1.507   2.473  0.0647 -1.4595 -0.6065
12232TIP3   OH258110   5.011   6.132  10.413  0.1463 -0.1952 -0.3551
12232TIP3    H158111   5.107   6.134  10.416  0.0960  0.0872  1.5934
12232TIP3    H258112   4.989   6.039  10.406  0.5234 -0.4073  1.2146
12233TIP3   OH258113   5.072   1.331  13.102 -0.0130  0.6004  0.3544
12233TIP3    H158114   5.029   1.246  13.111 -1.6601  1.5578  1.6157
12233TIP3    H258115   5.157   1.310  13.062 -0.7909 -1.5183 -0.2628
12234TIP3   OH258116   3.767   4.661  13.273  0.2279 -0.3716 -0.4139
12234TIP3    H158117   3.837   4.609  13.313 -0.3156 -1.1016 -0.4024
12234TIP3    H258118   3.812   4.736  13.234  1.1666 -1.4519 -1.4444
12235TIP3   OH258119   4.809   5.144  16.243 -0.0686  0.0371  0.1225
12235TIP3    H158120   4.722   5.171  16.215 -0.6519 -3.1896 -1.4205
12235TIP3    H258121   4.822   5.189  16.327 -1.5111  3.7159 -1.5104
12236TIP3   OH258122   0.093   2.368  10.786  0.3646 -0.5810  0.7497
12236TIP3    H158123   0.036   2.378  10.710  0.6677  0.8960  0.7047
12236TIP3    H258124   0.034   2.373  10.861  0.7030  4.0032  0.8385
12237TIP3   OH258125   3.357   0.523   0.529  0.3739 -0.6371  0.2012
12237TIP3    H158126   3.445   0.491   0.510  0.1238 -2.1078  1.4636
12237TIP3    H258127   3.347   0.513   0.624 -1.3569 -1.0377  0.0039
12238TIP3   OH258128   6.207   3.582  10.756 -0.5401  0.1320  0.1823
12238TIP3    H158129   6.266   3.612  10.687  0.7077 -2.0019  0.2870
12238TIP3    H258130   6.264   3.557  10.828 -1.5327 -2.2399  0.1738
12239TIP3   OH258131   2.459   3.482   5.711  0.5521 -0.0214  0.6214
12239TIP3    H158132   2.503   3.405   5.747  0.8535 -0.2915 -0.3121
12239TIP3    H258133   2.529   3.546   5.699  0.5834 -0.2221 -0.2597
12240TIP3   OH258134   4.860   0.906  17.019  0.5354  0.2259 -0.5310
12240TIP3    H158135   4.884   0.976  17.080 -3.5910 -1.4503  3.2624
12240TIP3    H258136   4.903   0.828  17.054 -1.6458 -0.6961  0.1509
12241TIP3   OH258137   0.988   1.028  12.768  0.1618 -0.5015 -0.1754
12241TIP3    H158138   0.936   0.962  12.721  0.9401  0.2025 -2.1023
12241TIP3    H258139   1.076   0.991  12.769  0.3586 -0.0257 -0.2081
12242TIP3   OH258140   6.087   2.196   4.189 -0.7040  0.6345  0.1674
12242TIP3    H158141   6.021   2.178   4.122  0.5321  0.4204 -1.0051
12242TIP3    H258142   6.103   2.111   4.230 -0.5494  0.5302 -0.1079
12243TIP3   OH258143   0.436   0.216  11.770  0.3517  0.5837 -0.0772
12243TIP3    H158144   0.356   0.248  11.812  0.4771 -0.7836  1.2310
12243TIP3    H258145   0.405   0.149  11.708  0.3874  0.8950 -0.4363
12244TIP3   OH258146   0.430   0.965  16.941 -0.4851  0.2590  0.2246
12244TIP3    H158147   0.493   1.034  16.959  0.0600 -0.1307 -0.2016
12244TIP3    H258148   0.386   0.992  16.860 -0.2924  0.1150  0.0741
12245TIP3   OH258149   4.760   0.793   4.452  0.3549  0.2263  0.4795
12245TIP3    H158150   4.842   0.813   4.497  0.8752 -2.6609  0.9179
12245TIP3    H258151   4.781   0.719   4.395 -1.5210  0.6400 -0.8174
12246TIP3   OH258152   6.635   6.550  16.890 -0.4876 -0.5081  0.2303
12246TIP3    H158153   6.702   6.605  16.849 -0.7664  0.0552  0.5248
12246TIP3    H258154   6.673   6.524  16.974 -2.2102  3.1071  2.2037
12247TIP3   OH258155   4.049   4.086   3.445  0.2976 -0.4555  0.5047
12247TIP3    H158156   4.009   4.014   3.493 -1.5714 -0.9488 -1.6708
12247TIP3    H258157   3.974   4.131   3.404  1.6652  1.0664 -0.3810
12248TIP3   OH258158   5.521   0.824  12.864 -0.4255 -0.4539 -0.1484
12248TIP3    H158159   5.558   0.901  12.907  0.0112  0.0192 -1.3360
12248TIP3    H258160   5.494   0.767  12.935 -1.1109  0.9684  0.7637
12249TIP3   OH258161   2.443   2.715  15.203 -0.1623 -0.1410 -0.5334
12249TIP3    H158162   2.502   2.670  15.263 -0.5630 -0.0781 -0.0843
12249TIP3    H258163   2.357   2.676  15.220 -0.5622  0.9403  0.0292
12250TIP3   OH258164   2.154   5.472   1.057  0.1514  0.2834 -0.6503
12250TIP3    H158165   2.215   5.407   1.093  0.2138  0.5488 -0.2724
12250TIP3    H258166   2.112   5.511   1.134 -0.2082  0.3822 -0.8939
12251TIP3   OH258167   2.203   4.517  11.362  0.8857  0.5890  0.5365
12251TIP3    H158168   2.184   4.504  11.270  2.5652  0.0929  0.2396
12251TIP3    H258169   2.123   4.490  11.408  0.5950 -0.6592 -0.6798
12252TIP3   OH258170   0.634   2.877   1.642 -0.1635 -0.4864  0.4981
12252TIP3    H158171   0.712   2.895   1.694  0.0692 -0.3242  0.0975
12252TIP3    H258172   0.650   2.791   1.604 -0.2107 -0.4844  0.4731
12253TIP3   OH258173   5.132   4.215  14.396 -0.4843 -0.0378 -0.1063
12253TIP3    H158174   5.125   4.198  14.490 -0.6683 -0.8042 -0.2531
12253TIP3    H258175   5.121   4.129  14.355 -2.5213  0.5647 -0.9263
12254TIP3   OH258176   6.191   5.987   5.464 -0.6085 -0.2380  0.2497
12254TIP3    H158177   6.232   5.955   5.384 -1.1764  2.1648 -1.0420
12254TIP3    H258178   6.222   6.077   5.472 -3.9251  0.9313  0.4128
12255TIP3   OH258179   4.480   3.379   3.105 -0.4726 -0.1600  0.1147
12255TIP3    H158180   4.482   3.372   3.201 -1.5369 -1.6567  0.0593
12255TIP3    H258181   4.438   3.463   3.088 -0.6083 -0.0478  0.9789
12256TIP3   OH258182   3.883   1.281  16.910  0.6824 -0.0111 -0.3027
12256TIP3    H158183   3.875   1.370  16.943 -0.5444 -0.4541  0.6593
12256TIP3    H258184   3.817   1.275  16.841  1.6986  0.2308 -1.3026
12257TIP3   OH258185   2.637   4.468   1.911  1.1237  0.8215 -0.3162
12257TIP3    H158186   2.593   4.388   1.884  0.7356  0.6942  0.6437
12257TIP3    H258187   2.690   4.494   1.836  0.7621  0.0120 -0.8550
12258TIP3   OH258188   4.471   0.961   2.691 -0.0840 -0.2067 -0.4543
12258TIP3    H158189   4.539   1.006   2.742  0.6467 -1.1547 -0.5702
12258TIP3    H258190   4.454   1.019   2.617  0.6453  0.0187 -0.4502
12259TIP3   OH258191   6.322   5.054  10.773  0.0550  0.1824 -0.0108
12259TIP3    H158192   6.269   4.975  10.782 -1.3856  1.1263 -0.0711
12259TIP3    H258193   6.387   5.032  10.707  0.6370 -1.4657  1.0823
12260TIP3   OH258194   3.469   0.209   5.543 -0.1838  0.1760  0.2708
12260TIP3    H158195   3.384   0.166   5.538  0.6077 -1.0768 -4.9673
12260TIP3    H258196   3.451   0.301   5.524 -0.4064 -0.0780 -0.7832
12261TIP3   OH258197   5.682   1.367  16.174  0.0842 -0.8542  0.3116
12261TIP3    H158198   5.770   1.399  16.152 -0.3870  0.0212 -0.3570
12261TIP3    H258199   5.670   1.392  16.266 -0.0524  0.3965 -0.0374
12262TIP3   OH258200   6.451   6.112  16.360 -0.2598  0.1992 -0.2610
12262TIP3    H158201   6.526   6.147  16.314 -0.4688 -0.2918 -0.9834
12262TIP3    H258202   6.383   6.179  16.350  0.1481  0.7567  0.6101
12263TIP3   OH258203   4.704   1.188  15.060  0.3879  0.5337  0.6036
12263TIP3    H158204   4.632   1.207  15.121 -0.0661  0.0387  0.2257
12263TIP3    H258205   4.690   1.097  15.034  1.4477  0.2718  0.9200
12264TIP3   OH258206   6.772   3.322   0.030 -0.0676  0.0344 -0.5808
12264TIP3    H158207   6.848   3.360   0.074  0.1317 -0.8341 -0.1704
12264TIP3    H258208   6.808   3.268  -0.040 -0.3970  1.7043 -2.0711
12265TIP3   OH258209   4.411   1.843  14.656  0.0940  0.1127 -0.2098
12265TIP3    H158210   4.494   1.887  14.634 -0.1945  1.0900  0.6004
12265TIP3    H258211   4.363   1.908  14.708 -0.5298 -1.0268  0.6427
12266TIP3   OH258212   1.456   6.753   3.186 -0.0337 -0.4605  0.0607
12266TIP3    H158213   1.509   6.676   3.163 -1.6683 -1.1851 -1.3291
12266TIP3    H258214   1.390   6.720   3.246  2.2237  0.8273  3.4415
12267TIP3   OH258215   6.119   0.619  16.675  0.0646  0.5179 -0.5452
12267TIP3    H158216   6.046   0.577  16.720 -0.1917  0.7183 -0.7766
12267TIP3    H258217   6.081   0.695  16.632 -0.3239 -1.4170 -3.7658
12268TIP3   OH258218   6.298   2.192  13.877 -0.1403  0.3364  0.1158
12268TIP3    H158219   6.382   2.237  13.881  0.4240 -0.7162  0.3501
12268TIP3    H258220   6.289   2.149  13.962 -0.9396  0.4724  0.1116
12269TIP3   OH258221   4.469   0.453  14.794 -0.2706 -0.1273  0.5300
12269TIP3    H158222   4.489   0.362  14.813  1.8380 -0.2198 -1.8132
12269TIP3    H258223   4.509   0.502  14.866 -2.1472 -1.0803  2.2457
12270TIP3   OH258224   6.204   5.213   2.375  0.1233  0.1614  0.0583
12270TIP3    H158225   6.211   5.125   2.414  3.0467  0.1927 -0.2834
12270TIP3    H258226   6.110   5.229   2.370 -0.4733 -2.8032  0.4928
12271TIP3   OH258227   5.395   3.561   1.029 -0.6636  0.2635 -0.0937
12271TIP3    H158228   5.326   3.554   1.094 -1.1758  0.8945 -0.5690
12271TIP3    H258229   5.355   3.528   0.948 -0.3916  0.5761 -0.3562
12272TIP3   OH258230   2.340   6.037   2.385  0.4079  0.0015  0.4091
12272TIP3    H158231   2.282   6.025   2.459  0.2413  0.4797  0.3588
12272TIP3    H258232   2.348   6.132   2.376  1.2674 -0.0649  0.4716
12273TIP3   OH258233   1.186   3.243  14.893 -0.6169  0.8392  0.3327
12273TIP3    H158234   1.263   3.186  14.889 -1.8142 -0.9496  2.0169
12273TIP3    H258235   1.196   3.302  14.818  1.9905  0.1367  0.0789
12274TIP3   OH258236   4.223   1.095   6.305  0.1780  0.3673  0.3035
12274TIP3    H158237   4.272   1.109   6.386 -1.1672 -1.5924  1.4695
12274TIP3    H258238   4.161   1.168   6.302  1.4769  1.5030  0.0410
12275TIP3   OH258239   0.501   3.589   1.448 -0.0638  0.0076 -0.4024
12275TIP3    H158240   0.513   3.671   1.496  0.3526  0.5682 -1.4613
12275TIP3    H258241   0.587   3.548   1.448 -0.5006 -0.9553  1.0493
12276TIP3   OH258242   4.585   3.576  14.068  0.1211  0.9257  0.0086
12276TIP3    H158243   4.653   3.601  14.130  2.1198 -2.0287 -0.9157
12276TIP3    H258244   4.628   3.575  13.983 -0.6804 -2.1542 -0.4452
12277TIP3   OH258245   3.944   6.071  12.236 -0.2194  0.1415 -0.3465
12277TIP3    H158246   3.985   6.148  12.276  0.1906  0.3789 -1.2129
12277TIP3    H258247   3.851   6.081  12.253 -0.2865  1.3946 -1.3985
12278TIP3   OH258248   2.976   4.118   4.456 -0.5121 -0.0740 -0.0341
12278TIP3    H158249   3.056   4.076   4.490 -1.5077 -0.0709  2.4572
12278TIP3    H258250   2.971   4.090   4.365  4.4521  3.1033 -1.5171
12279TIP3   OH258251   5.090   1.823   1.428  0.9180 -0.4497 -0.4798
12279TIP3    H158252   5.129   1.911   1.423  1.2987 -0.4633  1.6195
12279TIP3    H258253   5.053   1.808   1.342  1.1311  1.6625 -0.9615
12280TIP3   OH258254   0.646   5.709   3.400  0.1223 -0.0816  0.2827
12280TIP3    H158255   0.658   5.802   3.418 -0.0607 -0.0978  0.4955
12280TIP3    H258256   0.552   5.695   3.412  0.0200 -0.1208 -0.5509
12281TIP3   OH258257   0.246   4.297   3.886  0.5610  0.1438  0.1244
12281TIP3    H158258   0.308   4.369   3.871  0.1150  0.6582  0.7714
12281TIP3    H258259   0.170   4.319   3.832  0.1227  0.5394  0.8949
12282TIP3   OH258260   0.119   3.261   4.643  0.0509  0.9114  0.0340
12282TIP3    H158261   0.128   3.332   4.706 -1.3593 -1.6901  3.3250
12282TIP3    H258262   0.188   3.198   4.666 -2.4651 -1.5539  1.1505
12283TIP3   OH258263   6.037   2.944   2.823 -0.5019  0.7167 -0.1670
12283TIP3    H158264   5.987   2.891   2.762 -0.2767  0.2237  0.0751
12283TIP3    H258265   6.088   3.003   2.768 -0.4374  0.3988 -0.4490
12284TIP3   OH258266   2.994   1.642   2.740 -0.6600  0.0730  0.2549
12284TIP3    H158267   2.923   1.691   2.698 -0.1792 -0.0789 -0.7669
12284TIP3    H258268   3.060   1.709   2.760 -0.3656 -0.0307 -0.3630
12285TIP3   OH258269   3.839   0.692  16.883 -0.5450 -0.1310  0.6305
12285TIP3    H158270   3.919   0.722  16.926 -1.5439  1.1679  1.6001
12285TIP3    H258271   3.840   0.597  16.896  0.4900 -0.0458  1.2446
12286TIP3   OH258272   4.480   5.578   5.258 -0.1680 -0.1183  0.4515
12286TIP3    H158273   4.433   5.499   5.230 -1.6692  0.7775  0.4047
12286TIP3    H258274   4.430   5.650   5.221  2.2478  0.8307 -1.0928
12287TIP3   OH258275   0.659   1.140  15.823  0.0346  0.3845 -0.2354
12287TIP3    H158276   0.586   1.085  15.853  0.0801 -0.2824 -1.2921
12287TIP3    H258277   0.644   1.224  15.865 -1.1829  0.1626 -0.1858
12288TIP3   OH258278   3.968   2.519  13.912  0.0467 -0.2929  0.4594
12288TIP3    H158279   3.895   2.508  13.973 -1.8051 -0.8787 -1.7933
12288TIP3    H258280   3.965   2.610  13.885 -0.7403 -0.6539 -0.7027
12289TIP3   OH258281   3.940   3.598  12.481  0.0537  0.3648  0.7145
12289TIP3    H158282   3.958   3.523  12.537  1.7056 -0.0447 -0.3073
12289TIP3    H258283   3.847   3.592  12.461 -0.0955 -0.6793  1.7002
12290TIP3   OH258284   6.636   6.402   5.787  0.1074 -0.7110 -0.1831
12290TIP3    H158285   6.690   6.325   5.803  0.4693 -1.0417 -2.6660
12290TIP3    H258286   6.548   6.376   5.814  0.4706 -1.5449  0.2120
12291TIP3   OH258287   1.962   3.583  13.434  0.0974  0.2054 -0.2341
12291TIP3    H158288   1.990   3.609  13.346  0.0670  1.4442  0.1210
12291TIP3    H258289   2.001   3.496  13.446  0.0338 -0.0091 -1.5004
12292TIP3   OH258290   6.545   4.561   2.854  0.6491  0.2292 -0.4210
12292TIP3    H158291   6.572   4.646   2.888 -0.5820  0.3479  0.2861
12292TIP3    H258292   6.486   4.583   2.782  0.4697 -0.0284 -0.3501
12293TIP3   OH258293   5.132   2.810  16.139  0.0245 -0.4604  0.6224
12293TIP3    H158294   5.148   2.798  16.046  0.8038 -0.5340  0.7690
12293TIP3    H258295   5.164   2.730  16.180  0.3683 -0.1143  1.0315
12294TIP3   OH258296   2.431   3.098  11.890  0.1576  0.2591  0.3755
12294TIP3    H158297   2.524   3.088  11.868  0.1521  3.1885 -1.3066
12294TIP3    H258298   2.430   3.107  11.985  1.3809 -1.6484  0.5981
12295TIP3   OH258299   5.136   0.315  13.087  0.2276  0.2497 -0.2476
12295TIP3    H158300   5.177   0.254  13.026 -1.3104 -0.9100 -0.1628
12295TIP3    H258301   5.066   0.356  13.035 -0.5196 -0.0985  0.4833
12296TIP3   OH258302   3.349   5.349   4.786 -0.2335  0.4877 -0.1322
12296TIP3    H158303   3.359   5.442   4.804  0.2929  0.4296 -0.1173
12296TIP3    H258304   3.255   5.333   4.794 -0.4937  1.2898 -1.5107
12297TIP3   OH258305   2.934   5.814  13.035 -0.6438  0.1440  0.2197
12297TIP3    H158306   2.875   5.875  13.080 -1.0399  0.4774 -0.7531
12297TIP3    H258307   3.012   5.811  13.092 -0.9746  0.8761  0.7277
12298TIP3   OH258308   4.373   5.085  16.517 -0.0144 -0.4080 -0.2754
12298TIP3    H158309   4.396   4.993  16.508 -1.8681 -0.8321 -0.8462
12298TIP3    H258310   4.277   5.086  16.514 -0.0554  1.4031  0.9269
12299TIP3   OH258311   0.931   0.251   0.559 -0.9790 -0.0827 -0.6788
12299TIP3    H158312   0.843   0.275   0.588 -1.0085 -0.2704 -0.6130
12299TIP3    H258313   0.926   0.250   0.464 -1.6640 -2.3932 -0.6482
12300TIP3   OH258314   6.169   2.649   2.767  0.6848  0.1271 -0.4632
12300TIP3    H158315   6.106   2.644   2.840 -0.5072  0.6726 -1.4309
12300TIP3    H258316   6.242   2.701   2.802  0.3582 -0.0581  0.5115
12301TIP3   OH258317   3.217   5.654   2.757 -0.0629 -0.2375  0.2611
12301TIP3    H158318   3.298   5.703   2.768 -0.6038  0.7511 -0.1193
12301TIP3    H258319   3.175   5.658   2.843 -0.2253  0.1703  0.1608
12302TIP3   OH258320   2.986   1.893   0.164 -0.0907 -0.1464  0.8182
12302TIP3    H158321   2.906   1.897   0.113 -0.2960  0.8082  1.2157
12302TIP3    H258322   2.957   1.891   0.255  0.3494  0.7035  0.9810
12303TIP3   OH258323   2.019   4.989   4.663  0.3396  0.2167  0.0709
12303TIP3    H158324   2.016   5.031   4.577  0.0908 -0.3732 -0.2142
12303TIP3    H258325   1.928   4.963   4.680  0.5701 -0.6100  0.0412
12304TIP3   OH258326   3.068   6.393   2.567 -0.2765  0.1962 -0.4265
12304TIP3    H158327   3.041   6.395   2.658 -0.6680 -0.7993 -0.5140
12304TIP3    H258328   3.152   6.347   2.568 -0.5487 -0.3048 -0.6328
12305TIP3   OH258329   5.364   0.185  13.479  0.5658 -0.2343  0.4247
12305TIP3    H158330   5.295   0.134  13.523 -0.6015 -0.3290 -1.4548
12305TIP3    H258331   5.445   0.138  13.500  0.2537  0.5243  3.6092
12306TIP3   OH258332   3.562   6.380   4.854  0.1869 -0.0134  0.4163
12306TIP3    H158333   3.513   6.381   4.936 -0.0677 -1.0166  0.2855
12306TIP3    H258334   3.516   6.317   4.799  0.9334 -0.0824 -0.1409
12307TIP3   OH258335   4.478   4.750  13.921  0.0742 -0.1775  0.0379
12307TIP3    H158336   4.519   4.823  13.874  0.0773 -0.5786 -0.5813
12307TIP3    H258337   4.498   4.767  14.013  0.8854  0.1071 -0.1873
12308TIP3   OH258338   0.289   5.344  13.744 -0.2304  0.3112  0.5971
12308TIP3    H158339   0.300   5.395  13.664 -0.9598  0.1076  0.3636
12308TIP3    H258340   0.298   5.253  13.717  0.9596  0.2945  0.9985
12309TIP3   OH258341   5.000   5.048   0.161  0.5620  0.0195  0.0208
12309TIP3    H158342   4.919   5.001   0.140  0.3564  0.7762 -0.9272
12309TIP3    H258343   4.979   5.099   0.239  0.4811 -0.6593  0.4552
12310TIP3   OH258344   2.460   3.666  11.845 -0.3914  0.8150  0.1813
12310TIP3    H158345   2.438   3.574  11.860  0.0679  0.6639 -0.0732
12310TIP3    H258346   2.506   3.666  11.761 -1.0506  1.3773 -0.1776
12311TIP3   OH258347   4.247   3.172  13.334 -0.6417  0.2333  0.3597
12311TIP3    H158348   4.252   3.079  13.355 -0.2975  0.4077  1.0742
12311TIP3    H258349   4.180   3.178  13.266 -0.5450 -0.5546  0.1942
12312TIP3   OH258350   6.694   4.828   0.954 -0.1371 -0.3728 -0.0791
12312TIP3    H158351   6.781   4.791   0.936  0.2372  0.8393 -0.8789
12312TIP3    H258352   6.684   4.897   0.888 -1.4462 -0.0859  0.4124
12313TIP3   OH258353   1.038   6.555   0.808  0.1875 -0.2165 -0.3339
12313TIP3    H158354   1.017   6.646   0.788  0.2246  0.1294  1.1236
12313TIP3    H258355   1.068   6.557   0.899  0.9641 -1.5640 -0.5531
12314TIP3   OH258356   4.179   3.611   3.597  0.5807 -0.2624 -0.1364
12314TIP3    H158357   4.136   3.619   3.682  1.1494  1.4064  0.0031
12314TIP3    H258358   4.263   3.655   3.608  0.2782  0.7855 -1.8226
12315TIP3   OH258359   4.537   5.671   2.749  0.4179  0.4672 -0.8025
12315TIP3    H158360   4.538   5.763   2.777  0.2619  1.0446 -2.6449
12315TIP3    H258361   4.455   5.636   2.786 -0.9102  1.8180 -2.3835
12316TIP3   OH258362   6.579   3.129   1.291  0.0578 -0.5414  0.1152
12316TIP3    H158363   6.555   3.039   1.310 -0.8282 -0.3723 -0.1876
12316TIP3    H258364   6.564   3.176   1.373  1.1932 -0.7924  0.4815
12317TIP3   OH258365   0.617   5.538  11.746  0.0511 -0.0113 -0.2873
12317TIP3    H158366   0.558   5.465  11.763 -0.9531  1.0792  1.0128
12317TIP3    H258367   0.596   5.566  11.656  1.0908 -1.8785 -1.1394
12318TIP3   OH258368   4.732   1.009   3.886  0.5681  0.0528  0.1589
12318TIP3    H158369   4.718   0.982   3.977  0.6790 -0.7319 -0.0519
12318TIP3    H258370   4.825   0.992   3.870  0.0373 -2.1164 -0.8385
12319TIP3   OH258371   6.633   2.720   4.940  0.0899 -0.7884  0.3510
12319TIP3    H158372   6.588   2.717   4.856  2.3351 -2.4965 -0.8382
12319TIP3    H258373   6.655   2.812   4.951 -1.3831 -0.3393 -0.2736
12320TIP3   OH258374   3.510   3.942   1.272 -0.5826 -0.3160  0.5801
12320TIP3    H158375   3.543   4.021   1.229  0.4349 -0.7781  0.4839
12320TIP3    H258376   3.423   3.966   1.302 -0.5702  0.6152 -0.0843
12321TIP3   OH258377   2.161   5.967   5.850 -0.0429 -0.0538 -0.3203
12321TIP3    H158378   2.066   5.975   5.842  0.0381  0.8435 -0.4676
12321TIP3    H258379   2.195   6.046   5.807  0.8009 -0.8648 -1.1766
12322TIP3   OH258380   5.394   2.809   2.129 -0.1396 -0.5816  0.6631
12322TIP3    H158381   5.455   2.882   2.142 -0.6773 -0.2070  1.1054
12322TIP3    H258382   5.449   2.737   2.098  0.6634 -0.5234  1.9393
12323TIP3   OH258383   2.867   4.299  15.202  0.2665 -0.1374  0.4951
12323TIP3    H158384   2.879   4.389  15.233 -3.2793  0.3968  0.5203
12323TIP3    H258385   2.870   4.307  15.107  0.8677 -0.1641  0.5070
12324TIP3   OH258386   5.669   6.253   2.494  1.0002  0.0184  0.2432
12324TIP3    H158387   5.724   6.180   2.465  0.7147 -0.0154 -0.2119
12324TIP3    H258388   5.694   6.266   2.586  0.8200 -0.8780  0.4282
12325TIP3   OH258389   3.226   3.106  16.890 -0.1127 -0.6543  0.0144
12325TIP3    H158390   3.204   3.070  16.804  0.3023 -1.9761  0.4545
12325TIP3    H258391   3.159   3.072  16.949 -0.7538  0.7432  0.1210
12326TIP3   OH258392   5.202   3.662   4.675 -0.2360 -0.2242 -0.3024
12326TIP3    H158393   5.143   3.619   4.737 -0.7030 -0.4298 -0.8853
12326TIP3    H258394   5.284   3.672   4.723  0.2081 -2.6750 -0.4799
12327TIP3   OH258395   2.601   3.130   2.885  0.1244 -0.6083 -0.3688
12327TIP3    H158396   2.527   3.119   2.945  2.3946 -2.0561  2.2985
12327TIP3    H258397   2.637   3.216   2.905 -0.3715 -0.2136 -1.1478
12328TIP3   OH258398   3.786   5.246  15.156  0.2278  0.2235 -0.7133
12328TIP3    H158399   3.743   5.215  15.235  1.0708 -1.6028 -0.9573
12328TIP3    H258400   3.854   5.306  15.187  0.5589 -0.4913 -0.0556
12329TIP3   OH258401   0.585   5.253  14.397 -0.2694 -0.2363  0.2885
12329TIP3    H158402   0.678   5.230  14.388 -0.1259  0.2497  0.5517
12329TIP3    H258403   0.539   5.170  14.382  0.2612 -0.7215  1.3240
12330TIP3   OH258404   5.929   1.898   6.083  0.1394  0.0657 -0.2042
12330TIP3    H158405   5.950   1.852   6.002  2.0032 -0.8376  0.7802
12330TIP3    H258406   5.833   1.896   6.088  0.1134 -1.6529 -1.3367
12331TIP3   OH258407   3.125   4.297  11.817 -0.0542 -1.1353 -0.6221
12331TIP3    H158408   3.156   4.250  11.740  3.5547 -1.5091  0.9641
12331TIP3    H258409   3.184   4.270  11.887 -0.4645  2.5530  1.2638
12332TIP3   OH258410   5.519   5.474  16.250 -0.1859  0.0166 -0.5807
12332TIP3    H158411   5.472   5.490  16.168 -0.9992 -2.6466 -0.6878
12332TIP3    H258412   5.453   5.435  16.308  0.8477  0.1445  0.7140
12333TIP3   OH258413   3.400   0.545  16.858  0.3420  0.2092  0.0617
12333TIP3    H158414   3.405   0.600  16.937 -0.2184 -0.7420  0.7724
12333TIP3    H258415   3.432   0.460  16.886 -3.8125 -1.3680  0.4392
12334TIP3   OH258416   4.917   2.717   5.688  0.7754 -0.2820 -0.2309
12334TIP3    H158417   4.907   2.810   5.707  1.4161 -0.2995  0.2224
12334TIP3    H258418   4.838   2.693   5.640  0.3104  0.3433  0.2261
12335TIP3   OH258419   1.462   0.423  12.316  0.0951  0.1511 -0.0997
12335TIP3    H158420   1.380   0.440  12.362 -0.6179 -1.5013 -0.7097
12335TIP3    H258421   1.468   0.492  12.250 -1.4801 -0.4827 -0.9308
12336TIP3   OH258422   4.952   0.924   0.843  0.4353  0.1840  0.2847
12336TIP3    H158423   5.021   0.989   0.858  0.2937 -0.1139  2.4256
12336TIP3    H258424   4.988   0.842   0.877 -0.0591 -0.4788 -0.7785
12337TIP3   OH258425   6.102   5.093  12.528 -0.4181  0.1928 -0.2764
12337TIP3    H158426   6.079   5.185  12.540  3.1379  1.1406  0.0778
12337TIP3    H258427   6.124   5.062  12.616  3.7650  0.6878 -1.0040
12338TIP3   OH258428   5.407   5.610   0.083 -0.0145 -0.1683  0.5062
12338TIP3    H158429   5.381   5.571  -0.001 -1.1368  0.0062  0.7653
12338TIP3    H258430   5.328   5.606   0.137  0.3235  0.9836  1.0960
12339TIP3   OH258431   3.272   5.180   5.035 -0.1656  0.0535  0.0732
12339TIP3    H158432   3.219   5.232   4.975 -1.4843 -2.4243 -0.9848
12339TIP3    H258433   3.361   5.213   5.023 -0.3697 -0.4694 -3.4011
12340TIP3   OH258434   1.248   4.157   6.446 -0.0677  0.5919  0.1379
12340TIP3    H158435   1.255   4.062   6.455 -0.4915  0.6895  1.7799
12340TIP3    H258436   1.311   4.180   6.378  1.4720 -0.6544  1.1034
12341TIP3   OH258437   0.601   3.816   3.471 -0.6206 -0.4016 -0.4752
12341TIP3    H158438   0.522   3.762   3.476 -0.8540  0.0978  1.9559
12341TIP3    H258439   0.632   3.821   3.562  0.8670  1.3823 -1.0564
12342TIP3   OH258440   3.247   1.995  16.489  0.2615 -0.1208  0.6847
12342TIP3    H158441   3.324   2.029  16.443  0.2776 -1.8188 -0.5684
12342TIP3    H258442   3.281   1.928  16.548 -0.3687 -1.7643 -0.7744
12343TIP3   OH258443   5.677   0.172  15.453  0.2428 -0.3174 -0.8361
12343TIP3    H158444   5.759   0.220  15.463 -0.6984  0.8541  1.8447
12343TIP3    H258445   5.692   0.113  15.379  3.2752  0.3043 -0.7772
12344TIP3   OH258446   5.103   0.171  14.474  0.5487  0.3788 -0.4202
12344TIP3    H158447   5.168   0.137  14.413  0.2934 -0.5102 -0.2060
12344TIP3    H258448   5.086   0.260  14.445  1.8759  0.6205 -0.4675
12345TIP3   OH258449   2.475   1.507  12.485 -0.2964 -0.3962  0.3696
12345TIP3    H158450   2.438   1.455  12.556  0.2910  0.3085  1.1915
12345TIP3    H258451   2.545   1.452  12.450 -0.0023 -0.3714  0.9135
12346TIP3   OH258452   1.405   0.054   5.804  0.2176 -0.2094  0.1813
12346TIP3    H158453   1.471   0.063   5.873 -2.3283  0.7882  2.6498
12346TIP3    H258454   1.331   0.013   5.848 -1.9451  1.5922 -1.6339
12347TIP3   OH258455   5.420   4.460  12.209  0.2545  0.4905  0.5303
12347TIP3    H158456   5.383   4.374  12.189  0.2017  0.6810 -0.1699
12347TIP3    H258457   5.472   4.445  12.288 -1.4939  0.2669  1.6782
12348TIP3   OH258458   4.802   2.297   4.574 -0.9371  0.3666 -0.1113
12348TIP3    H158459   4.777   2.313   4.483  0.1460  2.5077 -0.0835
12348TIP3    H258460   4.766   2.372   4.622 -1.1223 -0.5236  1.1523
12349TIP3   OH258461   4.650   6.461   5.236  0.0445 -0.0754  0.0015
12349TIP3    H158462   4.643   6.409   5.157  1.6560  0.9694 -0.8790
12349TIP3    H258463   4.591   6.535   5.223  0.8804  0.5041 -0.5928
12350TIP3   OH258464   4.621   2.090  15.530 -0.0538 -0.1016 -0.2319
12350TIP3    H158465   4.708   2.125  15.513 -0.2708 -0.3883 -2.0278
12350TIP3    H258466   4.635   1.998  15.553  0.2718  0.3794  1.5807
12351TIP3   OH258467   0.735   0.028  16.679 -0.1104 -0.0117 -0.0891
12351TIP3    H158468   0.680  -0.009  16.611  0.4104 -0.3028 -0.3571
12351TIP3    H258469   0.815   0.056  16.633 -0.0404  0.4188  0.2882
12352TIP3   OH258470   0.185   3.826  11.781 -0.2628  0.1643  0.1539
12352TIP3    H158471   0.095   3.798  11.793 -0.5719  1.6506  1.4242
12352TIP3    H258472   0.228   3.806  11.865  0.0777  1.3755  0.2684
12353TIP3   OH258473   1.620   3.282  14.815 -0.5240  0.4579 -0.0781
12353TIP3    H158474   1.629   3.287  14.720  1.5325 -0.7401  0.0224
12353TIP3    H258475   1.688   3.221  14.843 -0.2392  1.7854  2.3061
12354TIP3   OH258476   1.298   5.540   6.933  0.7054 -0.1987 -0.5519
12354TIP3    H158477   1.354   5.548   6.855 -0.1361  0.4698 -1.0890
12354TIP3    H258478   1.242   5.465   6.914 -0.0955  0.4944 -0.9771
12355TIP3   OH258479   5.216   3.445   4.934 -0.3595  0.1628  0.0753
12355TIP3    H158480   5.204   3.478   5.023  1.0674 -0.8104  0.6590
12355TIP3    H258481   5.130   3.453   4.893 -0.4555  2.9193  0.7526
12356TIP3   OH258482   5.612   2.529   5.107  0.0638  0.1714 -0.3874
12356TIP3    H158483   5.640   2.546   5.197  0.1698 -0.6180 -0.2651
12356TIP3    H258484   5.527   2.572   5.100  0.0683  0.2651  0.0866
12357TIP3   OH258485   0.475   0.490  15.972  0.0506  0.5954 -0.4226
12357TIP3    H158486   0.534   0.462  15.902  1.4574 -0.5411  1.1663
12357TIP3    H258487   0.468   0.414  16.030  0.9444  2.2842  1.9933
12358TIP3   OH258488   1.615   3.285  14.224  0.1744  0.1885 -0.3919
12358TIP3    H158489   1.689   3.228  14.203  0.5920  1.6820 -3.2695
12358TIP3    H258490   1.651   3.374  14.214 -0.6259  1.0064  3.3585
12359TIP3   OH258491   3.180   4.749   0.208 -0.5519  0.7098  0.3932
12359TIP3    H158492   3.094   4.781   0.182  0.1055  1.5359 -0.7718
12359TIP3    H258493   3.164   4.702   0.290 -2.2212  0.2158 -0.2083
12360TIP3   OH258494   4.585   0.916   0.499  0.4553 -0.0788 -0.0179
12360TIP3    H158495   4.659   0.902   0.558 -0.5186  0.8512  1.4644
12360TIP3    H258496   4.539   0.832   0.499  0.4384 -0.0752  0.5994
12361TIP3   OH258497   0.583   3.711  14.739 -0.5534  0.0941 -0.4125
12361TIP3    H158498   0.520   3.776  14.770 -0.8478 -1.2410  1.8131
12361TIP3    H258499   0.668   3.756  14.744 -0.9859  0.9648 -0.7932
12362TIP3   OH258500   0.764   5.062   5.667  0.1249  0.3597 -0.3056
12362TIP3    H158501   0.841   5.119   5.674 -0.1785  0.7512 -0.1624
12362TIP3    H258502   0.759   5.018   5.752 -0.1703  0.7901 -0.1035
12363TIP3   OH258503   5.057   5.613   6.331  0.1311 -0.5864  0.2781
12363TIP3    H158504   5.146   5.642   6.353  0.3980 -0.6772 -0.6622
12363TIP3    H258505   5.006   5.694   6.330  0.3662 -0.4407  0.0383
12364TIP3   OH258506   3.278   5.623   1.646 -0.3149  0.3533  0.2093
12364TIP3    H158507   3.292   5.708   1.688 -0.0756  0.4498 -0.0597
12364TIP3    H258508   3.295   5.559   1.715  0.1994  0.5065  0.2321
12365TIP3   OH258509   3.782   0.551   6.321 -0.1276 -0.7983  0.8895
12365TIP3    H158510   3.831   0.633   6.328 -1.1888 -0.1183  0.4368
12365TIP3    H258511   3.723   0.552   6.396  0.0163 -1.2590  1.0101
12366TIP3   OH258512   4.013   0.465   4.768 -0.2395 -0.2043 -0.9469
12366TIP3    H158513   3.951   0.397   4.795 -0.4448  1.2899  2.5722
12366TIP3    H258514   3.965   0.518   4.705 -1.4172 -0.9888 -0.7282
12367TIP3   OH258515   2.172   1.382   1.827  0.0979  0.4885  0.3184
12367TIP3    H158516   2.231   1.313   1.798  1.1966  1.4623  0.2014
12367TIP3    H258517   2.204   1.406   1.914 -1.3526 -0.3548  1.1004
12368TIP3   OH258518   3.128   3.793  16.062 -0.3294  0.1862  0.4549
12368TIP3    H158519   3.204   3.851  16.074 -0.1646  0.0242  0.1966
12368TIP3    H258520   3.155   3.732  15.993 -1.3101  1.1969 -0.8697
12369TIP3   OH258521   4.802   0.537   0.952  0.7014 -0.1541  0.0971
12369TIP3    H158522   4.874   0.595   0.927  1.0238  0.3717  2.1879
12369TIP3    H258523   4.833   0.492   1.030 -1.6546  0.9935  1.7769
12370TIP3   OH258524   0.405   0.573   2.200  0.6705  0.4137  0.2336
12370TIP3    H158525   0.432   0.565   2.291  0.9391 -0.1516  0.1097
12370TIP3    H258526   0.336   0.507   2.189  3.2929 -2.2870 -0.9473
12371TIP3   OH258527   5.266   1.681   6.563 -0.1921  0.1336  0.6067
12371TIP3    H158528   5.218   1.731   6.630 -0.1773 -0.5048  1.0985
12371TIP3    H258529   5.280   1.596   6.603  1.5155  0.3661  0.5253
12372TIP3   OH258530   4.360   6.185   6.706 -0.4718 -0.1341 -0.7301
12372TIP3    H158531   4.437   6.133   6.683 -1.8691 -1.8598 -1.5814
12372TIP3    H258532   4.294   6.161   6.641 -0.7773  3.6053 -1.9038
12373TIP3   OH258533   6.681   1.778   1.118  0.6294 -0.1845  0.0877
12373TIP3    H158534   6.643   1.866   1.112  0.3989 -0.3586 -1.0936
12373TIP3    H258535   6.605   1.719   1.120  0.7360 -0.3017  2.3775
12374TIP3   OH258536   4.974   3.014  13.059 -0.0055 -0.2591  0.2683
12374TIP3    H158537   5.049   3.030  13.001 -1.2004 -1.1105 -1.5799
12374TIP3    H258538   4.897   3.031  13.004 -1.1908 -1.9915  1.3222
12375TIP3   OH258539   3.166   4.390  16.095  0.4704  0.5195 -0.4897
12375TIP3    H158540   3.205   4.440  16.023 -1.0837  2.1701 -0.2121
12375TIP3    H258541   3.082   4.362  16.061  0.2793  0.2120  0.2447
12376TIP3   OH258542   3.539   4.609   5.492  0.1851  0.3051  0.7427
12376TIP3    H158543   3.517   4.699   5.516  0.3293  0.6170 -0.2409
12376TIP3    H258544   3.477   4.587   5.422 -0.1750 -0.5395  1.3250
12377TIP3   OH258545   5.136   0.059  11.474  0.0262  0.4172 -0.2690
12377TIP3    H158546   5.084   0.137  11.453 -0.4769  0.8615  2.5069
12377TIP3    H258547   5.078  -0.015  11.455 -0.7894  0.8416  0.5290
12378TIP3   OH258548   0.493   2.855  12.165  0.4164 -0.3765  0.0596
12378TIP3    H158549   0.409   2.892  12.191  0.7314  2.6613 -2.8683
12378TIP3    H258550   0.555   2.884  12.232 -0.1346  0.8908  0.0253
12379TIP3   OH258551   1.833   4.149  13.082 -0.1751 -0.0335 -0.4126
12379TIP3    H158552   1.810   4.106  13.164  0.6897  0.1039 -0.0975
12379TIP3    H258553   1.810   4.241  13.095 -0.9134 -0.1798 -0.6621
12380TIP3   OH258554   4.817   2.597   5.080 -0.0835  0.0971 -0.5587
12380TIP3    H158555   4.722   2.586   5.076  0.0339 -0.7431 -0.9676
12380TIP3    H258556   4.852   2.509   5.073  0.7476  0.4548 -0.9249
12381TIP3   OH258557   3.688   2.000  13.675 -0.1853  0.1502 -0.0866
12381TIP3    H158558   3.600   2.036  13.685 -0.1698  0.1877 -0.0832
12381TIP3    H258559   3.680   1.909  13.702 -0.3021  0.0601 -0.4214
12382TIP3   OH258560   1.891   1.258  17.070 -0.3726  0.2116 -0.0153
12382TIP3    H158561   1.949   1.326  17.035 -1.6001  2.0157  1.4099
12382TIP3    H258562   1.947   1.207  17.128  0.6620 -0.3058 -1.4075
12383TIP3   OH258563   4.119   3.032  15.966 -0.0107 -0.5235 -0.6685
12383TIP3    H158564   4.181   3.099  15.993 -1.6952  1.8143 -2.3753
12383TIP3    H258565   4.132   2.960  16.027  2.4704  1.0100  0.6462
12384TIP3   OH258566   3.241   2.039   4.332 -0.8090  0.7221 -0.2530
12384TIP3    H158567   3.249   1.998   4.418  0.0024  0.9552 -0.2093
12384TIP3    H258568   3.258   2.132   4.348 -2.0039  0.9762 -0.4538
12385TIP3   OH258569   4.921   2.890  14.231 -0.4574  0.4566 -0.0129
12385TIP3    H158570   4.892   2.884  14.140  1.5617  0.3136 -0.6718
12385TIP3    H258571   5.008   2.930  14.226  0.2951 -0.8806  1.7303
12386TIP3   OH258572   6.485   3.906   3.214 -0.4547  0.2715  0.1257
12386TIP3    H158573   6.418   3.838   3.217  0.6794 -0.8974 -0.4981
12386TIP3    H258574   6.567   3.858   3.202  0.3047  1.7699 -0.7986
12387TIP3   OH258575   1.911   1.891   3.362  0.0328  0.1225  0.3529
12387TIP3    H158576   1.817   1.875   3.364 -0.3479  1.9701 -1.3236
12387TIP3    H258577   1.945   1.833   3.294  0.2761 -1.2748  1.6456
12388TIP3   OH258578   0.156   6.168  12.316 -0.1330 -0.1489  0.0004
12388TIP3    H158579   0.109   6.203  12.392 -0.7329  1.2881 -1.0123
12388TIP3    H258580   0.146   6.073  12.324 -1.0063  0.0242  1.2012
12389TIP3   OH258581   3.381   4.935   5.210  0.4215  0.1058  0.4093
12389TIP3    H158582   3.345   4.992   5.279  0.9064 -0.5236  1.1898
12389TIP3    H258583   3.383   4.990   5.132 -0.2238  0.8009  0.8740
12390TIP3   OH258584   3.829   4.138   6.662 -0.2459 -0.0743 -0.0555
12390TIP3    H158585   3.736   4.138   6.686  0.0951  1.5245  1.3006
12390TIP3    H258586   3.852   4.045   6.657 -1.8097 -0.4862 -0.0220
12391TIP3   OH258587   3.233   5.287  14.314  0.1958 -0.0141 -0.2894
12391TIP3    H158588   3.284   5.241  14.381  0.1926 -1.3135 -1.1731
12391TIP3    H258589   3.157   5.321  14.361  0.5210 -0.3665  0.5047
12392TIP3   OH258590   4.822   6.192   2.298 -0.5560  0.3767  0.5657
12392TIP3    H158591   4.906   6.179   2.255 -1.5593  0.4844 -1.5024
12392TIP3    H258592   4.825   6.281   2.332  0.4299  0.1257  1.1468
12393TIP3   OH258593   2.752   0.316  13.535 -0.0910  0.0051 -0.1848
12393TIP3    H158594   2.722   0.385  13.476 -0.6558  1.9663  2.2846
12393TIP3    H258595   2.837   0.347  13.567 -1.4606  0.9168  2.8747
12394TIP3   OH258596   3.573   3.591   3.138 -0.1269  0.1245 -0.2940
12394TIP3    H158597   3.548   3.525   3.204 -1.1029  0.3124 -0.4683
12394TIP3    H258598   3.537   3.673   3.172  1.7692  0.7290  0.3197
12395TIP3   OH258599   3.337   1.539  14.917  0.4713  0.1797 -0.3372
12395TIP3    H158600   3.371   1.496  14.996  0.8876  0.8575 -0.1389
12395TIP3    H258601   3.249   1.568  14.942  0.5717  0.3244 -0.1466
12396TIP3   OH258602   4.080   3.365  15.036  0.1064  0.3856  0.2411
12396TIP3    H158603   4.045   3.312  14.965 -1.7544  1.0156  0.6597
12396TIP3    H258604   4.006   3.418  15.066  1.2270  1.2027  1.6687
12397TIP3   OH258605   6.495   1.811   3.848 -0.7592 -0.1716 -0.0597
12397TIP3    H158606   6.402   1.796   3.837 -0.2947 -2.3693 -1.3329
12397TIP3    H258607   6.537   1.753   3.784  1.4351  1.7402 -0.4297
12398TIP3   OH258608   5.981   1.865  12.049 -0.6219  0.6151  0.1698
12398TIP3    H158609   5.998   1.948  12.092 -0.7152  0.6173  0.2037
12398TIP3    H258610   5.973   1.802  12.121  0.0403  0.4699  0.1110
12399TIP3   OH258611   1.256   3.639   3.315  0.3491  0.4371 -0.3907
12399TIP3    H158612   1.351   3.636   3.325  0.1961 -0.2037  0.9658
12399TIP3    H258613   1.238   3.581   3.241  0.8872 -0.7847  0.4126
12400TIP3   OH258614   0.874   3.642  13.850  0.0610 -0.0148 -0.4744
12400TIP3    H158615   0.934   3.665  13.921 -0.9323 -0.5240  0.5464
12400TIP3    H258616   0.858   3.548  13.862 -1.8826  0.3512 -0.0023
12401TIP3   OH258617   2.399   5.846   1.420  0.5212 -0.1666 -0.4148
12401TIP3    H158618   2.362   5.798   1.346 -0.2336 -0.7091  0.3183
12401TIP3    H258619   2.357   5.932   1.416 -2.4966 -1.4596  1.6787
12402TIP3   OH258620   1.966   3.332  12.586  0.2885 -0.6894 -0.3134
12402TIP3    H158621   1.988   3.278  12.510 -1.0659 -0.2513 -1.0283
12402TIP3    H258622   2.050   3.370  12.614  1.0995 -2.4116 -0.3736
12403TIP3   OH258623   3.169   3.637   2.813 -0.0285  0.1481  0.0279
12403TIP3    H158624   3.264   3.638   2.802 -0.0311  1.5350  0.0082
12403TIP3    H258625   3.155   3.667   2.903 -0.4858  1.4128 -0.4492
12404TIP3   OH258626   2.473   0.296  15.032  0.1332  0.4085 -0.0826
12404TIP3    H158627   2.451   0.367  15.091  2.3769  2.1740 -1.2980
12404TIP3    H258628   2.401   0.234  15.041 -0.4867  1.5256  3.0479
12405TIP3   OH258629   4.602   3.679   1.619  0.2321 -0.3050 -0.5975
12405TIP3    H158630   4.697   3.677   1.609  0.3024  0.6038 -0.1928
12405TIP3    H258631   4.583   3.614   1.686  0.7334  0.6033  0.4504
12406TIP3   OH258632   1.829   3.245   2.804  0.5118  0.2321  0.0411
12406TIP3    H158633   1.876   3.164   2.821 -0.1530 -0.2741 -0.5037
12406TIP3    H258634   1.874   3.311   2.857  0.2030 -0.7602  1.5750
12407TIP3   OH258635   4.036   2.879  14.614 -0.2872 -0.3793  0.2553
12407TIP3    H158636   4.091   2.956  14.628  0.7267 -1.2682  1.2957
12407TIP3    H258637   4.072   2.813  14.673 -0.1388 -2.1415 -1.7531
12408TIP3   OH258638   2.375   3.215  14.840 -0.0445 -0.2545 -0.1360
12408TIP3    H158639   2.427   3.243  14.915  0.6789  0.5408 -0.9144
12408TIP3    H258640   2.365   3.295  14.787 -0.6283 -0.7812 -0.8316
12409TIP3   OH258641   2.068   1.061  15.182 -0.1594 -0.4057 -0.0764
12409TIP3    H158642   1.995   1.079  15.242 -0.4263 -0.5668 -0.3540
12409TIP3    H258643   2.085   1.145  15.140 -1.2345 -0.7272 -1.1847
12410TIP3   OH258644   6.302   2.949  15.862  0.4517 -0.3218 -1.0685
12410TIP3    H158645   6.313   2.969  15.955  1.9600 -0.5000 -1.2011
12410TIP3    H258646   6.341   3.024  15.816  1.7839 -1.3025 -1.5542
12411TIP3   OH258647   3.248   5.669   4.322  0.1800 -0.3236 -0.0026
12411TIP3    H158648   3.334   5.658   4.282  0.2054 -0.3035  0.0455
12411TIP3    H258649   3.262   5.648   4.415  0.2829  0.3389  0.1347
12412TIP3   OH258650   3.811   4.785  15.374 -0.0400 -0.2684 -0.2385
12412TIP3    H158651   3.789   4.842  15.448 -1.8863 -2.0706  0.6748
12412TIP3    H258652   3.904   4.766  15.385 -0.1064  0.1725  1.1494
12413TIP3   OH258653   0.932   0.521   1.810  0.1554 -0.1705  0.6707
12413TIP3    H158654   0.944   0.616   1.805 -0.3889 -0.1132  0.3813
12413TIP3    H258655   0.842   0.507   1.782  0.6136 -0.8929 -0.4864
12414TIP3   OH258656   5.191   4.308   3.688 -0.1739  0.0111 -0.0745
12414TIP3    H158657   5.256   4.305   3.758 -1.5940 -0.4882  1.2780
12414TIP3    H258658   5.211   4.233   3.633  0.4541 -0.0960  0.2994
12415TIP3   OH258659   4.732   6.620   3.199 -0.2781  0.3929 -0.1725
12415TIP3    H158660   4.643   6.641   3.171 -0.0248  1.1947 -0.3700
12415TIP3    H258661   4.751   6.537   3.155 -0.4307  0.9067 -1.2324
12416TIP3   OH258662   0.749   3.619   2.062  0.2288  0.1490 -0.9347
12416TIP3    H158663   0.818   3.553   2.058  1.2476  1.1520 -0.4148
12416TIP3    H258664   0.777   3.679   2.131 -1.7775 -0.0762  0.1198
12417TIP3   OH258665   2.471   2.768   5.902 -0.1262  0.6515 -0.0229
12417TIP3    H158666   2.532   2.726   5.842  0.2196  0.5249  0.4116
12417TIP3    H258667   2.420   2.695   5.939  0.4968  0.5979  0.7580
12418TIP3   OH258668   6.460   0.753   4.194 -0.2206 -0.4872 -0.1542
12418TIP3    H158669   6.524   0.694   4.156  0.2496  1.0775 -1.8683
12418TIP3    H258670   6.407   0.782   4.120 -0.8941  0.6681  0.7571
12419TIP3   OH258671   0.694   6.741   0.786  0.1050 -0.0139  0.5460
12419TIP3    H158672   0.710   6.693   0.868  0.0632 -0.5589  0.2391
12419TIP3    H258673   0.607   6.714   0.759  1.0721 -1.7210 -0.9456
12420TIP3   OH258674   3.907   6.483  16.612 -0.5051  0.0624 -0.6823
12420TIP3    H158675   3.856   6.447  16.539  1.2419 -0.3075 -1.7490
12420TIP3    H258676   3.975   6.418  16.627  1.1052  1.6758 -0.8736
12421TIP3   OH258677   3.266   4.180   0.258 -0.0732  0.3644 -0.2283
12421TIP3    H158678   3.357   4.152   0.261 -0.1914  0.1502  1.7174
12421TIP3    H258679   3.264   4.248   0.190  1.0154 -1.3777 -2.0812
12422TIP3   OH258680   2.655   2.585   5.296  0.0926 -0.5200  0.2068
12422TIP3    H158681   2.723   2.630   5.245  0.0715  0.8179  1.3442
12422TIP3    H258682   2.581   2.578   5.235  0.7537 -0.7322 -0.5862
12423TIP3   OH258683   4.030   5.262   3.549 -0.0455 -0.1710  0.4737
12423TIP3    H158684   4.016   5.305   3.634 -0.2685 -1.1845  0.9582
12423TIP3    H258685   4.124   5.267   3.534 -0.2003  1.6026 -0.0805
12424TIP3   OH258686   4.052   5.548  12.292  0.1883 -0.3581 -0.0168
12424TIP3    H158687   4.084   5.520  12.206 -0.2420  1.3984 -0.7597
12424TIP3    H258688   4.075   5.641  12.297  0.0246 -0.3973  1.6884
12425TIP3   OH258689   5.806   5.953   2.066 -0.4582 -0.0830 -0.4289
12425TIP3    H158690   5.800   5.872   2.116  0.5756  0.0489 -0.0781
12425TIP3    H258691   5.822   5.926   1.976  2.0364 -0.2409  0.0318
12426TIP3   OH258692   5.130   6.502  17.097  0.0757  0.1342  0.3427
12426TIP3    H158693   5.197   6.441  17.127  1.3195  1.3250  0.0455
12426TIP3    H258694   5.171   6.588  17.103 -0.9572  0.7562 -1.1709
12427TIP3   OH258695   4.097   5.856   5.842  0.4613 -0.1924 -0.5581
12427TIP3    H158696   4.108   5.816   5.928 -0.9458 -1.0850 -0.7748
12427TIP3    H258697   4.046   5.935   5.858 -0.3410 -0.6841 -0.6265
12428TIP3   OH258698   4.227   2.824  14.851  0.1709  0.5614  0.0547
12428TIP3    H158699   4.205   2.862  14.936  1.5952 -1.0208  1.1588
12428TIP3    H258700   4.321   2.838  14.843  0.7087 -2.5151  0.4067
12429TIP3   OH258701   0.064   1.523  16.682 -0.2047  0.1768  0.4340
12429TIP3    H158702   0.101   1.462  16.745  0.2807  0.9427  0.8859
12429TIP3    H258703   0.120   1.515  16.605 -0.9485 -0.9452  0.0005
12430TIP3   OH258704   2.470   3.378  12.445  0.4452  0.4971 -0.5826
12430TIP3    H158705   2.553   3.357  12.403  0.0082 -0.2627 -1.0698
12430TIP3    H258706   2.403   3.352  12.382 -0.2142 -0.5744  0.5445
12431TIP3   OH258707   6.228   4.173   5.144 -0.0174  1.1715 -0.3274
12431TIP3    H158708   6.198   4.184   5.054  0.0464  2.4113 -0.2056
12431TIP3    H258709   6.228   4.262   5.181  0.7009  0.7776  0.6559
12432TIP3   OH258710   0.025   3.069  13.876  0.6685 -0.0704  0.2802
12432TIP3    H158711   0.021   3.161  13.848 -1.3104 -0.5328 -1.0691
12432TIP3    H258712  -0.003   3.071  13.968  0.8315  0.6930  0.3175
12433TIP3   OH258713   3.129   3.766  12.304  0.3527 -0.7257  0.2556
12433TIP3    H158714   3.061   3.714  12.261  1.5535 -1.3541 -0.9442
12433TIP3    H258715   3.118   3.854  12.267  0.2536 -0.8445 -0.0018
12434TIP3   OH258716   0.617   2.112   1.249 -0.0352  0.0976 -0.3498
12434TIP3    H158717   0.546   2.176   1.239  1.6180  1.8389 -1.2971
12434TIP3    H258718   0.611   2.084   1.340 -2.7699 -0.8250 -0.7636
12435TIP3   OH258719   5.029   1.555  12.817 -0.8493  0.2062 -0.8011
12435TIP3    H158720   5.060   1.471  12.851 -0.8989  0.3644 -0.3650
12435TIP3    H258721   4.996   1.602  12.894  1.1772  1.5120 -0.6957
12436TIP3   OH258722   4.339   6.091  14.279  0.2405 -0.0924  0.4216
12436TIP3    H158723   4.372   6.058  14.362  1.8055  0.6983  0.1420
12436TIP3    H258724   4.396   6.053  14.213  1.3855  2.2531  0.0191
12437TIP3   OH258725   2.540   3.119   3.596  0.3129 -0.1416  0.1172
12437TIP3    H158726   2.458   3.169   3.586 -0.8870 -2.0403  0.1836
12437TIP3    H258727   2.514   3.040   3.643  1.2244 -3.1193 -4.0619
12438TIP3   OH258728   1.167   6.696   5.048 -0.2788 -0.1586  0.0401
12438TIP3    H158729   1.219   6.641   4.989  0.2415 -0.9917  1.2570
12438TIP3    H258730   1.215   6.695   5.131 -1.8155 -0.3096  0.9605
12439TIP3   OH258731   2.674   0.529   1.372  0.1618  0.2364  0.2626
12439TIP3    H158732   2.763   0.538   1.338  0.1102  1.2191  0.3571
12439TIP3    H258733   2.681   0.555   1.464  0.1405 -1.5802  0.7838
12440TIP3   OH258734   1.597   4.547   4.008 -0.0507 -0.2489  0.3578
12440TIP3    H158735   1.642   4.550   3.924 -1.4993  1.6608 -0.4045
12440TIP3    H258736   1.603   4.456   4.036  1.2041 -0.7243 -1.3986
12441TIP3   OH258737   5.179   4.471   3.951 -0.3809  0.5072 -0.6421
12441TIP3    H158738   5.258   4.422   3.929  0.6897  1.7492  0.3402
12441TIP3    H258739   5.178   4.545   3.891 -0.6456  0.6568 -0.4570
12442TIP3   OH258740   2.710   3.939  11.979  0.1785 -0.2968 -0.0841
12442TIP3    H158741   2.634   3.987  12.010 -0.3326  0.0862 -1.8834
12442TIP3    H258742   2.760   3.920  12.059 -0.3523  1.9063  0.8252
12443TIP3   OH258743   3.661   2.751  15.450 -0.0473  0.1161  0.3051
12443TIP3    H158744   3.639   2.695  15.525 -0.1523  1.0031  0.9466
12443TIP3    H258745   3.595   2.820  15.451  0.5579  0.7091  0.0202
12444TIP3   OH258746   3.597   1.379   1.885  0.5746  0.3897  0.1488
12444TIP3    H158747   3.515   1.396   1.931 -0.8861 -1.5612 -1.6417
12444TIP3    H258748   3.659   1.356   1.954 -0.7918  0.4041  1.3925
12445TIP3   OH258749   2.512   4.433   0.559  0.0419  0.1652 -0.6344
12445TIP3    H158750   2.488   4.493   0.629  1.2406  1.6345 -1.4342
12445TIP3    H258751   2.509   4.346   0.599 -0.2124  0.8925  0.9621
12446TIP3   OH258752   5.942   0.579   1.725  0.3505 -0.1735 -0.2414
12446TIP3    H158753   5.964   0.670   1.746  0.5297 -0.5437  1.2489
12446TIP3    H258754   5.877   0.586   1.655 -0.2697  1.1362  0.4263
12447TIP3   OH258755   4.925   0.814  12.593 -1.0552 -0.0335  0.2446
12447TIP3    H158756   4.908   0.806  12.499 -1.5593  1.0182  0.2375
12447TIP3    H258757   4.950   0.726  12.620  0.4340 -0.0628 -1.1369
12448TIP3   OH258758   1.689   4.323  17.172 -0.3455  0.7527  0.5958
12448TIP3    H158759   1.623   4.270  17.127 -2.4316  1.4648  2.6904
12448TIP3    H258760   1.657   4.413  17.163  0.8497  1.2067  0.8216
12449TIP3   OH258761   2.684   0.872  12.325  1.2103 -0.4338 -0.8922
12449TIP3    H158762   2.685   0.812  12.251  0.1641 -1.1645 -0.3260
12449TIP3    H258763   2.609   0.930  12.308  2.3049  0.8467 -1.5189
12450TIP3   OH258764   0.192   4.331  14.171 -0.1391  0.4154 -0.1030
12450TIP3    H158765   0.271   4.278  14.163 -1.2434 -1.2705 -0.0230
12450TIP3    H258766   0.216   4.416  14.133  1.9803  0.2355  0.7723
12451TIP3   OH258767   6.118   3.735  12.663 -0.2340  0.4990  0.6702
12451TIP3    H158768   6.147   3.793  12.733 -0.3771 -0.4498  1.5223
12451TIP3    H258769   6.198   3.691  12.634 -0.2356  0.6113  0.4942
12452TIP3   OH258770   1.341   6.758  12.370  0.5035 -0.2398 -0.4181
12452TIP3    H158771   1.344   6.705  12.450 -0.1984 -3.8712 -2.6879
12452TIP3    H258772   1.251   6.787  12.364  0.2535 -1.0159 -0.5115
12453TIP3   OH258773   0.644   3.339   0.694 -0.1498  0.3388 -0.5687
12453TIP3    H158774   0.656   3.347   0.789  0.5622  0.6439 -0.6871
12453TIP3    H258775   0.569   3.280   0.685 -0.9595  1.2357  0.1981
12454TIP3   OH258776   6.284   2.113   4.480  0.4670 -0.1509 -0.2624
12454TIP3    H158777   6.284   2.164   4.561  1.2669 -0.8273  0.1793
12454TIP3    H258778   6.328   2.168   4.416 -1.2300  0.8866 -0.5813
12455TIP3   OH258779   5.964   0.139   1.365 -0.5917 -0.1743  0.2479
12455TIP3    H158780   5.998   0.207   1.424  0.8520 -1.3782  0.8638
12455TIP3    H258781   6.024   0.141   1.290 -1.2884  0.0749 -0.2983
12456TIP3   OH258782   0.149   2.909   0.503  0.1828 -0.0386  0.5035
12456TIP3    H158783   0.081   2.913   0.437  0.2213  2.1298  0.5502
12456TIP3    H258784   0.133   2.826   0.549 -1.4311 -0.3112 -0.5021
12457TIP3   OH258785   3.758   2.418  14.128 -0.6039 -0.3878 -0.1933
12457TIP3    H158786   3.723   2.498  14.168 -0.0163 -0.4960  0.5434
12457TIP3    H258787   3.680   2.370  14.100 -0.9895  0.0675  0.0794
12458TIP3   OH258788   2.574   0.258   6.465 -0.1636 -0.4682 -0.1002
12458TIP3    H158789   2.553   0.182   6.410  2.7310 -0.8808 -0.7200
12458TIP3    H258790   2.619   0.221   6.541 -1.6035  0.3697  1.1957
12459TIP3   OH258791   3.203   5.779  11.033 -0.1488  0.2921 -0.5226
12459TIP3    H158792   3.109   5.794  11.027 -0.1160  0.5567 -0.3775
12459TIP3    H258793   3.222   5.716  10.963 -0.3924  0.4135 -0.6984
12460TIP3   OH258794   2.329   3.198   0.150 -0.4340  0.3875  0.3514
12460TIP3    H158795   2.372   3.116   0.174  0.1057  0.5332 -0.0869
12460TIP3    H258796   2.377   3.265   0.199 -0.4029  0.5141  0.1494
12461TIP3   OH258797   4.626   0.782  16.055  0.2369  0.1496 -0.0157
12461TIP3    H158798   4.679   0.859  16.077 -0.7999  0.6497  0.7712
12461TIP3    H258799   4.537   0.806  16.081 -0.0155 -1.5236  0.6993
12462TIP3   OH258800   2.697   3.845   4.306 -0.0370  0.4495 -0.1695
12462TIP3    H158801   2.611   3.808   4.285  0.4427  0.4368 -2.2330
12462TIP3    H258802   2.714   3.907   4.235  1.0099  1.5571  1.0283
12463TIP3   OH258803   3.536   5.389  16.797  0.1621 -1.1319  0.0839
12463TIP3    H158804   3.467   5.455  16.812  0.2095 -1.5206  2.1737
12463TIP3    H258805   3.600   5.406  16.865  1.4697 -1.6907 -0.9919
12464TIP3   OH258806   5.250   1.824   1.065  0.2179  0.0590  0.3935
12464TIP3    H158807   5.245   1.748   1.008 -1.1112  0.9675 -0.7216
12464TIP3    H258808   5.326   1.873   1.033  0.2349 -0.0835  0.2156
12465TIP3   OH258809   2.585   3.689  11.574  0.4796  0.1038 -0.5343
12465TIP3    H158810   2.653   3.717  11.635 -0.1029  0.1855  0.0806
12465TIP3    H258811   2.619   3.607  11.537  0.0622 -0.8643  1.1949
12466TIP3   OH258812   2.271   0.702   1.029 -0.8772 -0.2386 -0.1775
12466TIP3    H158813   2.360   0.678   1.004 -1.2684 -0.9869 -0.8691
12466TIP3    H258814   2.278   0.726   1.122  0.5627  2.4298 -0.9278
12467TIP3   OH258815   3.780   4.956  11.392  0.3415 -0.4122 -0.0446
12467TIP3    H158816   3.755   4.945  11.483 -1.7935  1.6015 -0.3771
12467TIP3    H258817   3.824   4.873  11.370  0.5085 -1.0881  2.6399
12468TIP3   OH258818   0.883   0.486  14.445 -0.2148 -0.6416  0.2960
12468TIP3    H158819   0.893   0.451  14.356  1.3539 -1.3233  0.7316
12468TIP3    H258820   0.876   0.409  14.500 -1.3810 -0.2166  0.7606
12469TIP3   OH258821   5.257   1.523   5.393 -0.3310 -0.6240 -0.0100
12469TIP3    H158822   5.200   1.477   5.455  0.0350  0.9914  1.5652
12469TIP3    H258823   5.282   1.456   5.329  0.1484 -2.6180  2.1797
12470TIP3   OH258824   4.543   4.832  11.357  0.1894  0.1445  0.7208
12470TIP3    H158825   4.505   4.817  11.270 -2.4567 -0.7358  1.9464
12470TIP3    H258826   4.612   4.766  11.365 -1.1759 -1.4031  0.1688
12471TIP3   OH258827   5.144   5.816  13.425  0.0347 -0.2941  0.2293
12471TIP3    H158828   5.100   5.841  13.506 -0.4335 -0.9302  0.1797
12471TIP3    H258829   5.225   5.867  13.424  0.1054 -0.3827  1.1645
12472TIP3   OH258830   5.325   3.947  12.426  0.7033 -0.1097  0.0619
12472TIP3    H158831   5.289   4.028  12.463  0.1550  0.6187 -1.9883
12472TIP3    H258832   5.249   3.892  12.410  0.6464  0.5609 -2.2183
12473TIP3   OH258833   4.625   3.369  14.412  0.4161 -0.4403  0.3530
12473TIP3    H158834   4.670   3.453  14.408  1.4371 -0.9117  1.6069
12473TIP3    H258835   4.688   3.306  14.378 -0.6942 -0.5968 -1.5301
12474TIP3   OH258836   4.158   5.453  14.669  0.5239 -0.8329  0.1210
12474TIP3    H158837   4.106   5.385  14.711  0.6245 -0.7300  0.4126
12474TIP3    H258838   4.184   5.511  14.740  1.5930 -1.2429  0.0664
12475TIP3   OH258839   5.361   6.741   5.086  0.4845 -0.3608  0.1059
12475TIP3    H158840   5.333   6.782   5.168  0.4537  0.1905 -0.1758
12475TIP3    H258841   5.445   6.701   5.106  1.1774  1.0403  0.0166
12476TIP3   OH258842   3.345   1.697  14.405 -0.5143  0.0718  0.1516
12476TIP3    H158843   3.257   1.725  14.432 -2.1528 -1.4429 -3.2393
12476TIP3    H258844   3.392   1.779  14.389 -2.2645  0.9555 -0.7197
12477TIP3   OH258845   0.149   4.975   5.832 -0.9511 -0.3113 -0.1313
12477TIP3    H158846   0.124   5.067   5.826 -1.2707 -0.3261  0.8308
12477TIP3    H258847   0.095   4.941   5.903  0.0987 -0.9356  0.3690
12478TIP3   OH258848   5.316   3.443  11.703  0.0056  0.5397  0.2980
12478TIP3    H158849   5.338   3.352  11.719 -1.3988  0.0206 -0.6274
12478TIP3    H258850   5.386   3.493  11.745 -1.0664 -0.8438  3.8533
12479TIP3   OH258851   6.703   0.571  14.814 -0.2464  0.1906  0.3186
12479TIP3    H158852   6.763   0.496  14.817 -1.4401 -0.7244  2.4179
12479TIP3    H258853   6.701   0.603  14.904 -1.0170  1.7515 -0.2459
12480TIP3   OH258854   5.737   6.692  12.842 -0.1531  0.0948 -0.2679
12480TIP3    H158855   5.771   6.724  12.759  1.3236  0.3444  0.4138
12480TIP3    H258856   5.813   6.653  12.886 -0.6339  1.0689  1.4821
12481TIP3   OH258857   5.010   5.476   0.379 -0.0153 -0.3835  0.1655
12481TIP3    H158858   4.936   5.535   0.362 -0.9869 -0.8346  2.6510
12481TIP3    H258859   5.018   5.475   0.474  0.1776 -4.0109  0.1695
12482TIP3   OH258860   5.659   5.340  15.067 -0.2151  1.0857  0.3313
12482TIP3    H158861   5.716   5.370  15.138  0.2564  1.3880 -0.1664
12482TIP3    H258862   5.716   5.339  14.990  0.2802 -2.8930  0.6860
12483TIP3   OH258863   4.333   1.650  14.442  0.0660  0.1653  0.0998
12483TIP3    H158864   4.296   1.689  14.363  0.5233  0.3432 -0.0261
12483TIP3    H258865   4.339   1.722  14.504 -0.1400  0.0593  0.2447
12484TIP3   OH258866   4.178   4.887  13.647  0.7969  0.0133  0.2352
12484TIP3    H158867   4.268   4.893  13.616  0.6314  0.4807 -0.1745
12484TIP3    H258868   4.184   4.848  13.734  1.4538  0.6830  0.4906
12485TIP3   OH258869   0.034   2.223   3.519 -0.1192  0.2939 -0.0830
12485TIP3    H158870   0.031   2.182   3.605  2.7781 -0.7429 -0.3999
12485TIP3    H258871   0.009   2.314   3.534 -1.1707 -0.2479  1.5740
12486TIP3   OH258872   5.367   2.329   2.531 -0.0435  0.0707  0.2723
12486TIP3    H158873   5.295   2.281   2.492 -0.1985  1.0002 -0.6176
12486TIP3    H258874   5.330   2.415   2.552  0.8487  0.6510 -0.4487
12487TIP3   OH258875   3.125   1.111   1.337  0.1983 -0.1533  0.5547
12487TIP3    H158876   3.124   1.058   1.258  1.0456  0.7967 -0.1090
12487TIP3    H258877   3.103   1.050   1.407 -1.3012 -0.8580 -0.4930
12488TIP3   OH258878   0.989   6.628   0.227 -0.2414 -0.1551  0.3979
12488TIP3    H158879   0.901   6.635   0.265 -1.0674  1.4511 -1.7163
12488TIP3    H258880   1.035   6.705   0.259 -0.1841 -0.0489  0.0589
12489TIP3   OH258881   2.102   6.279  16.707  0.8987  0.0037  0.1811
12489TIP3    H158882   2.070   6.239  16.626 -1.7975  1.3136  0.5531
12489TIP3    H258883   2.186   6.318  16.682  0.7409 -0.7634 -1.6531
12490TIP3   OH258884   4.696   1.357   2.733 -0.0834 -1.3725  0.1420
12490TIP3    H158885   4.714   1.271   2.696 -0.0581 -0.5884 -1.7196
12490TIP3    H258886   4.694   1.416   2.657 -2.2960 -0.1031  1.1445
12491TIP3   OH258887   2.716   4.105  15.295 -0.3864  0.0477 -0.8001
12491TIP3    H158888   2.642   4.115  15.235 -0.1303  0.4813 -1.0497
12491TIP3    H258889   2.787   4.155  15.253 -0.0792 -0.0206 -0.3587
12492TIP3   OH258890   2.255   1.403  14.843 -0.6640  0.3308 -0.2696
12492TIP3    H158891   2.183   1.349  14.877  0.6033 -0.9391  0.5076
12492TIP3    H258892   2.333   1.366  14.885  0.5312  1.1289 -1.7619
12493TIP3   OH258893   5.822   1.143   4.243  0.2120 -0.0175 -0.3727
12493TIP3    H158894   5.810   1.137   4.148  1.3128  0.6448 -0.5644
12493TIP3    H258895   5.907   1.186   4.254 -0.8230  1.7657  0.9235
12494TIP3   OH258896   5.326   6.206  16.729 -0.0188 -0.3552 -0.4947
12494TIP3    H158897   5.360   6.175  16.813 -0.7894 -0.5473 -0.2464
12494TIP3    H258898   5.296   6.126  16.685  0.1691 -0.2271 -0.8556
12495TIP3   OH258899   4.393   0.229   0.520 -0.1696  0.1717  0.2563
12495TIP3    H158900   4.383   0.157   0.458  2.4613 -0.4843  0.5583
12495TIP3    H258901   4.358   0.305   0.473 -0.3604 -0.7452 -1.1233
12496TIP3   OH258902   0.193   0.187   2.084 -0.0615  0.4243 -0.3147
12496TIP3    H158903   0.148   0.270   2.097  0.7144  0.5774  1.4968
12496TIP3    H258904   0.274   0.195   2.134 -0.9548 -2.2332  1.6935
12497TIP3   OH258905   6.352   0.436   3.964  0.4262  0.0393  0.2902
12497TIP3    H158906   6.356   0.531   3.953 -1.1809  0.1051  0.1585
12497TIP3    H258907   6.325   0.423   4.055 -0.8293 -0.2555 -0.1112
12498TIP3   OH258908   6.086   6.241   2.593  0.2956  0.0241  0.0652
12498TIP3    H158909   6.028   6.198   2.656  1.0316  0.8512  1.3153
12498TIP3    H258910   6.028   6.295   2.540 -0.3434 -0.7717 -0.0507
12499TIP3   OH258911   5.876   1.504  14.032  0.0045 -0.3527  0.2876
12499TIP3    H158912   5.794   1.459  14.053 -0.1707 -0.0315  0.2859
12499TIP3    H258913   5.913   1.453  13.960  0.0990 -0.8490  0.6764
12500TIP3   OH258914   1.968   4.748  15.438 -0.3270  0.0908  0.2574
12500TIP3    H158915   1.898   4.802  15.403 -1.4030 -0.8705  0.8884
12500TIP3    H258916   2.023   4.726  15.363 -0.7989  0.6992 -0.2630
12501TIP3   OH258917   3.922   2.594   1.986 -0.0869 -0.0737 -1.3995
12501TIP3    H158918   4.016   2.601   1.970  0.2094  3.1172  1.2407
12501TIP3    H258919   3.883   2.666   1.937 -0.6932  1.0277  0.6589
12502TIP3   OH258920   1.823   3.566   4.086 -0.3187  0.5364 -0.0845
12502TIP3    H158921   1.860   3.550   4.173 -1.7432 -1.8649  0.1237
12502TIP3    H258922   1.810   3.661   4.082  1.4857  0.8771  1.5941
12503TIP3   OH258923   5.148   3.148   0.000  0.0995  0.5461 -0.0625
12503TIP3    H158924   5.192   3.072  -0.037  0.3246  1.1792 -1.0887
12503TIP3    H258925   5.188   3.223  -0.043 -1.6539  1.1519 -0.6823
12504TIP3   OH258926   5.480   1.335  16.542 -0.0172  0.2151  0.5047
12504TIP3    H158927   5.551   1.308  16.483 -0.5026  0.8095 -0.3483
12504TIP3    H258928   5.415   1.265  16.535 -0.5317  0.7817 -0.4458
12505TIP3   OH258929   2.306   1.312  13.085  0.0553  0.0237 -0.3262
12505TIP3    H158930   2.338   1.348  13.167  0.0793  0.8226 -0.6804
12505TIP3    H258931   2.340   1.223  13.082  2.0417  0.7747 -0.5832
12506TIP3   OH258932   0.467   4.070   1.068 -0.5294  0.3831 -0.2440
12506TIP3    H158933   0.520   4.035   1.140 -1.8771 -0.2289  0.4673
12506TIP3    H258934   0.406   4.129   1.111  0.1661  1.8052 -1.1683
12507TIP3   OH258935   1.018   1.715   4.818 -0.3900  0.4814 -0.6121
12507TIP3    H158936   1.008   1.796   4.868 -2.6393 -0.3293  0.3539
12507TIP3    H258937   1.067   1.657   4.876  1.8046  1.3444 -1.5689
12508TIP3   OH258938   4.908   2.326  11.895 -0.0715 -0.1889 -0.1263
12508TIP3    H158939   4.825   2.292  11.863  0.1921  1.1844 -2.3379
12508TIP3    H258940   4.914   2.294  11.985 -0.8658 -4.1550 -1.3765
12509TIP3   OH258941   2.528   3.268   2.193  0.1096 -0.6792 -0.2289
12509TIP3    H158942   2.509   3.198   2.131 -1.8963 -0.2687 -0.1333
12509TIP3    H258943   2.525   3.348   2.140 -2.2791 -0.2640  0.4660
12510TIP3   OH258944   0.711   6.264   0.152 -0.1559  0.8888 -0.3353
12510TIP3    H158945   0.717   6.285   0.245  1.7420  5.1137 -1.3358
12510TIP3    H258946   0.643   6.322   0.118  0.7766  1.0347 -2.0253
12511TIP3   OH258947   2.527   1.235   0.619 -0.0960  0.3802 -0.2927
12511TIP3    H158948   2.485   1.151   0.635  2.0386 -0.6965 -0.1582
12511TIP3    H258949   2.597   1.216   0.556  0.3085  2.0666 -0.3780
12512TIP3   OH258950   6.162   3.462  13.846 -0.1777  0.6025 -0.0278
12512TIP3    H158951   6.081   3.510  13.830 -0.0182  0.7779 -0.3079
12512TIP3    H258952   6.142   3.372  13.821 -1.0830  0.1033  2.3469
12513TIP3   OH258953   1.859   0.471  15.428 -0.0897 -0.3108 -0.1033
12513TIP3    H158954   1.925   0.493  15.363  0.0378 -0.3279  0.0225
12513TIP3    H258955   1.812   0.553  15.444 -0.0337 -0.2772 -0.1135
12514TIP3   OH258956   6.778   6.259  16.709 -0.6196 -0.3608  0.3205
12514TIP3    H158957   6.806   6.200  16.779 -0.2264 -2.1565 -1.3105
12514TIP3    H258958   6.851   6.320  16.698 -0.9724  0.3689  1.9267
12515TIP3   OH258959   0.966   5.405  14.948  0.0782 -0.1706  0.3739
12515TIP3    H158960   0.918   5.449  15.018 -1.5493 -0.2693 -0.6485
12515TIP3    H258961   0.978   5.472  14.881 -2.9269 -1.3310 -1.4434
12516TIP3   OH258962   6.361   0.114   1.052 -0.3081  0.0185 -0.0439
12516TIP3    H158963   6.392   0.052   0.986 -0.9449 -1.2663  0.8437
12516TIP3    H258964   6.383   0.200   1.016  1.4477 -0.7487 -0.8607
12517TIP3   OH258965   3.400   2.669   4.289 -0.3086 -0.4567 -0.0272
12517TIP3    H158966   3.384   2.735   4.357  0.8527  0.1838 -0.3706
12517TIP3    H258967   3.491   2.644   4.301  0.6957  1.5055 -2.9225
12518TIP3   OH258968   5.400   3.077  11.996  0.1465  0.0085 -0.5650
12518TIP3    H158969   5.456   3.007  12.030  0.1570 -0.0265 -0.6527
12518TIP3    H258970   5.421   3.081  11.902 -0.1797 -0.1787 -0.6497
12519TIP3   OH258971   2.987   5.731   1.781 -0.0077 -0.2236  0.3346
12519TIP3    H158972   3.017   5.755   1.693 -1.0152  0.2425  0.1093
12519TIP3    H258973   2.935   5.652   1.768 -0.6017  0.1498  0.4429
12520TIP3   OH258974   1.163   0.834  16.122  0.4621 -0.4013  0.3221
12520TIP3    H158975   1.166   0.840  16.218  2.1928 -1.1904  0.3423
12520TIP3    H258976   1.247   0.871  16.094 -0.2234  0.2364 -0.9317
12521TIP3   OH258977   0.846   3.040  16.594  0.0854  0.0639  0.5969
12521TIP3    H158978   0.751   3.041  16.584  0.2706  0.1580 -1.2788
12521TIP3    H258979   0.862   3.089  16.675 -1.4825 -0.3465  1.1703
12522TIP3   OH258980   4.524   6.546  10.259  0.3257  0.3360  0.3319
12522TIP3    H158981   4.573   6.541  10.177  0.7434  0.7033  0.5563
12522TIP3    H258982   4.561   6.476  10.313  0.0760  0.1182  0.2230
12523TIP3   OH258983   3.727   0.027   3.218  0.7337  0.0486  0.1217
12523TIP3    H158984   3.807   0.043   3.168 -0.2874  1.5787 -1.0719
12523TIP3    H258985   3.707   0.110   3.260 -0.1909 -0.3385  0.4600
12524TIP3   OH258986   3.633   1.276  13.474 -0.3368  0.2245 -0.0588
12524TIP3    H158987   3.543   1.275  13.505 -0.0842  2.0963  0.8133
12524TIP3    H258988   3.676   1.345  13.526  1.1746  0.4896 -1.5959
12525TIP3   OH258989   5.320   1.123   0.654  0.0727 -0.0415  0.4756
12525TIP3    H158990   5.351   1.078   0.732  0.5476 -0.3274  0.1251
12525TIP3    H258991   5.225   1.124   0.663  0.2126  1.8373  2.1030
12526TIP3   OH258992   3.635   0.526  16.253  0.0763  0.5958 -0.4647
12526TIP3    H158993   3.633   0.455  16.189 -0.3087 -0.5284  0.7625
12526TIP3    H258994   3.685   0.490  16.327  0.4192  1.8261 -0.0846
12527TIP3   OH258995   2.433   2.934  16.574  0.6945 -0.3351 -0.1609
12527TIP3    H158996   2.377   2.994  16.623 -1.7636 -1.5469 -1.4121
12527TIP3    H258997   2.480   2.990  16.513  0.3150  0.6296  0.4180
12528TIP3   OH258998   4.908   2.140  15.598 -0.1193  0.0206  0.4383
12528TIP3    H158999   5.003   2.129  15.597 -0.1749 -0.4498 -0.7566
12528TIP3    H259000   4.894   2.233  15.617  0.5000 -0.4858  3.8085
12529TIP3   OH259001   1.664   2.318  11.203  0.2702 -0.5979  0.3683
12529TIP3    H159002   1.640   2.410  11.210  1.0054 -0.5019  1.7838
12529TIP3    H259003   1.602   2.281  11.140  1.2877  1.3178 -1.8675
12530TIP3   OH259004   4.743   2.187   2.985  0.3011 -0.1213  0.1362
12530TIP3    H159005   4.666   2.132   2.972  0.6874 -0.1487 -2.1724
12530TIP3    H259006   4.817   2.126   2.990  0.6266  0.1161 -1.5569
12531TIP3   OH259007   5.659   4.997  11.917 -0.1194  0.2799  0.4329
12531TIP3    H159008   5.739   5.022  11.963 -0.6790  1.1135  0.9732
12531TIP3    H259009   5.678   5.013  11.825  0.7158 -0.5890  0.4462
12532TIP3   OH259010   3.920   2.107   4.626 -0.4097  0.2688  0.4787
12532TIP3    H159011   3.894   2.066   4.708 -2.2308 -1.5508 -0.9757
12532TIP3    H259012   3.989   2.050   4.591 -0.4232  0.4210  0.2008
12533TIP3   OH259013   0.556   0.584   1.937 -0.5979  0.2419 -0.2343
12533TIP3    H159014   0.516   0.565   2.022 -0.3189  0.3348 -0.0807
12533TIP3    H259015   0.641   0.540   1.940  0.2862  1.9399  0.3325
12534TIP3   OH259016   6.259   1.062  12.597  0.8119 -0.1592  0.3607
12534TIP3    H159017   6.250   1.055  12.502  1.0221  2.7945  0.0550
12534TIP3    H259018   6.174   1.034  12.631  0.4324 -0.3817 -0.7532
12535TIP3   OH259019   4.980   0.735   3.377  0.1411  0.5917  0.4437
12535TIP3    H159020   4.901   0.720   3.324 -0.8225  2.2212  1.3930
12535TIP3    H259021   4.986   0.830   3.386  1.1038  0.4032  2.0470
12536TIP3   OH259022   3.123   6.242  12.163  0.5405 -0.2772 -0.0832
12536TIP3    H159023   3.099   6.159  12.204 -0.8391 -0.0183 -0.3345
12536TIP3    H259024   3.061   6.305  12.198  0.1663  0.2055 -1.5523
12537TIP3   OH259025   1.791   3.663  15.630  0.3608  0.4759  0.1189
12537TIP3    H159026   1.707   3.684  15.671 -0.0063  0.2935 -0.5377
12537TIP3    H259027   1.783   3.696  15.540 -0.0267 -1.9288 -0.7752
12538TIP3   OH259028   0.734   6.725  11.627 -0.2519  0.2888 -0.2323
12538TIP3    H159029   0.689   6.743  11.709  0.8063  1.2044  0.1666
12538TIP3    H259030   0.823   6.700  11.653 -0.3698 -0.9939 -1.0250
12539TIP3   OH259031   3.907   6.234   1.531 -0.1807 -0.1957  0.2140
12539TIP3    H159032   3.923   6.296   1.460 -0.6002  0.5231  0.7369
12539TIP3    H259033   3.962   6.159   1.510 -0.2857  0.0196 -0.8565
12540TIP3   OH259034   6.304   2.298  15.466 -0.3070 -0.1304  0.3014
12540TIP3    H159035   6.377   2.239  15.483  0.3882  0.2501 -1.2859
12540TIP3    H259036   6.235   2.241  15.431  0.3399 -0.0341 -1.1683
12541TIP3   OH259037   5.774   1.451   1.515  0.5205 -1.0448  0.2194
12541TIP3    H159038   5.838   1.418   1.579  0.2664  1.5172  1.8660
12541TIP3    H259039   5.794   1.545   1.508 -2.4792 -0.3695  0.0853
12542TIP3   OH259040   6.619   1.755   0.851  0.3564  0.2352  0.3556
12542TIP3    H159041   6.545   1.817   0.850 -0.7458 -1.0613  0.2397
12542TIP3    H259042   6.679   1.791   0.916 -0.2624  1.4539  0.2676
12543TIP3   OH259043   2.385   2.053   3.977  0.4753  0.1093  0.0584
12543TIP3    H159044   2.480   2.041   3.982  0.8388  2.8049  0.7143
12543TIP3    H259045   2.353   2.020   4.061  0.8379 -0.7654 -0.1412
12544TIP3   OH259046   4.467   5.338  13.648 -0.3300  0.5394  0.4107
12544TIP3    H159047   4.471   5.260  13.702  0.5683  0.5596  0.3810
12544TIP3    H259048   4.545   5.388  13.672 -0.5006  1.0648 -0.1106
12545TIP3   OH259049   5.802   6.013   4.441 -0.1256 -0.3059 -0.0985
12545TIP3    H159050   5.839   5.930   4.472 -0.4925 -0.8780 -1.1820
12545TIP3    H259051   5.850   6.031   4.360 -1.1924 -0.2997 -0.7297
12546TIP3   OH259052   3.671   1.328   3.545 -0.1051 -0.1679 -0.0451
12546TIP3    H159053   3.629   1.411   3.566 -1.4057 -0.4770 -1.3300
12546TIP3    H259054   3.745   1.351   3.489  0.2663  0.2125  0.5970
12547TIP3   OH259055   1.993   3.742   5.706  0.2605 -0.4743 -0.8872
12547TIP3    H159056   1.946   3.819   5.674  0.8625 -0.2917 -1.3293
12547TIP3    H259057   1.935   3.668   5.686 -1.1066  0.0237  1.0790
12548TIP3   OH259058   3.204   3.717  15.619 -0.2761  0.2392 -0.4894
12548TIP3    H159059   3.212   3.723  15.524 -0.0164  1.3700 -0.4054
12548TIP3    H259060   3.280   3.666  15.647  0.0329  0.5087 -0.8310
12549TIP3   OH259061   6.435   3.468  14.288  0.1901 -0.4422  0.4437
12549TIP3    H159062   6.426   3.508  14.202  1.7370 -0.7333  0.1388
12549TIP3    H259063   6.455   3.540  14.347  1.1022 -0.4948  0.2113
12550TIP3   OH259064   4.611   2.125   0.038  0.1308 -0.6309  0.0410
12550TIP3    H159065   4.567   2.042   0.055  1.0999 -0.9662  0.9596
12550TIP3    H259066   4.700   2.100   0.013  0.0193  0.0704 -1.0900
12551TIP3   OH259067   3.984   1.973   0.046 -0.2294  0.1820  0.1531
12551TIP3    H159068   3.987   1.905  -0.022  0.7758  1.0333 -0.6613
12551TIP3    H259069   3.914   2.032   0.018  1.4135  1.5462 -1.1201
12552TIP3   OH259070   5.794   1.680   3.611 -0.8408  0.4058  0.1053
12552TIP3    H159071   5.860   1.611   3.603 -1.5778 -0.4181  0.9543
12552TIP3    H259072   5.771   1.702   3.521  0.1472  0.2679 -0.1871
12553TIP3   OH259073   3.290   4.070   5.141 -0.0715 -0.3155  0.1745
12553TIP3    H159074   3.358   4.136   5.155 -0.5379  0.7084 -2.0946
12553TIP3    H259075   3.211   4.120   5.124 -0.8794 -1.4858  0.4275
12554TIP3   OH259076   0.075   6.477  16.035  0.0118 -0.0811  0.2714
12554TIP3    H159077   0.166   6.462  16.058  0.2886  0.3237 -0.5454
12554TIP3    H259078   0.043   6.391  16.007 -0.3205 -0.5714  2.0942
12555TIP3   OH259079   5.522   5.658   3.603  0.0230 -0.1081  0.6566
12555TIP3    H159080   5.607   5.621   3.577  0.3243  0.2735  1.0872
12555TIP3    H259081   5.504   5.618   3.688 -0.0729  0.0507  0.7117
12556TIP3   OH259082   0.495   6.323  11.077 -0.3335  0.5510  0.6571
12556TIP3    H159083   0.443   6.364  11.008 -1.1061  1.1861  1.6035
12556TIP3    H259084   0.481   6.378  11.154 -1.3724 -1.4356  1.9454
12557TIP3   OH259085   2.560   1.786   0.987  0.6208 -0.0522  0.3015
12557TIP3    H159086   2.498   1.782   0.914  0.3224  0.7021  0.5156
12557TIP3    H259087   2.509   1.757   1.063  1.4957 -2.9553 -0.1348
12558TIP3   OH259088   3.580   5.318   2.334 -0.6366  0.3281  0.6125
12558TIP3    H159089   3.659   5.372   2.343  0.6955 -1.5521  0.5248
12558TIP3    H259090   3.545   5.342   2.248  0.8794 -0.1353 -0.1588
12559TIP3   OH259091   0.042   4.693  14.185 -0.0416  1.1152  0.2743
12559TIP3    H159092   0.099   4.624  14.151  0.7859  1.1427  1.5742
12559TIP3    H259093   0.101   4.764  14.208 -0.8161  1.9633 -0.3024
12560TIP3   OH259094   5.858   6.604   5.538 -0.2055  0.0624 -0.3967
12560TIP3    H159095   5.845   6.576   5.629 -2.0521 -1.3819 -1.0862
12560TIP3    H259096   5.847   6.699   5.540 -0.0087  0.0701  0.9087
12561TIP3   OH259097   6.686   6.776   2.312  0.4524 -0.1354 -0.3962
12561TIP3    H159098   6.779   6.762   2.327  1.0515  3.3396 -0.4319
12561TIP3    H259099   6.681   6.819   2.227 -1.2426 -0.9580 -0.7329
12562TIP3   OH259100   2.144   4.301  14.330 -0.2682 -0.0010  0.1967
12562TIP3    H159101   2.060   4.267  14.361  0.3503 -2.8401 -1.0655
12562TIP3    H259102   2.121   4.372  14.271 -1.7881 -0.7283 -0.1026
12563TIP3   OH259103   4.820   5.737  11.240 -0.1719 -0.0086 -0.6768
12563TIP3    H159104   4.847   5.651  11.272 -0.0854  0.2788  0.0543
12563TIP3    H259105   4.902   5.787  11.235 -0.4670  0.6940  1.0107
12564TIP3   OH259106   2.314   1.416  15.786  0.6475  0.1877  0.1556
12564TIP3    H159107   2.307   1.510  15.771 -1.1558  0.2610  1.3120
12564TIP3    H259108   2.255   1.377  15.721  2.7267 -0.2836 -1.5094
12565TIP3   OH259109   5.318   0.721   3.799 -0.1366 -0.1064  0.1031
12565TIP3    H159110   5.249   0.730   3.733 -0.1311 -0.7352  0.0076
12565TIP3    H259111   5.380   0.659   3.761 -0.7464 -1.4142  1.1975
12566TIP3   OH259112   4.979   5.929  15.647  0.5608  0.4417 -0.1634
12566TIP3    H159113   5.002   5.859  15.708  0.6211  0.1061 -0.5695
12566TIP3    H259114   5.058   5.984  15.643  0.8691 -0.0244 -0.6084
12567TIP3   OH259115   5.166   6.005  16.597  0.2121  0.1905 -0.0586
12567TIP3    H159116   5.103   5.955  16.649 -2.5794  1.1104 -2.4617
12567TIP3    H259117   5.245   5.951  16.597 -1.4126 -2.2703  0.7591
12568TIP3   OH259118   3.635   5.148  15.384  0.1458  0.5912  0.2106
12568TIP3    H159119   3.609   5.227  15.431 -0.2311 -0.4453  1.7763
12568TIP3    H259120   3.559   5.124  15.332  0.0481  0.9167  0.2088
12569TIP3   OH259121   5.829   6.025   5.161  0.4454 -0.1954  0.2632
12569TIP3    H159122   5.867   5.937   5.150 -0.0131 -0.8977  3.8656
12569TIP3    H259123   5.760   6.013   5.226  0.0267  2.7753  0.4169
12570TIP3   OH259124   1.019   4.774  12.206  0.1177 -0.5848 -0.1658
12570TIP3    H159125   1.024   4.693  12.257 -0.8362 -1.6196 -1.6821
12570TIP3    H259126   0.959   4.830  12.255  0.3087 -1.0164  0.5707
12571TIP3   OH259127   1.458   5.018  13.369 -0.1099 -0.2305  0.3340
12571TIP3    H159128   1.503   5.042  13.450  0.8751 -0.9181  0.0112
12571TIP3    H259129   1.473   5.091  13.310 -0.3760  0.0364  0.5963
12572TIP3   OH259130   5.531   6.188   0.718 -0.3442 -0.9936  0.4204
12572TIP3    H159131   5.508   6.135   0.794  0.4802 -0.6041  0.9547
12572TIP3    H259132   5.626   6.202   0.727 -0.6032  0.8683  0.5003
12573TIP3   OH259133   1.381   2.844   2.659 -0.0730 -0.1850  0.4426
12573TIP3    H159134   1.340   2.823   2.576  2.0731  0.2431 -0.7502
12573TIP3    H259135   1.333   2.791   2.723 -1.3507 -0.9621 -1.1085
12574TIP3   OH259136   3.072   0.654   4.013  0.3185  0.3410 -0.1059
12574TIP3    H159137   3.112   0.567   4.017  1.3087  0.7097 -1.4705
12574TIP3    H259138   3.043   0.663   3.922 -1.6022  0.6497  0.5218
12575TIP3   OH259139   1.110   4.053   4.906  0.2415  0.4544 -0.3622
12575TIP3    H159140   1.097   4.105   4.985  0.2168 -0.0271 -0.0477
12575TIP3    H259141   1.179   3.992   4.929 -2.1617 -2.0444  0.4518
12576TIP3   OH259142   1.547   3.401   1.436 -0.2703 -0.3973 -0.0884
12576TIP3    H159143   1.563   3.323   1.382 -0.4062  0.1064 -0.8644
12576TIP3    H259144   1.599   3.470   1.394 -0.7477  0.1127  0.1558
12577TIP3   OH259145   2.912   0.282   2.826  0.2610  0.4424  0.3918
12577TIP3    H159146   2.954   0.202   2.793 -0.9818 -0.0125 -0.1023
12577TIP3    H259147   2.826   0.253   2.857  1.9467  0.4796  5.7078
12578TIP3   OH259148   6.697   6.006   4.451  0.5191 -0.0940  0.5870
12578TIP3    H159149   6.627   6.060   4.413  0.8584 -0.1921 -0.1951
12578TIP3    H259150   6.686   5.921   4.408  1.0720 -0.1292  0.5199
12579TIP3   OH259151   1.162   4.373   4.870 -0.0141  0.2310 -0.0061
12579TIP3    H159152   1.226   4.302   4.871  0.5572  0.7423  0.9417
12579TIP3    H259153   1.096   4.345   4.807  1.0857 -0.3542 -0.9272
12580TIP3   OH259154   6.408   1.887   2.893  0.1763  0.9389 -0.2841
12580TIP3    H159155   6.334   1.902   2.834 -0.4989 -0.4006  0.1897
12580TIP3    H259156   6.405   1.793   2.912  2.7485  0.6366 -1.2080
12581TIP3   OH259157   4.683   2.693   6.743  0.1768 -0.0375 -0.5856
12581TIP3    H159158   4.633   2.762   6.785  1.0377  0.6540 -0.6763
12581TIP3    H259159   4.774   2.723   6.748  0.8228 -2.1986  1.3962
12582TIP3   OH259160   2.811   3.638  11.099  0.2625 -0.1368  0.1455
12582TIP3    H159161   2.747   3.577  11.136  0.0121 -0.4955 -0.8463
12582TIP3    H259162   2.758   3.697  11.045  0.5139  0.9144  1.0279
12583TIP3   OH259163   6.753   4.623   2.259 -0.3924  0.0209 -0.1875
12583TIP3    H159164   6.684   4.569   2.219  0.8005  0.1053 -2.4052
12583TIP3    H259165   6.833   4.598   2.213  0.6159  1.8658  0.5240
12584TIP3   OH259166   6.470   5.029  12.885 -0.0203  0.4870  0.8348
12584TIP3    H159167   6.477   4.972  12.808  0.0862 -0.4660  1.5420
12584TIP3    H259168   6.551   5.014  12.934 -0.2722  0.7705  1.3423
12585TIP3   OH259169   0.212   3.701   1.573 -0.0343  0.4826 -0.2511
12585TIP3    H159170   0.137   3.732   1.521  0.2534 -0.7078 -1.4244
12585TIP3    H259171   0.282   3.762   1.553 -0.1392  0.4598 -0.7001
12586TIP3   OH259172   0.858   1.034   3.617  0.0193  0.1449  0.6680
12586TIP3    H159173   0.861   1.090   3.539  0.9976 -1.4234 -0.4487
12586TIP3    H259174   0.910   1.082   3.682 -0.5201  1.3065  0.2640
12587TIP3   OH259175   4.349   2.495   1.573  0.1844 -0.2722 -0.4115
12587TIP3    H159176   4.401   2.445   1.510 -0.4658 -0.8772 -0.4709
12587TIP3    H259177   4.411   2.521   1.641  0.2506 -2.3752  0.3669
12588TIP3   OH259178   0.714   2.465  14.038  0.1783 -0.2705 -0.2760
12588TIP3    H159179   0.801   2.439  14.007 -0.1998 -0.6971 -1.0035
12588TIP3    H259180   0.687   2.393  14.097  0.1141 -0.3799 -0.4381
12589TIP3   OH259181   6.651   0.551  11.502  0.3862 -0.1313  0.5051
12589TIP3    H159182   6.582   0.616  11.488 -0.9714 -1.5679  0.3590
12589TIP3    H259183   6.714   0.567  11.431 -0.9518 -0.2731 -0.7376
12590TIP3   OH259184   1.948   5.491   2.924 -0.2270  0.5511  0.1848
12590TIP3    H159185   1.913   5.413   2.881 -1.8062  0.8288  0.9089
12590TIP3    H259186   1.904   5.492   3.009  0.3268  1.8349  0.4572
12591TIP3   OH259187   2.916   6.534  13.900 -0.0930  0.1931 -0.2562
12591TIP3    H159188   3.005   6.500  13.897  0.6632  2.1145 -0.5773
12591TIP3    H259189   2.893   6.534  13.993  1.2534  2.1022  0.1167
12592TIP3   OH259190   4.675   5.369  15.061 -0.5279 -0.1726  0.6822
12592TIP3    H159191   4.661   5.463  15.074 -0.8362  0.0221 -1.0082
12592TIP3    H259192   4.639   5.351  14.974  1.4435 -1.4464  0.1044
12593TIP3   OH259193   0.642   6.519  11.460  0.4677 -0.2040 -0.2436
12593TIP3    H159194   0.673   6.601  11.499 -0.3990  0.5542 -1.1046
12593TIP3    H259195   0.718   6.461  11.460  1.0567  0.5603  0.4904
12594TIP3   OH259196   1.540   2.519   1.778  0.1837  0.7917  0.0312
12594TIP3    H159197   1.544   2.464   1.856 -0.0261 -1.4926 -1.5244
12594TIP3    H259198   1.623   2.502   1.732 -2.5450 -3.4390 -3.7836
12595TIP3   OH259199   0.497   6.774  11.063 -0.0670  0.6405  0.3925
12595TIP3    H159200   0.475   6.860  11.100 -3.3113  0.1999 -0.3650
12595TIP3    H259201   0.466   6.779  10.972  2.4875 -0.3240 -0.5877
12596TIP3   OH259202   0.385   6.677  13.673 -0.3507  0.2809  0.2221
12596TIP3    H159203   0.318   6.655  13.738  0.5922 -1.5329  0.6253
12596TIP3    H259204   0.458   6.710  13.725 -0.6271  1.4705 -0.1464
12597TIP3   OH259205   3.135   6.613   0.193  0.0158 -0.4769  0.4876
12597TIP3    H159206   3.105   6.551   0.126 -0.4996 -0.1459  0.4086
12597TIP3    H259207   3.122   6.567   0.276 -2.0128  0.1656  0.5541
12598TIP3   OH259208   3.007   2.183   0.042 -0.5720  0.4746  0.5727
12598TIP3    H159209   2.947   2.251   0.073  0.1249  0.5059  1.9253
12598TIP3    H259210   2.950   2.114   0.007 -1.3170  1.2930  0.1560
12599TIP3   OH259211   5.340   2.443  15.066 -0.2575  0.5828  0.3624
12599TIP3    H159212   5.430   2.413  15.077 -0.6195 -0.3454  0.8689
12599TIP3    H259213   5.316   2.480  15.151 -0.2614  1.0928  0.1424
12600TIP3   OH259214   3.521   3.628  12.661  0.2930 -0.1292 -0.7260
12600TIP3    H159215   3.512   3.536  12.686 -1.6118  0.6260  1.5654
12600TIP3    H259216   3.610   3.652  12.686  0.2295 -0.9046  0.2598
12601TIP3   OH259217   1.241   4.505  15.827  0.0940 -0.9920 -0.8353
12601TIP3    H159218   1.306   4.457  15.879  0.1729 -0.8017 -0.7596
12601TIP3    H259219   1.172   4.441  15.810 -0.5385 -0.7043  0.5729
12602TIP3   OH259220   0.418   4.041  16.423 -0.1432  0.7781  0.0652
12602TIP3    H159221   0.409   3.953  16.386 -0.2520  0.0236  1.8431
12602TIP3    H259222   0.331   4.063  16.456  0.1681  1.0662  0.6942
12603TIP3   OH259223   6.249   5.945  11.676 -0.5052  0.6617  0.1041
12603TIP3    H159224   6.191   5.876  11.645 -0.8113  0.1372  1.7981
12603TIP3    H259225   6.317   5.899  11.724 -0.4200  1.5054  0.7931
12604TIP3   OH259226   2.852   1.621   1.385 -0.3376 -0.0318  0.0096
12604TIP3    H159227   2.911   1.593   1.456  0.7025 -1.2577 -1.3183
12604TIP3    H259228   2.848   1.716   1.394  0.0233 -0.1365  1.5256
12605TIP3   OH259229   3.622   5.244  16.052  0.5023 -0.2646 -0.0072
12605TIP3    H159230   3.544   5.190  16.062 -0.4463  1.0374 -0.1483
12605TIP3    H259231   3.680   5.216  16.123 -1.2451  0.6336  1.8320
12606TIP3   OH259232   4.800   0.332   0.722  0.2450  0.3961 -0.2837
12606TIP3    H159233   4.752   0.284   0.655 -0.2493 -1.1736  1.1536
12606TIP3    H259234   4.773   0.423   0.711 -2.9331 -0.4235  0.3732
12607TIP3   OH259235   6.103   2.687  14.207  0.0300  0.1322 -0.2541
12607TIP3    H159236   6.097   2.642  14.123 -1.8396 -0.4293  0.1563
12607TIP3    H259237   6.077   2.777  14.187 -0.2448  0.0405 -0.3090
12608TIP3   OH259238   3.176   0.182  10.908 -0.9205  0.3091  0.7513
12608TIP3    H159239   3.264   0.198  10.942 -1.1294 -1.5737  2.2344
12608TIP3    H259240   3.190   0.149  10.820 -0.1743  0.5173  0.7867
12609TIP3   OH259241   2.644   5.209  17.092  0.2864 -0.1524 -0.1513
12609TIP3    H159242   2.578   5.203  17.160  0.5135  3.0041  0.4231
12609TIP3    H259243   2.596   5.238  17.014  0.5671 -0.4763 -0.4521
12610TIP3   OH259244   5.788   2.706   3.575  0.0544  0.1499  0.2130
12610TIP3    H159245   5.795   2.765   3.650  0.5115 -0.7858  0.9139
12610TIP3    H259246   5.705   2.730   3.533 -1.0337 -0.4511  1.9736
12611TIP3   OH259247   4.399   6.176  16.044  0.6880 -0.2399 -0.6172
12611TIP3    H159248   4.418   6.218  16.128  0.0180 -2.2404  0.5502
12611TIP3    H259249   4.321   6.123  16.061  3.0071 -4.0081 -1.3836
12612TIP3   OH259250   2.495   4.189  12.975  0.6127 -0.0101 -0.0590
12612TIP3    H159251   2.560   4.133  12.932  0.9719  0.5373 -0.2318
12612TIP3    H259252   2.428   4.128  13.006  0.6562 -0.4771 -0.8470
12613TIP3   OH259253   1.964   2.835  11.849 -0.1380  0.0837 -0.1704
12613TIP3    H159254   1.910   2.882  11.785  0.7800  0.6492 -0.5351
12613TIP3    H259255   2.049   2.827  11.808  0.1177 -0.6334  0.4887
12614TIP3   OH259256   3.435   2.393   4.914 -0.5865  0.1981 -0.1363
12614TIP3    H159257   3.439   2.358   5.003 -0.2235 -0.4679 -0.4039
12614TIP3    H259258   3.504   2.459   4.911 -1.5173  1.2101  0.4847
12615TIP3   OH259259   5.672   0.949  15.190  0.1004  0.1304 -0.2349
12615TIP3    H159260   5.636   0.950  15.278 -1.3322 -0.1810 -0.8047
12615TIP3    H259261   5.695   0.857  15.174 -1.3598 -0.1371 -0.8584
12616TIP3   OH259262   3.482   5.664   5.238 -0.5757  0.0470  0.2302
12616TIP3    H159263   3.488   5.750   5.197 -0.3620  0.2822  0.7511
12616TIP3    H259264   3.571   5.645   5.266 -0.5604 -0.4926 -0.1772
12617TIP3   OH259265   4.462   5.474   4.202 -0.2441 -0.4572  0.1612
12617TIP3    H159266   4.492   5.536   4.269 -1.6334 -0.1222  0.4969
12617TIP3    H259267   4.445   5.393   4.250 -0.9070 -0.3227  0.1511
12618TIP3   OH259268   1.056   4.680  14.338  0.1834  0.4661  0.8203
12618TIP3    H159269   1.107   4.756  14.312  0.7857  0.0081  0.6741
12618TIP3    H259270   0.965   4.711  14.336  0.5027  1.5630  2.0290
12619TIP3   OH259271   1.631   1.073  16.256 -0.4267  0.0931  0.5243
12619TIP3    H159272   1.590   1.157  16.238 -2.3666 -1.1625 -1.1569
12619TIP3    H259273   1.709   1.072  16.201 -1.0767  0.2903 -0.4134
12620TIP3   OH259274   0.273   0.525   0.687 -0.0956 -0.1164  0.8051
12620TIP3    H159275   0.262   0.503   0.595  0.2726  0.9280  0.5012
12620TIP3    H259276   0.194   0.575   0.710 -1.5199 -2.7392  1.8216
12621TIP3   OH259277   5.613   3.865   4.682  0.7193 -0.0440 -0.0208
12621TIP3    H159278   5.642   3.774   4.690  1.1526  0.0676 -0.3176
12621TIP3    H259279   5.517   3.860   4.684  0.7344 -0.5592 -0.6581
12622TIP3   OH259280   1.845   5.380   1.785 -0.2196 -0.0576  0.6456
12622TIP3    H159281   1.902   5.436   1.732  0.2488 -0.4258  0.7607
12622TIP3    H259282   1.773   5.438   1.810 -0.3439  0.1749 -0.2203
12623TIP3   OH259283   5.759   1.165  15.638 -0.3815 -0.1768 -0.1972
12623TIP3    H159284   5.680   1.218  15.639 -0.6822 -0.6256  0.2471
12623TIP3    H259285   5.807   1.194  15.560 -0.8256  0.3183 -0.2858
12624TIP3   OH259286   0.286   5.525   2.564  0.2663 -1.0019  0.5260
12624TIP3    H159287   0.270   5.497   2.474 -0.9628 -1.1678  0.7877
12624TIP3    H259288   0.372   5.567   2.561 -0.8787  1.2820 -1.2438
12625TIP3   OH259289   0.920   4.704   2.582  0.6512 -0.2808  0.1822
12625TIP3    H159290   0.970   4.764   2.637 -0.7054  2.2558 -1.2706
12625TIP3    H259291   0.837   4.691   2.629  0.2017  0.4948 -0.3725
12626TIP3   OH259292   0.463   4.203  15.638 -0.5481  0.3177  0.2444
12626TIP3    H159293   0.553   4.177  15.618 -0.7737 -0.0702 -0.2880
12626TIP3    H259294   0.432   4.244  15.557 -0.8935  0.3363  0.3858
12627TIP3   OH259295   6.191   0.083   3.648  0.0520  0.1186  0.3615
12627TIP3    H159296   6.151   0.042   3.572  0.4430 -0.6394  0.5531
12627TIP3    H259297   6.125   0.075   3.717  0.7892 -1.7481  0.8625
12628TIP3   OH259298   6.055   1.709   4.152  0.2580  0.4031 -0.2970
12628TIP3    H159299   6.111   1.785   4.139 -0.7516  1.3845  0.9184
12628TIP3    H259300   5.983   1.721   4.090 -0.9569  1.5177  1.2782
12629TIP3   OH259301   1.445   1.653   4.768 -0.2093  0.6904 -0.2895
12629TIP3    H159302   1.415   1.562   4.760 -1.3762  0.9727  0.7669
12629TIP3    H259303   1.374   1.705   4.731 -0.1995  1.2634  0.4880
12630TIP3   OH259304   2.072   4.214  14.016  0.5502  0.0646  0.2716
12630TIP3    H159305   2.049   4.161  14.093  0.1665 -1.1901 -0.6836
12630TIP3    H259306   2.018   4.178  13.946  0.9638  1.1461 -0.6062
12631TIP3   OH259307   3.061   6.721   1.220  0.0225  0.1315 -0.3372
12631TIP3    H159308   3.128   6.737   1.153  0.6254  0.9572  0.4409
12631TIP3    H259309   2.979   6.751   1.180  0.6118  2.0179 -0.1778
12632TIP3   OH259310   6.450   5.919  16.789 -0.2260  0.2571  0.2981
12632TIP3    H159311   6.487   5.962  16.712  0.0255  0.8777  0.7692
12632TIP3    H259312   6.503   5.950  16.862 -1.6178  1.1040  0.9715
12633TIP3   OH259313   4.416   5.387  11.425  0.0975 -0.2473  0.0038
12633TIP3    H159314   4.433   5.308  11.374 -0.1390 -0.1559 -0.2188
12633TIP3    H259315   4.503   5.420  11.448  0.2184 -0.0314 -0.7431
12634TIP3   OH259316   3.992   2.990  11.140 -0.1374 -0.4469 -0.3458
12634TIP3    H159317   3.933   2.938  11.194  0.5054 -0.4574  0.3578
12634TIP3    H259318   4.055   2.926  11.105  1.4528 -0.0185  1.5684
12635TIP3   OH259319   1.124   3.147  13.642 -0.6764  0.0144 -0.5869
12635TIP3    H159320   1.205   3.197  13.626 -0.7417  0.7341  1.2579
12635TIP3    H259321   1.128   3.076  13.578  1.2629  0.2319 -0.7508
12636TIP3   OH259322   0.394   2.813  14.569 -0.2736 -0.0121  0.4182
12636TIP3    H159323   0.403   2.748  14.499 -1.5857  1.5878 -1.2900
12636TIP3    H259324   0.473   2.867  14.562 -0.5975  0.4010 -0.1273
12637TIP3   OH259325   6.694   5.218   2.756  0.1245  0.2601 -0.1796
12637TIP3    H159326   6.680   5.304   2.798  1.6798 -0.8740  2.7951
12637TIP3    H259327   6.619   5.165   2.785  1.7955 -0.8724  2.1952
12638TIP3   OH259328   0.244   1.860   5.013 -0.6382 -0.2534 -0.1675
12638TIP3    H159329   0.249   1.774   4.971 -0.9751 -0.5246  0.3483
12638TIP3    H259330   0.288   1.919   4.951  0.1509 -0.8964 -0.2283
12639TIP3   OH259331   1.103   1.566  13.771  0.2790  0.0316 -0.0216
12639TIP3    H159332   1.127   1.636  13.711  0.7206  0.0312  0.1518
12639TIP3    H259333   1.186   1.528  13.798 -0.0026 -1.2487 -0.9226
12640TIP3   OH259334   5.095   3.109  11.682 -0.0734 -0.0957  0.5053
12640TIP3    H159335   5.059   3.028  11.645 -1.7244  0.8153  0.0768
12640TIP3    H259336   5.031   3.176  11.659 -0.2150  0.8290  3.4210
12641TIP3   OH259337   0.040   1.464   1.591 -0.1931  0.0246 -0.3189
12641TIP3    H159338   0.108   1.407   1.556  0.1257  2.3752 -3.6774
12641TIP3    H259339   0.047   1.453   1.686  1.2171 -3.8885 -0.7997
12642TIP3   OH259340   2.868   6.121   0.581  0.4669  0.1045 -0.3727
12642TIP3    H159341   2.933   6.138   0.513 -0.2540  0.7170 -0.9281
12642TIP3    H259342   2.893   6.178   0.654 -0.1631  1.3125 -1.0680
12643TIP3   OH259343   1.800   4.563   2.694 -0.0786  0.6851  0.0615
12643TIP3    H159344   1.883   4.609   2.693  0.4285 -0.2328 -0.2884
12643TIP3    H259345   1.744   4.616   2.750  0.4811  1.7482 -0.3860
12644TIP3   OH259346   5.753   4.267  14.476 -0.0725 -0.1101  0.2386
12644TIP3    H159347   5.774   4.198  14.539  0.1242 -0.3187 -0.0551
12644TIP3    H259348   5.686   4.228  14.420  1.3209 -0.7019 -1.0497
12645TIP3   OH259349   4.612   2.041  12.653  0.5534  0.4638  0.6716
12645TIP3    H159350   4.535   2.013  12.702  0.2537  1.6387  0.8965
12645TIP3    H259351   4.668   2.083  12.718  2.1338 -1.7780  0.8274
12646TIP3   OH259352   2.579   4.657   0.083 -0.2618 -0.0868 -0.3038
12646TIP3    H159353   2.576   4.671  -0.011  0.1197 -1.0624 -0.4753
12646TIP3    H259354   2.491   4.679   0.114 -0.6523 -0.6056 -1.0226
12647TIP3   OH259355   2.928   0.928   2.966  0.2287 -0.4333  0.3037
12647TIP3    H159356   2.996   0.862   2.962  0.7264  0.0244  1.1024
12647TIP3    H259357   2.855   0.885   3.010  0.3587 -0.6115  0.3457
12648TIP3   OH259358   0.132   3.912   1.190 -0.7789  0.5747 -0.1247
12648TIP3    H159359   0.130   3.995   1.141  0.3983  0.8544  0.2989
12648TIP3    H259360   0.171   3.935   1.274 -0.9294 -0.3186  0.1904
12649TIP3   OH259361   4.134   4.377  14.228  0.5878 -0.1427 -0.3306
12649TIP3    H159362   4.178   4.300  14.193  1.3123 -0.0585  0.3713
12649TIP3    H259363   4.041   4.361  14.213  0.8969  0.1318 -2.7543
12650TIP3   OH259364   4.869   4.550  14.761 -0.4075 -0.3533  0.1145
12650TIP3    H159365   4.820   4.628  14.788 -0.3906 -0.5645  0.7676
12650TIP3    H259366   4.930   4.582  14.695 -1.4797 -0.1087 -0.7601
12651TIP3   OH259367   4.004   0.151  16.805  0.4432 -0.3752 -0.6922
12651TIP3    H159368   3.936   0.084  16.799  2.9266 -3.0630  0.0278
12651TIP3    H259369   4.052   0.144  16.722  0.5311  0.7514 -0.7471
12652TIP3   OH259370   2.352   6.340  12.233 -0.3724 -0.3837  0.1417
12652TIP3    H159371   2.423   6.404  12.235 -1.7320  1.1119  1.2524
12652TIP3    H259372   2.319   6.343  12.143 -0.7496  0.8156  0.3205
12653TIP3   OH259373   6.716   6.071   3.605 -0.5429 -0.1820 -0.0766
12653TIP3    H159374   6.768   6.088   3.527 -0.9177  1.7683  0.0687
12653TIP3    H259375   6.658   5.999   3.580 -0.0570 -0.1522 -1.3269
12654TIP3   OH259376   0.176   4.006  15.805 -0.0628 -0.0085 -0.7337
12654TIP3    H159377   0.208   4.007  15.895  0.1130  0.4734 -0.7993
12654TIP3    H259378   0.252   3.981  15.753 -0.1909 -0.3874 -0.7391
12655TIP3   OH259379   1.385   6.370  15.641 -0.6602  0.1677  0.4759
12655TIP3    H159380   1.376   6.314  15.564  0.3630 -0.4392  0.7965
12655TIP3    H259381   1.398   6.458  15.605  0.4352 -0.2056 -0.0574
12656TIP3   OH259382   3.364   1.036   4.005  0.1109 -1.1752  0.4084
12656TIP3    H159383   3.353   0.963   4.066 -0.1578 -1.7055 -0.2739
12656TIP3    H259384   3.457   1.059   4.011  0.2121 -1.6292  0.5596
12657TIP3   OH259385   1.513   6.187   4.822  0.0340  0.0689  0.0197
12657TIP3    H159386   1.514   6.091   4.824 -0.4674  0.0779  1.0516
12657TIP3    H259387   1.549   6.210   4.736  0.6400 -1.0354 -0.0298
12658TIP3   OH259388   2.360   3.947   6.888  0.0961  0.6233 -0.2391
12658TIP3    H159389   2.348   3.906   6.802 -0.7850 -0.3481  0.3317
12658TIP3    H259390   2.442   3.996   6.881  1.4944 -1.7652 -0.7379
12659TIP3   OH259391   4.830   1.457  12.608  0.1303  0.1176  0.0133
12659TIP3    H159392   4.792   1.545  12.610  0.8164  0.4004  0.6653
12659TIP3    H259393   4.912   1.465  12.656  0.2233 -0.8733  0.0253
12660TIP3   OH259394   5.534   1.350   2.860 -0.2193 -0.0864  0.2025
12660TIP3    H159395   5.553   1.432   2.815  1.5373 -1.1005 -0.9881
12660TIP3    H259396   5.442   1.332   2.840 -0.2151  0.8737 -0.7025
12661TIP3   OH259397   4.397   0.433   1.714  0.2158 -0.1394  0.4604
12661TIP3    H159398   4.367   0.357   1.764  2.4875 -0.7550  0.9265
12661TIP3    H259399   4.380   0.409   1.623  1.7077 -1.6029  0.5373
12662TIP3   OH259400   1.136   2.630   1.235  0.4102  0.1736  0.4248
12662TIP3    H159401   1.178   2.544   1.240  0.4328  0.1518 -0.1099
12662TIP3    H259402   1.061   2.624   1.295 -0.5089 -0.7382 -0.8027
12663TIP3   OH259403   5.628   2.875  14.227 -0.1273 -0.5122 -0.4793
12663TIP3    H159404   5.698   2.838  14.173  2.0871  0.2261  1.8232
12663TIP3    H259405   5.580   2.799  14.260 -0.3104 -1.0275 -1.8966
12664TIP3   OH259406   1.770   2.142   0.634  0.0602 -0.0719 -0.0824
12664TIP3    H159407   1.703   2.091   0.679 -0.2173 -0.7864 -1.2598
12664TIP3    H259408   1.736   2.232   0.632 -1.9050 -0.8032 -2.5240
12665TIP3   OH259409   0.739   2.696   5.833 -0.4127  0.4760  0.0280
12665TIP3    H159410   0.752   2.788   5.857  2.1152 -0.5315  3.0045
12665TIP3    H259411   0.827   2.665   5.811 -0.5717 -2.1107  2.7303
12666TIP3   OH259412   2.046   4.521   3.683 -0.0930 -0.0926  0.3227
12666TIP3    H159413   2.070   4.496   3.594 -1.1776  2.3800 -0.7193
12666TIP3    H259414   2.116   4.581   3.710 -0.3517  0.0223  0.7298
12667TIP3   OH259415   3.040   0.094  15.419  0.0476  0.5313  0.2098
12667TIP3    H159416   2.967   0.129  15.369  0.5432  1.4932  0.1493
12667TIP3    H259417   3.004   0.074  15.505 -0.2536  1.1293  0.2207
12668TIP3   OH259418   6.503   0.955   5.319  0.0736 -0.2422  0.1886
12668TIP3    H159419   6.493   0.925   5.410  1.0434 -2.4856 -0.4066
12668TIP3    H259420   6.547   0.883   5.275  2.3974  2.0332 -1.3797
12669TIP3   OH259421   3.846   5.614   4.722  0.1783  0.1471  0.0686
12669TIP3    H159422   3.804   5.700   4.720  0.6710  0.5632  4.0807
12669TIP3    H259423   3.938   5.631   4.705 -0.2181 -0.0205 -2.4031
12670TIP3   OH259424   2.484   4.209   6.671 -0.3191  0.5332 -0.5883
12670TIP3    H159425   2.527   4.139   6.621  0.2185 -1.4400  2.4931
12670TIP3    H259426   2.400   4.171   6.696  0.1464  0.8329  1.4453
12671TIP3   OH259427   2.645   4.144  14.364 -0.1535 -0.1382  1.0469
12671TIP3    H159428   2.554   4.123  14.348 -0.5530  1.5763  0.9060
12671TIP3    H259429   2.642   4.217  14.427  0.9491  2.4220 -1.7165
12672TIP3   OH259430   0.064   1.883   2.473  0.1452 -0.3948  0.3604
12672TIP3    H159431   0.001   1.937   2.520 -1.7324 -1.4030 -0.9660
12672TIP3    H259432   0.012   1.811   2.436  2.0203 -1.1184 -0.9496
12673TIP3   OH259433   1.127   4.109  11.559  0.1616  0.2313  0.2999
12673TIP3    H159434   1.062   4.180  11.558 -1.0094 -0.8136 -2.2519
12673TIP3    H259435   1.107   4.059  11.638 -1.6484  0.3997 -0.0190
12674TIP3   OH259436   4.614   4.790  11.678 -0.4618  0.0210 -0.0085
12674TIP3    H159437   4.683   4.849  11.648  0.2036 -0.4835  0.5150
12674TIP3    H259438   4.536   4.816  11.628 -0.3529  1.8043  0.7190
12675TIP3   OH259439   4.399   0.357   3.600 -0.5784 -0.0667 -0.0291
12675TIP3    H159440   4.452   0.278   3.612 -1.1991 -0.4535  0.2158
12675TIP3    H259441   4.384   0.390   3.689 -1.0116 -0.1415 -0.0699
12676TIP3   OH259442   5.735   5.071  16.683 -0.3263  0.4191 -0.1020
12676TIP3    H159443   5.648   5.087  16.718  0.0343 -1.3092  1.6715
12676TIP3    H259444   5.764   5.156  16.649 -2.8532  0.9051 -1.1306
12677TIP3   OH259445   4.092   4.163  13.800  0.2546  0.3411 -0.1334
12677TIP3    H159446   4.019   4.111  13.832  0.5535  0.4051  0.6707
12677TIP3    H259447   4.083   4.248  13.844  0.6323  0.4530 -0.2665
12678TIP3   OH259448   0.898   1.620   1.837  0.5064 -0.0869 -0.1137
12678TIP3    H159449   0.824   1.594   1.782  0.5958 -0.6234  0.0176
12678TIP3    H259450   0.857   1.652   1.918  0.3976  0.2150 -0.2850
12679TIP3   OH259451   2.507   5.317   5.861 -0.1286  0.1218 -0.9318
12679TIP3    H159452   2.528   5.253   5.929 -0.2723 -0.9047 -1.8385
12679TIP3    H259453   2.417   5.343   5.878  1.1585  3.1163  1.8375
12680TIP3   OH259454   5.890   4.867   3.301  0.0427  0.5039 -0.0794
12680TIP3    H159455   5.813   4.922   3.293  0.6444  1.2093 -1.1588
12680TIP3    H259456   5.961   4.927   3.324  0.3125 -0.1022  0.7108
12681TIP3   OH259457   5.323   1.192  13.289  0.4358  0.2569  0.0769
12681TIP3    H159458   5.415   1.166  13.279  0.1517 -1.5334  1.8093
12681TIP3    H259459   5.280   1.157  13.211  1.1841  0.9893 -0.6795
12682TIP3   OH259460   0.993   5.834   2.724  0.3080 -1.1239  0.2393
12682TIP3    H159461   1.031   5.904   2.671 -0.3798 -0.6795  0.3183
12682TIP3    H259462   0.940   5.880   2.789 -1.0315 -1.7399 -0.3894
12683TIP3   OH259463   1.537   2.809  15.804  0.1174 -0.4456  0.0587
12683TIP3    H159464   1.557   2.801  15.711  1.3347 -0.1987  0.2838
12683TIP3    H259465   1.584   2.735  15.845  1.5794  0.8333  0.7474
12684TIP3   OH259466   0.210   3.409  13.707 -0.0127 -0.4225  0.0434
12684TIP3    H159467   0.289   3.357  13.719  0.0732 -0.3523 -0.2144
12684TIP3    H259468   0.138   3.350  13.731  0.1861 -0.1099  1.4104
12685TIP3   OH259469   5.563   4.734  12.300  0.4934 -0.5525 -0.1035
12685TIP3    H159470   5.551   4.657  12.355  1.3869 -0.0310  0.8462
12685TIP3    H259471   5.476   4.751  12.263 -0.4089 -0.2497  2.0433
12686TIP3   OH259472   0.376   1.163   5.640 -0.8148 -0.8294 -0.1287
12686TIP3    H159473   0.421   1.242   5.669 -2.6509 -0.0993  0.7826
12686TIP3    H259474   0.349   1.182   5.550 -0.7204 -0.6703 -0.1239
12687TIP3   OH259475   0.917   5.483   3.042 -0.3433 -0.1421  0.9374
12687TIP3    H159476   0.961   5.531   2.972  2.7479 -1.0143  2.2187
12687TIP3    H259477   0.904   5.548   3.111 -1.9676  0.3371  0.2073
12688TIP3   OH259478   0.931   4.348  11.546  0.3555 -0.1280 -0.1212
12688TIP3    H159479   0.858   4.403  11.575 -0.0834 -1.3986  1.2088
12688TIP3    H259480   1.001   4.411  11.524 -0.6973  1.0297 -0.2073
12689TIP3   OH259481   2.049   3.407   4.687 -0.0153 -0.2440  0.1159
12689TIP3    H159482   2.012   3.491   4.716 -0.8577 -0.2248 -0.9597
12689TIP3    H259483   2.021   3.344   4.753  0.0101  0.1875  0.5446
12690TIP3   OH259484   5.459   6.161  11.754  0.3809  0.4985  0.2762
12690TIP3    H159485   5.532   6.196  11.804 -1.3154  1.0948  2.3957
12690TIP3    H259486   5.382   6.180  11.807 -1.1787 -1.3560 -1.2527
12691TIP3   OH259487   0.998   0.411   5.145 -0.1099  0.1471  0.4862
12691TIP3    H159488   0.976   0.415   5.237  0.5311 -1.2451  0.7273
12691TIP3    H259489   1.013   0.318   5.128  0.0405  0.4122 -0.9517
12692TIP3   OH259490   2.697   2.697   6.172  0.1501 -0.1130 -0.4220
12692TIP3    H159491   2.604   2.704   6.195  0.2600 -1.1790  0.3718
12692TIP3    H259492   2.717   2.780   6.127 -0.8612  0.6577  0.5330
12693TIP3   OH259493   6.274   4.241   3.705  0.1423  0.1113  0.0756
12693TIP3    H159494   6.192   4.236   3.754 -0.2329 -1.8600 -0.7250
12693TIP3    H259495   6.342   4.245   3.773 -0.4961 -0.4734  0.7581
12694TIP3   OH259496   5.942   0.357  12.267 -0.8279  0.0084 -0.5161
12694TIP3    H159497   6.011   0.411  12.305  1.4638 -2.2362 -1.3271
12694TIP3    H259498   5.868   0.365  12.327  0.3912  1.8532  0.7752
12695TIP3   OH259499   6.424   0.460   1.314 -0.1242  0.0955  0.7440
12695TIP3    H159500   6.476   0.485   1.391  0.9444 -0.4031  0.1933
12695TIP3    H259501   6.484   0.410   1.260 -1.6581 -1.9211  0.8620
12696TIP3   OH259502   0.306   5.791  14.554  0.3308 -0.2554 -0.3025
12696TIP3    H159503   0.283   5.738  14.478 -0.0360  0.9237 -1.0286
12696TIP3    H259504   0.401   5.787  14.558  0.3274 -0.6435 -0.5868
12697TIP3   OH259505   6.389   2.114  15.222  0.2791 -0.3691 -0.3308
12697TIP3    H159506   6.345   2.051  15.278  0.1574 -0.0476 -0.0611
12697TIP3    H259507   6.470   2.070  15.194  0.0492 -0.7516 -0.3862
12698TIP3   OH259508   0.761   2.535  16.680  0.1468 -0.1581  0.2269
12698TIP3    H159509   0.747   2.612  16.625  1.0186  0.2535  0.5659
12698TIP3    H259510   0.673   2.510  16.708 -0.0516  1.4627  1.1276
12699TIP3   OH259511   3.835   1.479   5.354  0.4220 -0.3187  0.4203
12699TIP3    H159512   3.927   1.480   5.380  0.6287 -1.4789 -0.2260
12699TIP3    H259513   3.791   1.536   5.417  1.2346 -1.4310  1.9980
12700TIP3   OH259514   1.772   2.754  14.419  0.9707  0.3983  0.0323
12700TIP3    H159515   1.853   2.794  14.387  0.8243 -0.4428 -1.4227
12700TIP3    H259516   1.799   2.706  14.497  1.9468 -0.1799 -0.6516
12701TIP3   OH259517   6.344   6.605   2.632  0.2944 -0.5763 -0.2783
12701TIP3    H159518   6.336   6.646   2.718 -1.6396  0.4231 -0.9129
12701TIP3    H259519   6.328   6.511   2.648 -3.2792  0.0033  0.0325
12702TIP3   OH259520   0.511   1.335   6.033 -0.4743  0.3674  0.1401
12702TIP3    H159521   0.515   1.276   6.108  0.1125  0.4713  0.1914
12702TIP3    H259522   0.420   1.365   6.031 -1.4543 -2.5370 -1.4573
12703TIP3   OH259523   4.886   1.648   5.723  1.2497 -0.3427  0.6672
12703TIP3    H159524   4.871   1.632   5.630  0.9931 -1.9608  0.9765
12703TIP3    H259525   4.800   1.669   5.758  1.5437  1.5042  0.3120
12704TIP3   OH259526   4.826   4.897   4.523 -0.3262 -0.1021 -0.8784
12704TIP3    H159527   4.850   4.921   4.433  0.5955 -1.1057 -0.9060
12704TIP3    H259528   4.819   4.981   4.569  1.8765  0.2978 -1.2080
12705TIP3   OH259529   2.955   5.379   0.097 -0.0343  0.7581  0.0491
12705TIP3    H159530   3.007   5.356   0.174 -1.0504  1.2808  0.9119
12705TIP3    H259531   2.968   5.473   0.087 -0.0838  0.7277 -0.2828
12706TIP3   OH259532   5.019   1.081  16.271 -0.1392  0.2938 -0.0426
12706TIP3    H159533   4.991   1.018  16.205  0.8595 -2.5353  2.1544
12706TIP3    H259534   5.112   1.094  16.253 -0.3558  1.2076 -0.5259
12707TIP3   OH259535   1.730   3.088   1.485  0.7048  0.4854 -0.2757
12707TIP3    H159536   1.784   3.076   1.563  0.6372 -0.0985 -0.3118
12707TIP3    H259537   1.789   3.124   1.419  0.8236  0.7345 -0.0334
12708TIP3   OH259538   3.505   0.878   3.744 -0.0339 -0.1694 -0.6935
12708TIP3    H159539   3.495   0.813   3.814  0.5261  0.0390 -0.4234
12708TIP3    H259540   3.537   0.827   3.670  0.2452 -0.2310 -0.5322
12709TIP3   OH259541   0.458   2.887  16.415  0.4953 -0.2550  0.2944
12709TIP3    H159542   0.462   2.802  16.370 -0.7906  1.2457 -2.8406
12709TIP3    H259543   0.504   2.947  16.356 -1.5723  1.8796  0.8026
12710TIP3   OH259544   0.833   6.155  11.958  0.1504 -0.1369 -0.0637
12710TIP3    H159545   0.893   6.118  12.024 -0.0945 -0.6502 -0.1287
12710TIP3    H259546   0.863   6.245  11.947 -0.3797  0.2326  1.4222
12711TIP3   OH259547   6.709   1.376   0.219 -0.0613  0.3008 -0.0112
12711TIP3    H159548   6.693   1.373   0.314 -0.1351 -0.3819 -0.0471
12711TIP3    H259549   6.804   1.385   0.212 -0.1392  1.2999  0.1427
12712TIP3   OH259550   3.839   4.423  14.155  0.5584 -0.4006 -0.0880
12712TIP3    H159551   3.762   4.439  14.209 -0.6605 -2.0130 -1.2650
12712TIP3    H259552   3.803   4.396  14.070  2.4215 -0.1327 -0.9866
12713TIP3   OH259553   0.194   5.957   5.156 -0.2193 -0.2754 -0.0344
12713TIP3    H159554   0.289   5.964   5.163 -0.1228  0.8854 -2.1308
12713TIP3    H259555   0.180   5.895   5.084 -1.0256  0.1464 -0.2463
12714TIP3   OH259556   4.182   6.407  12.749  0.4929 -0.0171  0.2443
12714TIP3    H159557   4.237   6.434  12.822 -0.2255 -0.1241  0.8390
12714TIP3    H259558   4.217   6.322  12.723  0.8039  0.0608  0.4083
12715TIP3   OH259559   3.928   1.691   1.908 -0.0137  0.3936  0.3064
12715TIP3    H159560   3.881   1.766   1.943 -0.2177 -0.3829  1.7578
12715TIP3    H259561   3.991   1.728   1.847 -1.6995  1.5362 -0.7662
12716TIP3   OH259562   1.133   0.242   0.292 -0.4509 -0.6209 -0.3245
12716TIP3    H159563   1.117   0.229   0.199  1.9793  2.3085 -1.2115
12716TIP3    H259564   1.085   0.321   0.315  1.6302  0.5555  0.1044
12717TIP3   OH259565   5.928   6.039  13.597  0.1398  0.2236  0.4344
12717TIP3    H159566   5.894   6.083  13.674 -1.5225 -0.2874  0.0023
12717TIP3    H259567   5.932   6.107  13.530 -1.1359  0.0372  0.1581
12718TIP3   OH259568   0.755   5.943   4.023 -0.5760  0.1348  0.1521
12718TIP3    H159569   0.710   5.868   4.063  0.8104 -0.2027  1.1276
12718TIP3    H259570   0.833   5.955   4.078 -1.2633  2.8763  0.5744
12719TIP3   OH259571   3.748   5.378  13.239  0.0341  0.0229  0.2672
12719TIP3    H159572   3.730   5.462  13.280 -0.1336 -0.0460  0.3365
12719TIP3    H259573   3.809   5.334  13.298  0.3272  0.2021  0.1006
12720TIP3   OH259574   5.662   2.682   3.247  0.1223  0.2976 -0.8084
12720TIP3    H159575   5.574   2.648   3.263  0.9461 -1.2868  0.5850
12720TIP3    H259576   5.698   2.625   3.180  0.5435  0.0947 -0.4173
12721TIP3   OH259577   1.534   4.816  14.647  0.0883 -0.7712 -0.2089
12721TIP3    H159578   1.581   4.791  14.567  1.5909 -1.6589  0.9160
12721TIP3    H259579   1.592   4.788  14.718 -0.9799  0.4897  1.1865
12722TIP3   OH259580   0.427   0.114   5.318  0.1802  0.3004  0.1783
12722TIP3    H159581   0.333   0.118   5.332  0.0726  0.9896 -0.6930
12722TIP3    H259582   0.442   0.028   5.277  0.1048 -0.3512  1.4756
12723TIP3   OH259583   2.591   3.423  13.457 -0.0121  0.1102 -0.5659
12723TIP3    H159584   2.637   3.344  13.430  1.2115  0.4457  0.4833
12723TIP3    H259585   2.613   3.488  13.390  0.5382  0.0998 -0.3932
12724TIP3   OH259586   5.260   3.107  16.727  0.4331 -0.0052  0.7597
12724TIP3    H159587   5.244   3.201  16.733  0.0302 -0.1180  1.6038
12724TIP3    H259588   5.275   3.091  16.634 -3.5750  0.2836 -0.0512
12725TIP3   OH259589   4.740   3.002   1.789  0.3701 -0.3124  0.0916
12725TIP3    H159590   4.686   2.923   1.789 -1.0803  0.6277  1.4794
12725TIP3    H259591   4.823   2.975   1.827 -0.4513 -0.9713  1.4547
12726TIP3   OH259592   2.568   4.199  12.551 -0.5832  0.3961  0.2798
12726TIP3    H159593   2.604   4.114  12.576 -0.4097 -0.1628 -1.7805
12726TIP3    H259594   2.474   4.191  12.568 -0.4997 -0.0252  0.5458
12727TIP3   OH259595   0.176   6.279   3.613 -0.2215  0.0902  0.2368
12727TIP3    H159596   0.210   6.196   3.579  0.5142  0.4105  0.1773
12727TIP3    H259597   0.164   6.334   3.535 -0.8531 -0.0056  0.2599
12728TIP3   OH259598   0.047   6.462   6.045  0.3849  0.1077  0.3489
12728TIP3    H159599   0.052   6.548   6.003 -0.0747  0.5353  1.1543
12728TIP3    H259600   0.109   6.408   5.997  0.3199  0.7594 -0.4755
12729TIP3   OH259601   6.732   1.257  12.951  0.0019 -0.3098  0.0756
12729TIP3    H159602   6.752   1.173  12.992 -1.4703 -0.8342 -0.2564
12729TIP3    H259603   6.769   1.250  12.863 -0.9676 -1.0024 -0.2919
12730TIP3   OH259604   3.926   3.041   1.450 -0.2641  0.4790  0.0505
12730TIP3    H159605   3.879   3.122   1.431  1.0472  1.1126 -0.6324
12730TIP3    H259606   3.862   2.985   1.493 -1.3324  1.6922  0.0754
12731TIP3   OH259607   4.863   3.130  15.920  0.6464  0.1928  0.2015
12731TIP3    H159608   4.944   3.127  15.868  0.1184  2.4509 -0.7855
12731TIP3    H259609   4.856   3.220  15.949 -1.2111 -0.1257  0.8222
12732TIP3   OH259610   3.728   0.273  13.777  0.4430 -0.1529  0.8482
12732TIP3    H159611   3.753   0.193  13.824 -0.2495 -0.0027  1.4969
12732TIP3    H259612   3.656   0.246  13.720  1.3148 -0.3424 -0.1532
12733TIP3   OH259613   2.581   2.385   1.242 -0.4114 -0.3890  0.1798
12733TIP3    H159614   2.663   2.434   1.241 -0.7917  0.2940  1.1380
12733TIP3    H259615   2.522   2.435   1.184 -0.0069 -1.1529 -0.9038
12734TIP3   OH259616   5.652   6.411  12.828 -0.1660 -0.6414 -0.1893
12734TIP3    H159617   5.672   6.386  12.738  0.8732 -1.7950  0.3441
12734TIP3    H259618   5.666   6.505  12.831  0.0104 -0.6322 -1.1741
12735TIP3   OH259619   6.161   2.776  13.873  0.1013 -0.6989  0.5070
12735TIP3    H159620   6.118   2.813  13.796  0.7430  1.0163  0.9726
12735TIP3    H259621   6.127   2.826  13.946  1.3650 -0.6864  1.0932
12736TIP3   OH259622   3.144   6.489   5.511  0.1348  0.1598  0.8219
12736TIP3    H159623   3.088   6.414   5.491  0.4248  0.0921  0.2479
12736TIP3    H259624   3.216   6.453   5.563 -0.2645  0.2188  1.4213
12737TIP3   OH259625   2.422   4.077  15.250  0.1852  0.2230 -0.0350
12737TIP3    H159626   2.397   4.090  15.341  0.4234  0.8159 -0.0526
12737TIP3    H259627   2.341   4.091  15.201 -0.0639 -0.6178  0.1175
12738TIP3   OH259628   4.546   3.281  16.304 -0.6863  0.3609  0.2127
12738TIP3    H159629   4.575   3.199  16.345 -1.8602 -0.6907 -0.9700
12738TIP3    H259630   4.599   3.349  16.344  2.4749 -1.3185 -0.9190
12739TIP3   OH259631   4.510   5.150   4.012  0.1668 -0.3653  0.2012
12739TIP3    H159632   4.511   5.212   3.939 -0.4612 -0.4336  0.1317
12739TIP3    H259633   4.536   5.067   3.973  3.2269  0.3085  0.7276
12740TIP3   OH259634   2.309   3.628  13.280 -0.4462  0.4693  0.2569
12740TIP3    H159635   2.354   3.668  13.354 -0.3501  1.3057 -0.2538
12740TIP3    H259636   2.232   3.684  13.266 -0.5516  0.2194 -0.1740
12741TIP3   OH259637   1.946   6.679   1.982 -0.7879 -0.6457 -0.1393
12741TIP3    H159638   1.863   6.657   1.941 -0.1532 -4.4598  0.4801
12741TIP3    H259639   1.922   6.709   2.070 -1.5535 -0.7598 -0.3074
12742TIP3   OH259640   2.196   4.569   6.251  0.1910 -0.4086  0.5703
12742TIP3    H159641   2.243   4.518   6.318  0.3473  0.8704  1.4624
12742TIP3    H259642   2.118   4.600   6.296  0.8179  1.3353  0.4883
12743TIP3   OH259643   4.260   0.129   1.510  0.0586 -0.2621  0.6895
12743TIP3    H159644   4.333   0.182   1.478 -0.4372  1.5468  2.4614
12743TIP3    H259645   4.190   0.143   1.446  0.8218 -1.0126 -0.3385
12744TIP3   OH259646   1.595   3.930  13.564 -0.0149  0.5298  0.7255
12744TIP3    H159647   1.683   3.914  13.528  0.5005 -0.2876  2.2963
12744TIP3    H259648   1.603   4.016  13.606  0.0640  0.4203  0.9368
12745TIP3   OH259649   4.088   5.091  16.798 -0.5965  0.7676 -0.1751
12745TIP3    H159650   4.161   5.152  16.797 -0.4654  0.6184  0.3552
12745TIP3    H259651   4.083   5.059  16.708  0.5269  0.1419 -0.0302
12746TIP3   OH259652   0.543   2.741   4.421 -0.4114  0.8036  0.3532
12746TIP3    H159653   0.621   2.727   4.367 -0.6675  0.2491  0.1340
12746TIP3    H259654   0.571   2.716   4.509 -0.3991  0.4286  0.2424
12747TIP3   OH259655   4.933   6.378   0.947  0.1542 -0.0337  0.4524
12747TIP3    H159656   4.933   6.473   0.962 -0.5410  0.2734 -1.2824
12747TIP3    H259657   4.967   6.340   1.028  1.7848  1.7901  0.6530
12748TIP3   OH259658   0.139   5.048  12.343  0.0755  0.6464 -0.2574
12748TIP3    H159659   0.172   5.117  12.285  0.0769  1.8581  1.1570
12748TIP3    H259660   0.198   4.974  12.330  0.9757  1.4420 -0.6608
12749TIP3   OH259661   2.689   1.424  11.574  0.6036 -0.0412 -0.6358
12749TIP3    H159662   2.673   1.332  11.595  0.5512  0.0423 -0.3092
12749TIP3    H259663   2.746   1.456  11.644  0.2529  0.2949 -0.5017
12750TIP3   OH259664   1.478   2.300  11.979 -0.3436  0.1742  0.9335
12750TIP3    H159665   1.408   2.255  11.933 -0.1997 -0.2760  1.1409
12750TIP3    H259666   1.434   2.369  12.029 -0.5410  0.4100  0.4260
12751TIP3   OH259667   3.802   3.103   2.221  0.2590 -0.4591 -0.4919
12751TIP3    H159668   3.803   3.172   2.287  1.4438  0.7916 -1.7924
12751TIP3    H259669   3.870   3.042   2.250  1.1220  0.3384 -0.8032
12752TIP3   OH259670   3.359   1.815  15.437 -1.1073 -0.2179 -0.3035
12752TIP3    H159671   3.349   1.724  15.465 -1.3549 -0.7910 -2.2028
12752TIP3    H259672   3.331   1.867  15.513 -2.7563 -1.7204  0.1289
12753TIP3   OH259673   6.345   2.000  12.933 -0.1042  0.2781  0.4815
12753TIP3    H159674   6.400   1.985  13.010  0.1748  0.2808  0.2872
12753TIP3    H259675   6.265   2.039  12.967  0.0800  0.4224  0.7513
12754TIP3   OH259676   5.994   5.262  15.473  0.2183 -0.0921  0.1230
12754TIP3    H159677   5.934   5.199  15.433  1.7167 -1.0143 -0.6970
12754TIP3    H259678   5.937   5.321  15.523 -1.4318 -0.4952 -1.2557
12755TIP3   OH259679   3.738   2.769   6.295  1.0322  0.5928 -0.0634
12755TIP3    H159680   3.756   2.684   6.334  1.3449  0.6806 -0.0113
12755TIP3    H259681   3.820   2.794   6.252  0.9191  0.8311 -0.1442
12756TIP3   OH259682   5.237   5.686  13.017 -0.0952  0.1924 -0.1732
12756TIP3    H159683   5.329   5.710  13.008  0.2165 -0.4256  1.1320
12756TIP3    H259684   5.213   5.645  12.934  0.9167  0.0131 -0.3710
12757TIP3   OH259685   1.415   0.627  14.591  0.2664  0.0339 -0.4300
12757TIP3    H159686   1.329   0.609  14.628  0.7252 -0.1236  0.5804
12757TIP3    H259687   1.443   0.544  14.552  0.5167 -0.2782  0.3983
12758TIP3   OH259688   0.225   3.596  13.470 -0.1656  0.1603 -0.0934
12758TIP3    H159689   0.183   3.555  13.546 -0.1651 -1.1877 -0.8150
12758TIP3    H259690   0.182   3.557  13.395  0.0043  1.3231 -0.8025
12759TIP3   OH259691   0.308   6.513  16.224  0.0941  0.4588  0.9638
12759TIP3    H159692   0.282   6.604  16.219 -1.7236 -0.0969  0.0596
12759TIP3    H259693   0.368   6.501  16.149 -0.1781  0.7400  0.7006
12760TIP3   OH259694   2.371   0.019  14.964  0.0451  0.2068 -0.5135
12760TIP3    H159695   2.452   0.038  15.012  0.3074  0.6614 -1.1347
12760TIP3    H259696   2.348  -0.070  14.991  1.3512 -0.3419 -1.1759
12761TIP3   OH259697   4.389   2.636   5.631 -0.2790  0.7305 -0.0053
12761TIP3    H159698   4.333   2.638   5.554 -1.4013 -2.1427  0.6397
12761TIP3    H259699   4.341   2.685   5.697 -1.3060 -0.3190  0.0508
12762TIP3   OH259700   0.218   2.473   3.327  0.7200  0.3803  0.3547
12762TIP3    H159701   0.128   2.489   3.356  1.7063  2.0198  2.6034
12762TIP3    H259702   0.244   2.554   3.284  0.3033 -0.9856 -2.6449
12763TIP3   OH259703   0.051   2.562  16.842 -0.4315  0.4698 -0.1220
12763TIP3    H159704   0.141   2.591  16.832 -0.2183 -0.0489  0.3167
12763TIP3    H259705   0.034   2.510  16.763  0.5454 -1.7592  1.1082
12764TIP3   OH259706   4.624   2.504   1.476 -0.0005  0.3517 -0.3806
12764TIP3    H159707   4.626   2.492   1.381 -0.1782  2.8345 -0.7320
12764TIP3    H259708   4.708   2.470   1.506 -0.5813 -1.9206 -1.2098
12765TIP3   OH259709   3.860   6.185   3.127 -0.7479  0.1774  0.0256
12765TIP3    H159710   3.770   6.165   3.100 -0.8816 -0.9084  1.2096
12765TIP3    H259711   3.888   6.107   3.174  1.0582  0.2661 -0.8909
12766TIP3   OH259712   1.553   0.990   4.548 -0.2421 -0.0239  0.0735
12766TIP3    H159713   1.468   1.030   4.531  0.0913  0.2868 -0.9547
12766TIP3    H259714   1.614   1.038   4.490  0.4861 -0.7584  0.2202
12767TIP3   OH259715   6.037   2.402   0.842  0.3001 -0.2159 -0.2289
12767TIP3    H159716   6.020   2.369   0.754  1.4308 -2.3010  0.3043
12767TIP3    H259717   6.044   2.323   0.896  1.6762  0.9550  1.3427
12768TIP3   OH259718   0.164   3.519   3.234  0.1405  0.3442  0.4175
12768TIP3    H159719   0.148   3.472   3.316 -1.4495  1.7083  0.9206
12768TIP3    H259720   0.212   3.597   3.260 -1.1517  1.2281  0.1765
12769TIP3   OH259721   5.810   1.344   6.715  0.1577  0.5106  0.0316
12769TIP3    H159722   5.770   1.372   6.632 -0.8291 -2.4647 -0.5662
12769TIP3    H259723   5.902   1.329   6.692  0.1568  0.8621 -0.2196
12770TIP3   OH259724   0.572   2.390  13.696 -0.2613  0.2906 -0.2269
12770TIP3    H159725   0.593   2.395  13.603 -2.2992  0.1381 -0.7212
12770TIP3    H259726   0.554   2.297  13.711 -0.1489  0.3477  0.2548
12771TIP3   OH259727   3.118   5.887  11.384  0.5989  0.5513 -0.1514
12771TIP3    H159728   3.169   5.870  11.463 -0.8626  0.0476  0.6863
12771TIP3    H259729   3.167   5.843  11.314  2.1423  1.3976  0.3605
12772TIP3   OH259730   5.335   2.029   5.427 -0.1723  0.1143  0.0689
12772TIP3    H159731   5.371   1.949   5.466 -1.6761 -0.3871  0.4264
12772TIP3    H259732   5.379   2.035   5.342 -1.6039 -2.2759 -0.8951
12773TIP3   OH259733   2.807   0.543   3.149 -0.2051 -0.2357  0.3234
12773TIP3    H159734   2.753   0.587   3.083 -0.0002  1.9179  1.5434
12773TIP3    H259735   2.884   0.513   3.101 -0.0321  1.3523 -0.3977
12774TIP3   OH259736   4.478   2.992   5.163 -0.5103 -0.7697  0.0163
12774TIP3    H159737   4.541   3.038   5.218 -0.7281 -0.0455 -0.3347
12774TIP3    H259738   4.454   2.915   5.214  0.7783 -1.1429  0.0853
12775TIP3   OH259739   3.369   0.882  12.853 -0.2021  0.3190 -0.0585
12775TIP3    H159740   3.439   0.818  12.862  0.1961  0.8690  0.7838
12775TIP3    H259741   3.298   0.847  12.908 -0.1884  0.3227 -0.0385
12776TIP3   OH259742   1.550   5.562  12.673 -0.2070  0.1071  0.0062
12776TIP3    H159743   1.459   5.591  12.670 -0.1787  0.1385 -0.6258
12776TIP3    H259744   1.544   5.467  12.686 -0.3052  0.2825  1.3665
12777TIP3   OH259745   1.586   5.110   0.359  0.2343  0.1180  0.2864
12777TIP3    H159746   1.565   5.082   0.448  1.9619 -0.4693  0.5332
12777TIP3    H259747   1.544   5.196   0.349 -0.2004  0.0527  1.5599
12778TIP3   OH259748   5.620   6.414  17.220 -1.0640  0.5102  0.8202
12778TIP3    H159749   5.574   6.377  17.295 -0.2610  0.3611  1.2420
12778TIP3    H259750   5.630   6.507  17.241  0.4603  0.1969  1.5795
12779TIP3   OH259751   4.546   6.700   1.619 -0.4902 -0.6888  0.1720
12779TIP3    H159752   4.506   6.615   1.600  0.4158 -0.8354 -1.1659
12779TIP3    H259753   4.603   6.717   1.544  0.6552  0.2937  1.2388
12780TIP3   OH259754   5.532   6.763   4.821  0.2030 -0.3623  0.1450
12780TIP3    H159755   5.453   6.752   4.768  0.8839  0.0103 -0.9709
12780TIP3    H259756   5.503   6.808   4.900 -0.8235 -0.8982  0.0685
12781TIP3   OH259757   2.103   4.166   1.677  0.0187 -0.3865  0.4403
12781TIP3    H159758   2.172   4.178   1.611  1.5020 -1.1719  1.8256
12781TIP3    H259759   2.042   4.239   1.661  2.2028  1.5140  0.4643
12782TIP3   OH259760   1.852   5.112  11.435  0.2434  0.1667  0.1341
12782TIP3    H159761   1.924   5.077  11.381 -0.2013 -1.1522  0.3608
12782TIP3    H259762   1.819   5.187  11.386  0.4769 -0.4340 -0.9640
12783TIP3   OH259763   1.497   0.816   5.655 -0.3896 -0.2371 -0.7808
12783TIP3    H159764   1.574   0.816   5.711  0.0948  2.0821 -1.3786
12783TIP3    H259765   1.475   0.724   5.643  2.7733 -0.9740 -1.2598
12784TIP3   OH259766   3.755   1.074  15.885  0.0558  0.1625 -0.8509
12784TIP3    H159767   3.750   1.165  15.916 -0.4013  0.0380 -0.5529
12784TIP3    H259768   3.666   1.053  15.858  0.4204  0.2108 -2.1027
12785TIP3   OH259769   4.950   4.734  14.562  0.3788  0.0183 -0.1566
12785TIP3    H159770   4.975   4.773  14.478  0.2041 -0.7110 -0.5540
12785TIP3    H259771   4.966   4.803  14.626  1.1480  0.3608 -0.7042
12786TIP3   OH259772   2.009   4.143  12.683  0.2249  0.7982 -0.0269
12786TIP3    H159773   1.943   4.084  12.646  1.2170  0.7989 -1.8771
12786TIP3    H259774   2.024   4.110  12.771 -1.0987 -0.1660 -0.1456
12787TIP3   OH259775   1.040   4.664   1.928 -0.6170 -0.2148  0.5514
12787TIP3    H159776   1.034   4.577   1.889  2.2770  0.8568 -2.4776
12787TIP3    H259777   0.970   4.665   1.994 -2.2645 -3.9530 -0.9726
12788TIP3   OH259778   0.847   0.543  13.138  1.0396 -0.0556  0.9090
12788TIP3    H159779   0.886   0.601  13.072 -0.0878 -1.2869 -0.8843
12788TIP3    H259780   0.808   0.472  13.087 -0.4696 -0.6714  2.8742
12789TIP3   OH259781   6.232   0.712  11.617  0.1567 -0.0198 -0.2677
12789TIP3    H159782   6.283   0.704  11.536  1.9258  0.2686  0.7865
12789TIP3    H259783   6.281   0.774  11.670 -1.1733  0.0662  0.8970
12790TIP3   OH259784   2.449   1.434  13.318 -0.2731 -0.2912  0.5656
12790TIP3    H159785   2.516   1.499  13.294  1.9976 -2.0589  1.9000
12790TIP3    H259786   2.426   1.455  13.408 -0.0807 -0.8687  0.7515
12791TIP3   OH259787   1.029   5.668   1.660 -0.1695 -0.1824 -0.0625
12791TIP3    H159788   0.939   5.684   1.688 -0.1129 -0.8137  0.4892
12791TIP3    H259789   1.081   5.734   1.706 -0.1960 -0.6135  0.5891
12792TIP3   OH259790   4.593   3.845   1.194  0.1535 -0.4518  0.3168
12792TIP3    H159791   4.546   3.830   1.112  1.6521 -0.3403 -0.5807
12792TIP3    H259792   4.584   3.763   1.242  0.0155 -0.8208 -0.3303
12793TIP3   OH259793   3.155   4.753   1.188  1.3226 -0.4818  0.3127
12793TIP3    H159794   3.203   4.708   1.257  1.8789  0.8061  0.7793
12793TIP3    H259795   3.221   4.806   1.144  0.9193 -1.0949 -1.0569
12794TIP3   OH259796   1.695   0.438   2.802 -0.0960  0.0511  0.0936
12794TIP3    H159797   1.771   0.492   2.822  1.5791 -1.7308 -1.3895
12794TIP3    H259798   1.681   0.385   2.880  0.2347  0.3186  0.3310
12795TIP3   OH259799   2.175   0.055   2.029  0.0708  0.1651  0.2333
12795TIP3    H159800   2.120  -0.021   2.013  1.5024 -0.5859 -1.2406
12795TIP3    H259801   2.265   0.024   2.017  0.6884  2.0446 -0.2721
12796TIP3   OH259802   1.689   3.521   2.240  0.1190  0.1817  0.0553
12796TIP3    H159803   1.606   3.475   2.252  0.5696 -0.5911  0.2551
12796TIP3    H259804   1.673   3.582   2.168 -0.4712 -0.3280 -0.2411
12797TIP3   OH259805   6.646   1.277   3.068  0.5287 -0.0681 -0.7415
12797TIP3    H159806   6.713   1.334   3.031  0.7839  1.5290  2.0676
12797TIP3    H259807   6.694   1.214   3.121 -0.2173  1.9422  2.4166
12798TIP3   OH259808   6.769   2.920   3.870 -0.4991  0.1218  0.2855
12798TIP3    H159809   6.834   2.990   3.862 -0.5678  0.0607 -0.8785
12798TIP3    H259810   6.695   2.949   3.816 -1.2814 -0.0072  1.2570
12799TIP3   OH259811   3.799   3.322   0.822 -0.1985 -0.2770 -0.0724
12799TIP3    H159812   3.864   3.324   0.892  0.6701 -0.2938 -0.8680
12799TIP3    H259813   3.829   3.253   0.763  0.5033  1.4579 -1.8095
12800TIP3   OH259814   5.615   4.452  12.410 -0.4909  0.0537  0.4105
12800TIP3    H159815   5.604   4.373  12.463  0.1296 -1.2428 -1.3608
12800TIP3    H259816   5.709   4.467  12.408 -0.3827 -0.7967 -1.5860
12801TIP3   OH259817   5.245   4.152   6.340 -0.8023 -0.0256 -0.6413
12801TIP3    H159818   5.304   4.117   6.407  1.1705 -0.3336 -2.4673
12801TIP3    H259819   5.299   4.157   6.261 -2.8833  0.9513 -2.0533
12802TIP3   OH259820   4.407   3.936   4.300  0.5023 -0.1337 -0.1485
12802TIP3    H159821   4.317   3.928   4.333 -0.6438  2.9887 -2.2769
12802TIP3    H259822   4.441   4.014   4.343  2.4409 -1.6039  1.0518
12803TIP3   OH259823   1.681   4.224   6.142 -0.1256  0.0274 -0.5220
12803TIP3    H159824   1.712   4.314   6.155  2.3074 -0.6602 -1.2539
12803TIP3    H259825   1.729   4.172   6.207 -1.8638 -0.6818  0.2130
12804TIP3   OH259826   2.475   2.683   4.722  0.8309 -0.2394  0.3481
12804TIP3    H159827   2.407   2.751   4.729 -0.1430 -1.4314  2.8343
12804TIP3    H259828   2.428   2.601   4.733  2.3037 -1.2451 -0.7055
12805TIP3   OH259829   2.939   6.541   4.649  0.0685  0.4214  0.4241
12805TIP3    H159830   2.999   6.466   4.646  1.1607  1.1911  2.4328
12805TIP3    H259831   2.860   6.506   4.690  0.1668  0.1024  0.3457
12806TIP3   OH259832   2.325   2.210   5.076 -0.2400  0.6700  0.6248
12806TIP3    H159833   2.381   2.174   5.146  0.6396  1.4952  0.3409
12806TIP3    H259834   2.237   2.178   5.099  0.2575 -0.2657  1.3172
12807TIP3   OH259835   0.063   0.167  10.793 -0.0383 -0.4218 -0.1053
12807TIP3    H159836   0.061   0.091  10.735  0.1065 -1.1191  0.8007
12807TIP3    H259837   0.148   0.208  10.774  0.0891 -0.7510 -0.2562
12808TIP3   OH259838   6.186   4.437   1.781 -0.3452  0.2476  0.0634
12808TIP3    H159839   6.109   4.400   1.738 -0.0267 -2.2946  1.6011
12808TIP3    H259840   6.151   4.492   1.850 -0.8026 -0.8783  0.7420
12809TIP3   OH259841   5.755   1.092  16.163 -0.2247  0.4057  0.0769
12809TIP3    H159842   5.772   1.053  16.249 -1.8365 -1.1309 -0.2828
12809TIP3    H259843   5.725   1.181  16.182 -0.8268 -0.0104  1.1232
12810TIP3   OH259844   6.349   5.466   2.287 -0.0946  0.2805  0.0578
12810TIP3    H159845   6.335   5.372   2.300  3.8288 -1.0514 -4.2586
12810TIP3    H259846   6.277   5.493   2.230 -1.3648  0.0062  1.4921
12811TIP3   OH259847   0.044   4.140  12.968 -0.0673  0.2111 -0.4234
12811TIP3    H159848   0.010   4.058  12.933 -0.2754 -0.0384  0.3480
12811TIP3    H259849  -0.003   4.208  12.919 -0.4184 -0.1337 -0.5695
12812TIP3   OH259850   1.818   1.618  14.981  0.0796 -0.2124  0.1428
12812TIP3    H159851   1.741   1.565  15.001 -0.5779  0.5699 -0.3023
12812TIP3    H259852   1.815   1.690  15.044 -0.2458  0.5112 -0.6954
12813TIP3   OH259853   1.221   5.481  15.084  0.2786  0.3765  0.4390
12813TIP3    H159854   1.229   5.576  15.075  3.1582  0.3245  1.7218
12813TIP3    H259855   1.284   5.458  15.153 -0.6527 -2.4118  0.4359
12814TIP3   OH259856   6.739   1.303   6.680  0.1261 -0.0354  0.2283
12814TIP3    H159857   6.666   1.243   6.697 -1.5127  1.0280 -2.6289
12814TIP3    H259858   6.698   1.390   6.675  1.8598  0.8103  0.3730
12815TIP3   OH259859   4.314   0.467  14.569 -0.5576 -0.2180  0.1056
12815TIP3    H159860   4.360   0.532  14.516 -0.5288 -0.6735 -0.4272
12815TIP3    H259861   4.373   0.450  14.643 -0.2214 -0.2153 -0.1604
12816TIP3   OH259862   5.339   5.107   5.549 -0.5527 -0.3983 -0.2854
12816TIP3    H159863   5.374   5.019   5.559 -1.3139 -0.6967 -0.2533
12816TIP3    H259864   5.257   5.107   5.599  0.2826  0.8235  1.1692
12817TIP3   OH259865   2.259   6.016   0.895 -0.0039 -0.1136  0.2327
12817TIP3    H159866   2.172   6.040   0.926 -0.0102 -0.0538  0.1697
12817TIP3    H259867   2.263   5.921   0.905 -0.6958 -0.3182 -1.3522
12818TIP3   OH259868   2.908   5.296   1.287 -0.0119 -0.3652  0.2766
12818TIP3    H159869   2.933   5.209   1.320 -0.4288 -0.0144  1.5552
12818TIP3    H259870   2.830   5.319   1.338 -1.2475 -0.2103 -1.6287
12819TIP3   OH259871   6.352   2.860  12.735 -0.0727 -0.0554 -0.3030
12819TIP3    H159872   6.299   2.852  12.815  0.9786 -1.0410  0.3194
12819TIP3    H259873   6.352   2.953  12.716  0.6398  0.3541  1.5358
12820TIP3   OH259874   6.347   3.011   5.812 -0.5042  0.4157 -0.2163
12820TIP3    H159875   6.296   2.971   5.883  0.3252  1.2777  0.8884
12820TIP3    H259876   6.387   2.938   5.766 -0.4164 -0.1153  0.6960
12821TIP3   OH259877   2.133   6.069   1.966  0.2425 -0.0687  0.0365
12821TIP3    H159878   2.149   6.157   2.002 -0.3812  0.5202 -1.0990
12821TIP3    H259879   2.093   6.021   2.038 -0.6298  0.9797  0.2647
12822TIP3   OH259880   0.926   3.926  10.941 -0.3775 -0.2379 -0.1468
12822TIP3    H159881   0.887   3.850  10.897 -2.7141  0.5282  0.5099
12822TIP3    H259882   0.927   3.902  11.034  0.4459 -0.1124 -0.1200
12823TIP3   OH259883   4.702   0.078   4.561  0.4786  0.5183 -0.8800
12823TIP3    H159884   4.797   0.068   4.554  0.7891  2.0329  0.6978
12823TIP3    H259885   4.685   0.166   4.528 -0.3935  0.2554 -1.1496
12824TIP3   OH259886   3.486   3.118  12.769 -0.1812  0.1543  0.4325
12824TIP3    H159887   3.414   3.056  12.780 -1.3650  1.3438 -0.3366
12824TIP3    H259888   3.524   3.096  12.684  0.0053 -0.1206  0.5878
12825TIP3   OH259889   5.258   6.730  15.848  0.2124  0.0320 -0.4357
12825TIP3    H159890   5.178   6.764  15.888  1.2839  1.9824  0.1564
12825TIP3    H259891   5.319   6.804  15.851  1.3633 -0.7879 -2.7761
12826TIP3   OH259892   2.726   5.652  13.169  0.1456  0.0365 -0.1254
12826TIP3    H159893   2.744   5.730  13.117  0.3202 -0.9403 -1.5866
12826TIP3    H259894   2.791   5.588  13.138 -0.8348 -1.0848  0.0982
12827TIP3   OH259895   0.372   5.754   5.964 -0.1170  0.1811  0.3857
12827TIP3    H159896   0.293   5.749   6.017  0.8320  1.1490  1.9083
12827TIP3    H259897   0.389   5.848   5.955  1.6301 -0.0310  1.2486
12828TIP3   OH259898   2.450   4.481   1.518 -0.0300 -0.2129 -0.0772
12828TIP3    H159899   2.393   4.481   1.441 -1.5391  0.1523  1.0128
12828TIP3    H259900   2.488   4.393   1.520  1.5164  0.3459 -2.2783
12829TIP3   OH259901   1.400   2.846   3.501 -0.2000  0.1354 -0.2998
12829TIP3    H159902   1.409   2.792   3.423 -1.2277 -0.1946 -0.2010
12829TIP3    H259903   1.478   2.901   3.502  0.8718 -1.3522 -0.3947
12830TIP3   OH259904   2.154   4.950   6.325  0.1481  0.6535  0.0744
12830TIP3    H159905   2.127   5.034   6.361 -1.2401 -0.4066  1.6098
12830TIP3    H259906   2.230   4.970   6.270  0.0044  2.8496  0.6334
12831TIP3   OH259907   1.688   4.558   3.479  0.9206 -0.1649  0.4090
12831TIP3    H159908   1.646   4.503   3.413  3.6206  0.1925 -1.7268
12831TIP3    H259909   1.708   4.499   3.551 -1.4607 -0.7107  0.6663
12832TIP3   OH259910   4.150   3.538   1.469  0.0993 -0.0029  0.2936
12832TIP3    H159911   4.101   3.463   1.502 -1.3098  0.2255 -1.2496
12832TIP3    H259912   4.119   3.612   1.521 -1.4217  0.1892 -0.8500
12833TIP3   OH259913   0.363   2.045   4.827 -0.0578 -0.3266 -0.0049
12833TIP3    H159914   0.420   2.080   4.896 -0.6830 -1.4953  1.1288
12833TIP3    H259915   0.410   2.063   4.746  1.9143 -1.2167  0.9051
12834TIP3   OH259916   6.579   1.911   1.499  0.2427  0.0242 -0.1518
12834TIP3    H159917   6.550   1.831   1.543 -0.4788  1.8965  2.8895
12834TIP3    H259918   6.670   1.893   1.475  0.1663 -1.6136  0.7152
12835TIP3   OH259919   2.242   6.402   1.122 -0.0456 -0.4783 -0.5623
12835TIP3    H159920   2.311   6.460   1.090 -1.2952  0.4964 -1.5546
12835TIP3    H259921   2.190   6.382   1.044 -2.0644  0.4266  0.5405
12836TIP3   OH259922   3.408   2.844   1.423 -0.1733 -0.7814  0.6205
12836TIP3    H159923   3.415   2.881   1.335 -0.4647 -1.9217  0.1019
12836TIP3    H259924   3.403   2.749   1.408  1.3852 -1.0764  1.9667
12837TIP3   OH259925   0.207   6.679   2.057 -0.7553 -0.4432  0.2897
12837TIP3    H159926   0.192   6.774   2.052  0.4747 -0.1780  1.3292
12837TIP3    H259927   0.135   6.641   2.006 -0.6819  1.0899 -1.0104
12838TIP3   OH259928   3.225   0.555   3.514  0.2410 -0.1447 -0.3789
12838TIP3    H159929   3.143   0.518   3.546  0.0498  0.2261 -0.4430
12838TIP3    H259930   3.216   0.649   3.526  2.0135 -0.2964  2.8027
12839TIP3   OH259931   2.533   1.661   5.701 -0.4653  0.2978  0.0722
12839TIP3    H159932   2.544   1.734   5.762 -3.3195  1.7798 -1.1278
12839TIP3    H259933   2.519   1.702   5.616  2.4736 -1.7441 -1.4681
12840TIP3   OH259934   0.046   0.744   0.140 -0.1944  0.0912 -0.2656
12840TIP3    H159935   0.096   0.821   0.114  0.8498 -0.0829  1.1939
12840TIP3    H259936   0.100   0.670   0.112  0.6760 -0.0969  1.8484
12841TIP3   OH259937   3.166   6.129  16.396 -0.1841 -0.2920 -0.0767
12841TIP3    H159938   3.151   6.125  16.302  0.6803  0.0549 -0.2341
12841TIP3    H259939   3.209   6.213  16.410 -2.7243  0.8802  0.9787
12842TIP3   OH259940   4.607   0.204   2.776  0.1422  0.1905  0.0428
12842TIP3    H159941   4.596   0.278   2.717  0.1836 -0.5320 -0.8881
12842TIP3    H259942   4.525   0.156   2.770  1.3227 -1.6527 -1.9320
12843TIP3   OH259943   1.271   5.582  10.990 -0.5584 -0.5536 -0.0395
12843TIP3    H159944   1.363   5.596  10.969 -0.9215 -1.3207 -2.2438
12843TIP3    H259945   1.270   5.565  11.085  1.2980  1.4235  0.3600
12844TIP3   OH259946   2.886   1.794   0.725  0.1384  0.1480 -0.0944
12844TIP3    H159947   2.841   1.779   0.809  1.8551 -0.1226  0.7992
12844TIP3    H259948   2.944   1.719   0.715  2.5417  1.8774  0.2260
12845TIP3   OH259949   2.622   0.790   0.808  0.2038  0.4650 -0.0175
12845TIP3    H159950   2.647   0.727   0.741  0.2183 -0.7543  1.1102
12845TIP3    H259951   2.548   0.748   0.854 -0.1750  1.5228  0.3520
12846TIP3   OH259952   6.529   2.876  13.541  0.0802  0.4760 -0.4307
12846TIP3    H159953   6.597   2.859  13.606  0.6790 -1.5076 -1.5574
12846TIP3    H259954   6.457   2.818  13.566  0.3394 -0.3458 -1.5751
12847TIP3   OH259955   0.829   3.942  17.057  0.4054 -0.0071 -0.2958
12847TIP3    H159956   0.745   3.899  17.040 -0.5134  0.9804  1.6186
12847TIP3    H259957   0.890   3.899  16.997 -1.3826 -0.9750 -1.4812
12848TIP3   OH259958   6.737   3.032   0.913 -0.0136 -0.1118  0.3525
12848TIP3    H159959   6.727   2.942   0.943  1.2469 -0.2614  0.3237
12848TIP3    H259960   6.829   3.053   0.928 -0.0011  0.7438 -0.8327
12849TIP3   OH259961   3.428   4.605  16.751  0.3306  0.4681  0.3086
12849TIP3    H159962   3.357   4.549  16.782 -0.4729  1.0682 -0.4229
12849TIP3    H259963   3.401   4.694  16.773 -0.4357  0.9461 -2.3882
12850TIP3   OH259964   0.983   4.062  14.526 -0.0512 -0.1768  0.0754
12850TIP3    H159965   1.002   4.069  14.619  2.7470  1.4709 -0.5592
12850TIP3    H259966   0.919   4.131  14.509 -0.4537 -0.3847  0.7450
12851TIP3   OH259967   4.340   0.187   2.242  0.5336  0.1746 -0.2230
12851TIP3    H159968   4.390   0.135   2.305 -1.4086  1.7901  2.7675
12851TIP3    H259969   4.402   0.252   2.210  1.5465 -0.6461  0.0334
12852TIP3   OH259970   0.249   0.841   1.608  0.4676 -0.0198  0.3542
12852TIP3    H159971   0.156   0.829   1.588  0.7300 -0.6862 -0.4752
12852TIP3    H259972   0.253   0.927   1.650 -0.5080  0.0799  0.2553
12853TIP3   OH259973   5.113   4.810  14.272  0.0930  0.2362 -0.1356
12853TIP3    H159974   5.199   4.806  14.230 -0.6221  2.1033 -1.8832
12853TIP3    H259975   5.111   4.895  14.315 -1.5113  0.9714 -1.5972
12854TIP3   OH259976   5.162   4.206   5.084 -0.1088  0.4250 -0.1616
12854TIP3    H159977   5.186   4.292   5.048  0.1562  0.3469 -0.1728
12854TIP3    H259978   5.084   4.224   5.136  0.6346  0.8867  0.8042
12855TIP3   OH259979   1.656   2.535  12.935  0.1362  0.6715  0.4300
12855TIP3    H159980   1.643   2.629  12.921 -0.0691  0.4484 -1.0286
12855TIP3    H259981   1.571   2.503  12.965 -0.3612  0.6362 -0.9690
12856TIP3   OH259982   0.433   6.308   5.537  0.1191 -0.1710 -0.5647
12856TIP3    H159983   0.339   6.320   5.525 -0.0655 -0.5728  0.3782
12856TIP3    H259984   0.440   6.259   5.619  1.1370 -0.4526 -0.8156
12857TIP3   OH259985   0.171   6.546  11.772  0.2453 -0.0320  0.3692
12857TIP3    H159986   0.127   6.582  11.694  0.8031 -0.7993 -0.3118
12857TIP3    H259987   0.200   6.459  11.744 -0.4629 -0.7353  1.7694
12858TIP3   OH259988   3.078   5.454   2.145 -0.2395 -0.7936  0.3895
12858TIP3    H159989   3.000   5.475   2.094  1.1246  0.2908 -1.2995
12858TIP3    H259990   3.128   5.394   2.089  0.6383 -0.6517  1.0048
12859TIP3   OH259991   6.394   6.509  13.110  0.3296 -0.2321  0.6378
12859TIP3    H159992   6.448   6.443  13.065  0.8843  0.0611  0.8657
12859TIP3    H259993   6.439   6.592  13.092 -1.0372  0.2391 -0.6692
12860TIP3   OH259994   5.361   0.829  15.014  0.1242  0.4290  0.3704
12860TIP3    H159995   5.398   0.743  15.031 -0.4628  0.5045  2.1512
12860TIP3    H259996   5.433   0.880  14.976  0.3744 -0.9254 -1.0408
12861TIP3   OH259997   5.454   5.999  11.309 -0.2297 -0.2648  0.2742
12861TIP3    H159998   5.467   6.084  11.350  1.1634  0.0018 -0.6759
12861TIP3    H259999   5.374   6.009  11.257  0.2543  0.6554 -0.3088
12862TIP3   OH260000   0.107   4.960   3.789  0.3321  0.2397  0.0792
12862TIP3    H160001   0.149   4.913   3.717  0.3238  0.9048 -0.3539
12862TIP3    H260002   0.013   4.953   3.772  0.2743 -0.6787  0.6993
12863TIP3   OH260003   1.254   0.332  10.356  0.2017  0.7719 -0.1834
12863TIP3    H160004   1.288   0.286  10.433  1.1152  1.3545 -0.2285
12863TIP3    H260005   1.248   0.264  10.289  4.5622  1.2472 -1.2074
12864TIP3   OH260006   3.087   5.334   4.877 -0.2770 -0.2255  0.2434
12864TIP3    H160007   3.015   5.351   4.816 -0.1505 -1.5461 -0.2853
12864TIP3    H260008   3.045   5.335   4.963 -0.6091  0.7772  0.0790
12865TIP3   OH260009   3.280   6.626  12.519  0.3866 -0.8360 -0.1281
12865TIP3    H160010   3.223   6.549  12.516 -1.5187  0.4896  0.7386
12865TIP3    H260011   3.220   6.700  12.508  2.1458  0.5432 -0.6554
12866TIP3   OH260012   0.107   6.143  14.734 -0.2022  0.0868  0.0619
12866TIP3    H160013   0.156   6.224  14.747 -3.0841  2.0450 -0.8722
12866TIP3    H260014   0.128   6.116  14.645 -0.8348  0.9331 -0.3452
12867TIP3   OH260015   6.351   5.625  10.807 -0.5939  0.4966  0.1208
12867TIP3    H160016   6.392   5.693  10.860  1.9945  0.7537 -2.0754
12867TIP3    H260017   6.273   5.666  10.771  0.1807  1.8705 -0.0458
12868TIP3   OH260018   2.743   5.357   6.280  0.5479 -0.1790  0.5247
12868TIP3    H160019   2.652   5.330   6.270  0.2954  1.0322 -0.6570
12868TIP3    H260020   2.782   5.343   6.194  0.7551  1.8201  0.2602
12869TIP3   OH260021   3.497   5.406   2.810 -0.2486 -0.0927 -0.0566
12869TIP3    H160022   3.438   5.401   2.734  0.4297  0.5327 -0.6255
12869TIP3    H260023   3.584   5.409   2.772  0.0967  0.1601  0.7635
12870TIP3   OH260024   1.888   0.154   2.849  0.3505 -0.3612 -0.5663
12870TIP3    H160025   1.945   0.225   2.820  0.0369  0.4211  0.7141
12870TIP3    H260026   1.912   0.139   2.940 -1.1015 -0.3896 -0.1721
12871TIP3   OH260027   3.740   4.666   0.449 -0.1171  0.2599 -0.1962
12871TIP3    H160028   3.669   4.707   0.400  0.3062  0.4659 -0.6302
12871TIP3    H260029   3.819   4.712   0.422  0.0199  0.9496  1.3083
12872TIP3   OH260030   5.105   3.179   4.741  0.4112  0.7472 -0.3663
12872TIP3    H160031   5.023   3.225   4.759 -1.0829 -1.6302 -0.8494
12872TIP3    H260032   5.110   3.176   4.646 -0.5194 -1.7276 -0.3755
12873TIP3   OH260033   3.263   3.847   4.127  0.6086 -0.1243 -0.2166
12873TIP3    H160034   3.358   3.855   4.135  0.6282  0.3510 -0.9301
12873TIP3    H260035   3.248   3.832   4.034 -0.0089 -0.3335 -0.0843
12874TIP3   OH260036   1.314   3.675   0.748 -0.3525  0.0611  0.1828
12874TIP3    H160037   1.265   3.709   0.673 -1.3166  0.3440  0.9320
12874TIP3    H260038   1.381   3.619   0.709 -0.0767  1.1552 -0.9518
12875TIP3   OH260039   1.028   5.686  12.508 -0.0722 -0.3377  0.0560
12875TIP3    H160040   1.005   5.596  12.487 -0.1848 -0.9957  2.7645
12875TIP3    H260041   0.980   5.739  12.444  0.8736 -2.2105 -2.2616
12876TIP3   OH260042   3.373   3.825   3.594  0.2071  0.3581  0.4159
12876TIP3    H160043   3.353   3.734   3.571 -1.6588  0.5631  1.2104
12876TIP3    H260044   3.332   3.877   3.525  0.5763  0.6452  0.4074
12877TIP3   OH260045   1.154   2.413   3.881 -0.0410 -0.0374  0.0918
12877TIP3    H160046   1.068   2.383   3.852 -0.1226 -1.0522  1.3635
12877TIP3    H260047   1.208   2.334   3.880  1.5373  0.9900 -2.9750
12878TIP3   OH260048   1.902   0.159  13.865  0.0563 -0.4355 -0.2596
12878TIP3    H160049   1.943   0.229  13.916 -2.0714  1.2029 -0.7285
12878TIP3    H260050   1.974   0.122  13.814  1.7275 -0.4190  1.9915
12879TIP3   OH260051   4.834   4.040   1.213 -0.0255 -0.5034  0.4048
12879TIP3    H160052   4.920   4.053   1.172 -0.1826 -1.7380 -0.3418
12879TIP3    H260053   4.774   4.032   1.139 -0.8055  0.3843  0.9255
12880TIP3   OH260054   0.225   2.414   4.031  0.2191  0.0638 -0.0059
12880TIP3    H160055   0.163   2.423   4.103  0.4436 -1.3775  0.3708
12880TIP3    H260056   0.284   2.343   4.057  0.9839  0.2656 -1.1133
12881TIP3   OH260057   5.188   2.801  13.349 -0.1607 -0.4168  0.0854
12881TIP3    H160058   5.105   2.763  13.380 -1.3893  2.3358  0.3425
12881TIP3    H260059   5.217   2.856  13.422  1.3174 -0.4399 -0.4740
12882TIP3   OH260060   2.533   2.725  16.724  0.4455 -0.1653 -0.2534
12882TIP3    H160061   2.460   2.699  16.781 -0.3917  1.1579 -0.6917
12882TIP3    H260062   2.504   2.807  16.685  1.9439  0.0696 -0.8933
12883TIP3   OH260063   3.400   3.287  16.363 -0.0091 -0.1731  0.1209
12883TIP3    H160064   3.474   3.347  16.354 -0.0969  0.2711  2.1501
12883TIP3    H260065   3.441   3.202  16.384 -0.0496  0.1111  1.4222
12884TIP3   OH260066   5.922   4.911  14.462  0.1500  0.1451 -0.6601
12884TIP3    H160067   5.880   4.886  14.379 -1.0900 -0.8748  0.2402
12884TIP3    H260068   6.009   4.872  14.458  0.1446  0.2137 -1.5341
12885TIP3   OH260069   0.315   3.887   5.304  0.2462 -0.1106  0.8773
12885TIP3    H160070   0.347   3.814   5.358 -0.5930 -0.3497  1.0652
12885TIP3    H260071   0.292   3.954   5.368  1.9223  0.6942  0.6513
12886TIP3   OH260072   0.778   2.157  12.913  0.3024  0.1346  0.0014
12886TIP3    H160073   0.837   2.194  12.847 -1.7700  0.9908 -1.4411
12886TIP3    H260074   0.777   2.063  12.894 -0.8323  0.4685 -1.6820
12887TIP3   OH260075   4.158   4.663   1.888  0.2221 -0.5808  0.3335
12887TIP3    H160076   4.222   4.645   1.820 -0.7120  0.6361 -0.8930
12887TIP3    H260077   4.081   4.694   1.841 -0.4166  0.3602  1.9582
12888TIP3   OH260078   1.940   0.962  14.823  0.4698  0.3275  0.7002
12888TIP3    H160079   1.996   0.919  14.887  0.9876 -0.9928 -0.6142
12888TIP3    H260080   1.999   0.987  14.752 -0.6691 -1.5374 -0.9315
12889TIP3   OH260081   3.092   0.771   5.128 -0.4468  0.0071  0.2650
12889TIP3    H160082   3.122   0.841   5.071 -0.3181 -0.4192 -0.1961
12889TIP3    H260083   3.053   0.816   5.203  1.7999  0.5695  1.1179
12890TIP3   OH260084   5.635   3.114   4.947  0.2729 -0.3501 -0.2857
12890TIP3    H160085   5.662   3.066   5.026 -1.8343 -1.7857 -0.4030
12890TIP3    H260086   5.620   3.203   4.978 -2.4039 -1.3098  1.4247
12891TIP3   OH260087   3.085   0.671   1.693  0.8043  0.3324  0.5257
12891TIP3    H160088   2.991   0.675   1.674  0.7324  2.3348  1.2438
12891TIP3    H260089   3.124   0.646   1.609 -0.4194 -1.3800  0.4288
12892TIP3   OH260090   2.614   3.540  16.317 -0.3369  0.3270  0.2202
12892TIP3    H160091   2.548   3.608  16.302 -0.6741 -0.5430 -2.5799
12892TIP3    H260092   2.597   3.507  16.405 -2.1240  1.7204  0.4142
12893TIP3   OH260093   5.990   4.342  16.561  0.1446  0.1870  0.5753
12893TIP3    H160094   5.936   4.420  16.551  0.7101  0.3421 -1.3424
12893TIP3    H260095   5.978   4.293  16.480  1.4391 -0.6879  0.8885
12894TIP3   OH260096   3.769   0.442  15.762 -0.8750  0.5211  0.5738
12894TIP3    H160097   3.799   0.484  15.681 -1.2808 -1.3979 -0.5860
12894TIP3    H260098   3.815   0.490  15.832  1.7956  0.2517 -0.9446
12895TIP3   OH260099   6.159   2.555   6.391 -0.0794 -0.5783  0.3015
12895TIP3    H160100   6.115   2.511   6.464  0.2478  0.6288  1.2362
12895TIP3    H260101   6.207   2.485   6.346  0.2694 -1.2118  1.6393
12896TIP3   OH260102   4.928   4.587  16.744 -0.1864 -0.1746  0.5026
12896TIP3    H160103   4.936   4.682  16.744 -1.3261 -0.0797 -0.2840
12896TIP3    H260104   5.019   4.555  16.744  0.2150  0.9124 -1.0576
12897TIP3   OH260105   4.103   3.815   0.976 -0.4551  0.1437  0.7556
12897TIP3    H160106   4.051   3.890   0.948 -1.9387 -0.6180  1.4128
12897TIP3    H260107   4.079   3.745   0.916 -1.0865 -0.5406  1.7884
12898TIP3   OH260108   4.282   3.277   0.909  0.1406  0.5508 -0.2847
12898TIP3    H160109   4.264   3.208   0.844  1.5066 -0.0442 -0.0448
12898TIP3    H260110   4.364   3.316   0.880  0.0355  1.2233  0.3129
12899TIP3   OH260111   6.694   2.625  14.873  0.3489 -0.1768 -0.6705
12899TIP3    H160112   6.682   2.701  14.816  1.2606  0.8427  0.4805
12899TIP3    H260113   6.610   2.617  14.919  0.5854  0.7202 -0.0822
12900TIP3   OH260114   1.344   1.529  16.249  0.6252  0.4787 -0.2468
12900TIP3    H160115   1.329   1.533  16.344 -0.7597 -0.4810 -0.4138
12900TIP3    H260116   1.288   1.599  16.213 -0.4800 -0.5421 -0.5308
12901TIP3   OH260117   4.844   0.943  16.110  0.6671  0.1169 -0.5285
12901TIP3    H160118   4.851   0.867  16.053 -2.3580 -0.5106 -0.1758
12901TIP3    H260119   4.811   1.013  16.053  1.9446  0.7361 -0.5157
12902TIP3   OH260120   6.279   6.110   1.839  0.0771 -0.2078  0.4761
12902TIP3    H160121   6.259   6.122   1.746 -0.0691 -0.4050  0.4817
12902TIP3    H260122   6.273   6.016   1.852  1.1162 -0.2836  0.4539
12903TIP3   OH260123   0.071   2.560  11.681  0.3961 -0.6754 -0.4638
12903TIP3    H160124   0.145   2.618  11.699  0.2960 -1.1688  1.6549
12903TIP3    H260125   0.074   2.546  11.587  1.0896  1.8693 -0.8621
12904TIP3   OH260126   4.599   5.411   0.143  0.3860  0.0404  0.0932
12904TIP3    H160127   4.520   5.367   0.110 -0.0755  1.5890 -0.9259
12904TIP3    H260128   4.669   5.379   0.087  0.4993 -1.4036  1.0518
12905TIP3   OH260129   2.728   1.282   0.136 -0.0430  0.0927  0.6986
12905TIP3    H160130   2.637   1.295   0.110  0.0352 -0.0811  0.3297
12905TIP3    H260131   2.733   1.317   0.225 -0.2403  0.9926  0.3646
12906TIP3   OH260132   6.113   3.416   0.299  0.0293 -0.0192  0.1573
12906TIP3    H160133   6.107   3.462   0.383 -1.0380 -2.5793  1.5593
12906TIP3    H260134   6.027   3.375   0.288  1.4348 -3.0686 -0.1431
12907TIP3   OH260135   6.286   4.970   3.236  0.1319 -0.2364 -0.0722
12907TIP3    H160136   6.342   4.895   3.255  1.0794  0.6435  0.7222
12907TIP3    H260137   6.347   5.038   3.206 -0.6962  0.2463 -0.6947
12908TIP3   OH260138   4.289   0.702  15.774  0.4525  0.1282 -0.2070
12908TIP3    H160139   4.308   0.615  15.739  0.8548  0.5156 -0.9608
12908TIP3    H260140   4.239   0.745  15.704 -2.1154 -0.4439  1.2419
12909TIP3   OH260141   4.317   4.783   4.044 -0.1175  0.2358  0.1915
12909TIP3    H160142   4.229   4.819   4.045 -0.5711 -0.8631  0.8264
12909TIP3    H260143   4.310   4.702   4.095  1.2353  0.1036  0.1774
12910TIP3   OH260144   4.621   0.099  14.580  0.0957  0.1017  0.0204
12910TIP3    H160145   4.540   0.100  14.529 -1.4142 -0.0642  2.3650
12910TIP3    H260146   4.651   0.189  14.580 -0.2738  0.2262 -0.5644
12911TIP3   OH260147   3.890   2.548  14.935  0.1292  0.1219  0.1089
12911TIP3    H160148   3.966   2.591  14.895 -0.3198  0.3286 -0.5525
12911TIP3    H260149   3.873   2.598  15.015  1.4076 -0.6672  0.8831
12912TIP3   OH260150   6.620   0.273   5.042  0.0474  0.3882  0.4277
12912TIP3    H160151   6.573   0.320   4.973 -0.4841 -2.4767 -1.2441
12912TIP3    H260152   6.551   0.231   5.094  0.5372  0.9363  1.5503
12913TIP3   OH260153   5.052   6.127  16.029  0.4691 -0.3929 -0.0333
12913TIP3    H160154   5.070   6.203  16.084  1.5995 -0.4231 -0.3663
12913TIP3    H260155   5.106   6.057  16.065 -0.3993 -0.9853  0.1328
12914TIP3   OH260156   6.260   2.240   3.283  0.3069 -0.1298 -0.5736
12914TIP3    H160157   6.273   2.179   3.210 -2.4612  0.5579 -1.7081
12914TIP3    H260158   6.267   2.326   3.244  0.4217  0.2690  0.3088
12915TIP3   OH260159   3.627   2.369  12.252  0.4866 -0.2983  0.3825
12915TIP3    H160160   3.561   2.299  12.254  0.5205 -0.4375 -1.7395
12915TIP3    H260161   3.585   2.439  12.201  1.4179  0.1952  0.2972
12916TIP3   OH260162   1.296   5.300   1.446  0.3258  0.0444  0.8433
12916TIP3    H160163   1.359   5.354   1.493 -0.2392  0.9749  0.5612
12916TIP3    H260164   1.222   5.360   1.428  0.3954 -0.3610 -0.9297
12917TIP3   OH260165   3.957   2.234   3.040  0.0460 -0.3513  0.2111
12917TIP3    H160166   3.960   2.166   3.108  0.1524 -1.1656 -0.5974
12917TIP3    H260167   4.048   2.240   3.009 -0.0216 -0.0436  0.0734
12918TIP3   OH260168   0.379   6.014   1.938 -0.9030  0.1185 -0.0025
12918TIP3    H160169   0.360   5.922   1.957  0.8525 -0.5352 -1.2683
12918TIP3    H260170   0.297   6.060   1.958 -1.6567 -1.6410  1.0889
12919TIP3   OH260171   1.603   5.860  11.945  0.3680 -0.1699 -0.2363
12919TIP3    H160172   1.604   5.912  12.026  1.2656 -0.6992  0.1011
12919TIP3    H260173   1.669   5.901  11.890  2.5638 -2.1768  0.8274
12920TIP3   OH260174   4.866   3.681   5.793 -0.7039  0.2551 -0.2005
12920TIP3    H160175   4.861   3.767   5.834  0.2681  0.0385  0.3882
12920TIP3    H260176   4.812   3.688   5.714 -0.8298  1.3222 -0.0169
12921TIP3   OH260177   2.325   3.358   6.373 -0.3307 -0.4670 -0.3266
12921TIP3    H160178   2.376   3.290   6.415  2.5286  1.5136 -0.4178
12921TIP3    H260179   2.271   3.395   6.443 -0.2914 -1.3729  0.1848
12922TIP3   OH260180   3.171   2.513  14.646  0.4401 -0.9645 -0.1845
12922TIP3    H160181   3.210   2.593  14.681 -1.0756 -0.0660 -0.5111
12922TIP3    H260182   3.207   2.505  14.558  0.7030 -0.7234 -0.0993
12923TIP3   OH260183   4.958   5.172   1.212 -0.2060 -0.2825  0.4134
12923TIP3    H160184   4.927   5.220   1.135  0.7581  0.1005  0.2561
12923TIP3    H260185   5.030   5.118   1.178 -0.9996 -1.5251  0.6737
12924TIP3   OH260186   3.294   6.583  14.928  0.6624  0.0835  0.0187
12924TIP3    H160187   3.309   6.667  14.971 -0.0905  0.6605 -0.8366
12924TIP3    H260188   3.209   6.593  14.886  0.9663 -0.8032 -0.8113
12925TIP3   OH260189   2.644   2.862  13.603 -0.1010 -0.9458  0.3424
12925TIP3    H160190   2.653   2.893  13.513 -0.1089 -0.0721  0.6396
12925TIP3    H260191   2.589   2.784  13.596  0.5311 -1.3292 -0.4947
12926TIP3   OH260192   6.574   3.242   2.077  0.1573 -0.2643 -0.4422
12926TIP3    H160193   6.604   3.332   2.066  0.1827 -0.3245 -0.8812
12926TIP3    H260194   6.602   3.197   1.997  1.1112 -0.9321  0.2611
12927TIP3   OH260195   5.717   2.648  16.691  0.5012  0.7656  0.5429
12927TIP3    H160196   5.664   2.613  16.762  0.5301  1.0925  0.7243
12927TIP3    H260197   5.800   2.602  16.697  0.6466  1.0873  0.9705
12928TIP3   OH260198   6.452   1.175   3.425 -0.1200  0.0540  0.4676
12928TIP3    H160199   6.494   1.090   3.417 -0.1743  0.0679  0.0227
12928TIP3    H260200   6.360   1.155   3.442  0.0049  0.0238  1.1198
12929TIP3   OH260201   2.336   0.774  15.801 -0.3845  0.5960  0.1518
12929TIP3    H160202   2.341   0.852  15.857 -0.5361 -0.4450  1.6590
12929TIP3    H260203   2.251   0.780  15.759 -0.8024  0.7679  0.9995
12930TIP3   OH260204   5.740   0.035   5.201  0.3024 -0.5133 -0.0232
12930TIP3    H160205   5.811  -0.025   5.221 -0.1720 -1.3328 -0.7849
12930TIP3    H260206   5.769   0.083   5.124  0.1703 -0.6127 -0.1353
12931TIP3   OH260207   2.171   3.574  14.300 -0.4071  0.2392  0.2750
12931TIP3    H160208   2.134   3.548  14.384 -1.4075  0.7485  0.0016
12931TIP3    H260209   2.260   3.601  14.320 -0.0494 -1.3415  0.8952
12932TIP3   OH260210   3.892   4.633   3.608 -0.0569  0.8034  0.0214
12932TIP3    H160211   3.799   4.620   3.592  0.4107 -2.2244 -0.4225
12932TIP3    H260212   3.896   4.679   3.692 -1.9430  0.4547  0.3073
12933TIP3   OH260213   3.258   1.352  17.231 -0.0954  0.5292 -0.2039
12933TIP3    H160214   3.346   1.373  17.262  0.1929 -0.5966 -0.2618
12933TIP3    H260215   3.211   1.321  17.309  0.8872 -3.1478 -0.9783
12934TIP3   OH260216   1.976   1.157   4.924  0.0537  0.0958 -0.1334
12934TIP3    H160217   1.938   1.245   4.934  0.4435  0.1361  1.1088
12934TIP3    H260218   1.910   1.098   4.961  1.1008  0.1546  1.9200
12935TIP3   OH260219   2.490   2.892   1.202 -0.4022  0.9177 -0.8717
12935TIP3    H160220   2.535   2.928   1.125 -0.1197 -0.2388 -1.2589
12935TIP3    H260221   2.559   2.883   1.268 -0.7880  2.6315 -0.2034
12936TIP3   OH260222   3.684   2.220   1.421  0.5604  0.1229 -0.1335
12936TIP3    H160223   3.737   2.144   1.397  0.2753  0.7653 -3.0302
12936TIP3    H260224   3.720   2.291   1.368 -0.6261  1.4852  0.8636
12937TIP3   OH260225   3.554   0.535  14.067  0.0173 -0.1038  0.4384
12937TIP3    H160226   3.495   0.486  14.011 -0.1769  0.3473  0.2444
12937TIP3    H260227   3.636   0.540  14.018 -0.0955  0.1325  0.2705
12938TIP3   OH260228   5.670   4.792  16.715 -0.4615 -0.2159  0.1484
12938TIP3    H160229   5.687   4.883  16.688  1.0103 -0.4728  0.1887
12938TIP3    H260230   5.689   4.792  16.809  1.0806 -0.9188 -0.1474
12939TIP3   OH260231   4.876   1.527  11.555 -0.4610  0.8896 -0.3952
12939TIP3    H160232   4.859   1.486  11.640  1.0361  2.4602  0.7183
12939TIP3    H260233   4.801   1.504  11.501  0.1456 -2.9780  0.2788
12940TIP3   OH260234   0.820   2.032   1.050 -0.2674 -0.4005 -0.2672
12940TIP3    H160235   0.901   1.987   1.072  0.2260  1.0186  0.9430
12940TIP3    H260236   0.780   2.054   1.134 -2.5841 -2.2242 -0.8402
12941TIP3   OH260237   2.748   6.030   1.871  0.0991  0.2714 -0.4317
12941TIP3    H160238   2.679   6.036   1.804 -0.3776  0.5401  0.0831
12941TIP3    H260239   2.801   6.108   1.858 -0.2434  0.5404 -0.2238
12942TIP3   OH260240   5.467   2.478   1.014  0.5853  0.1980  0.6092
12942TIP3    H160241   5.508   2.471   0.928  0.7837  1.2889  0.6153
12942TIP3    H260242   5.432   2.567   1.018  0.0253 -0.0454  1.4100
12943TIP3   OH260243   5.291   0.716  15.733 -0.1552  0.6315  0.3679
12943TIP3    H160244   5.367   0.744  15.785  0.1042  0.8279 -0.1214
12943TIP3    H260245   5.275   0.789  15.673 -1.1188  0.8605  0.8945
12944TIP3   OH260246   6.203   3.189  16.801  0.0577 -0.0287 -0.6716
12944TIP3    H160247   6.151   3.260  16.837 -0.4605 -0.9705  0.4940
12944TIP3    H260248   6.139   3.128  16.764  0.3102 -1.1646  0.7112
12945TIP3   OH260249   3.104   3.598  11.151 -0.0081  0.4620 -0.4155
12945TIP3    H160250   3.166   3.631  11.086  0.2180  0.3638 -0.2528
12945TIP3    H260251   3.018   3.616  11.113  0.1230 -0.5173 -1.2145
12946TIP3   OH260252   0.398   4.973  11.800 -0.1106 -0.4383  0.1099
12946TIP3    H160253   0.489   4.983  11.827 -0.5751 -0.1788  1.6797
12946TIP3    H260254   0.386   4.878  11.791  0.6282 -0.4093 -1.3046
12947TIP3   OH260255   5.944   5.405  11.956  0.2387 -0.1125  0.3484
12947TIP3    H160256   5.886   5.376  12.026 -0.1846  0.3723  0.1994
12947TIP3    H260257   5.918   5.351  11.880  1.0674 -1.0284  0.7003
12948TIP3   OH260258   4.001   0.268  11.954  0.0921  0.1822 -0.0013
12948TIP3    H160259   4.058   0.282  12.029  1.0569 -2.1797 -0.2503
12948TIP3    H260260   3.969   0.178  11.964 -2.0372  0.7979 -0.9124
12949TIP3   OH260261   0.847   3.451   4.145  0.2366  0.4942  0.1671
12949TIP3    H160262   0.782   3.513   4.112 -0.1732  0.0434  0.1220
12949TIP3    H260263   0.893   3.422   4.067 -1.1178 -1.0118 -0.1047
12950TIP3   OH260264   5.649   2.202   0.613  0.2481 -1.1000  0.1988
12950TIP3    H160265   5.571   2.150   0.593  1.4857 -2.4145 -1.3671
12950TIP3    H260266   5.682   2.166   0.695 -1.8534  0.7670  1.9273
12951TIP3   OH260267   5.455   3.556  11.163  0.7879 -0.2679 -0.0330
12951TIP3    H160268   5.394   3.630  11.161  2.7436  1.3812  0.0164
12951TIP3    H260269   5.528   3.584  11.108  1.1429 -2.5564 -0.7686
12952TIP3   OH260270   5.948   3.082   1.185  0.5063  0.2741  0.0467
12952TIP3    H160271   5.964   3.073   1.279  1.0619  0.8785  0.0098
12952TIP3    H260272   5.956   3.176   1.168 -2.1177  0.5127 -0.1514
12953TIP3   OH260273   0.124   2.774   3.156  0.2535  0.4627  0.2845
12953TIP3    H160274   0.154   2.738   3.073  0.3268  1.9206 -0.3330
12953TIP3    H260275   0.028   2.767   3.153  0.1225  2.4126 -0.8263
12954TIP3   OH260276   2.112   0.217   6.349 -0.0563  0.0156  0.0557
12954TIP3    H160277   2.137   0.279   6.418  0.0541 -1.1441  1.0832
12954TIP3    H260278   2.027   0.184   6.376  1.0509 -2.2370  0.9273
12955TIP3   OH260279   2.654   5.453  13.432  0.3983  0.0199  0.0149
12955TIP3    H160280   2.746   5.448  13.456  0.5346 -2.0646 -0.8741
12955TIP3    H260281   2.626   5.362  13.422 -1.6613  0.6356 -0.0934
12956TIP3   OH260282   0.346   4.121  15.279  0.3174 -0.1359  0.0857
12956TIP3    H160283   0.325   4.165  15.197  0.5135 -0.1469  0.0287
12956TIP3    H260284   0.347   4.192  15.344  3.6920  0.4608 -0.5134
12957TIP3   OH260285   4.293   5.802   4.113 -0.6333 -0.0627 -0.2734
12957TIP3    H160286   4.285   5.842   4.200  0.3669 -0.2950 -0.0679
12957TIP3    H260287   4.306   5.876   4.054 -1.0065  0.0756 -0.1813
12958TIP3   OH260288   6.474   2.182   1.465 -0.2579 -0.1964 -0.5753
12958TIP3    H160289   6.381   2.175   1.442  0.0417 -0.8682 -1.6400
12958TIP3    H260290   6.505   2.091   1.465  0.3005 -0.0047  0.1687
12959TIP3   OH260291   1.062   0.612  15.623  0.6645  0.4898 -0.1481
12959TIP3    H160292   1.042   0.706  15.622  2.9937  0.9972 -2.4121
12959TIP3    H260293   1.103   0.595  15.539  2.3363 -2.1174  1.1296
12960TIP3   OH260294   1.028   4.169  12.488 -0.3548 -0.4849  0.1855
12960TIP3    H160295   0.970   4.169  12.563 -0.1545 -1.1821  0.3452
12960TIP3    H260296   1.021   4.257  12.451  0.6103  0.3026  1.8351
12961TIP3   OH260297   3.959   0.197   5.326  0.3506  0.2516 -0.0272
12961TIP3    H160298   3.992   0.149   5.250  2.0061 -0.1724  0.9490
12961TIP3    H260299   4.017   0.273   5.335 -0.8831  1.2442 -0.2010
12962TIP3   OH260300   6.169   5.418  15.919  0.5032  0.1426  0.2743
12962TIP3    H160301   6.206   5.505  15.903  1.2179 -0.0829  0.6616
12962TIP3    H260302   6.181   5.371  15.836 -0.0730  0.4736 -0.0021
12963TIP3   OH260303   0.316   3.845  15.341 -0.2473 -0.4574 -0.2534
12963TIP3    H160304   0.320   3.939  15.320 -2.0386 -0.0922  0.9639
12963TIP3    H260305   0.352   3.840  15.429  1.6665 -1.1977 -1.0521
12964TIP3   OH260306   0.532   1.923  14.291  0.1112 -0.0883 -0.3991
12964TIP3    H160307   0.575   1.839  14.280 -1.0249 -1.0485  2.2491
12964TIP3    H260308   0.604   1.985  14.303  0.9621 -0.5791 -2.6426
12965TIP3   OH260309   1.362   5.819  14.263  0.1617  0.4617  0.1001
12965TIP3    H160310   1.434   5.817  14.200 -0.1277 -0.9083 -0.2011
12965TIP3    H260311   1.334   5.911  14.265  2.2050  1.0975  0.5713
12966TIP3   OH260312   6.057   0.952  13.582 -0.6300  0.0182  0.1154
12966TIP3    H160313   6.099   0.867  13.598  1.7050  0.9775 -0.6870
12966TIP3    H260314   6.084   1.006  13.657 -0.1869  0.7104 -0.5317
12967TIP3   OH260315   4.916   2.683  14.823  0.3763  0.0469 -0.2199
12967TIP3    H160316   4.873   2.763  14.794  2.6079  1.2644 -0.3037
12967TIP3    H260317   4.893   2.674  14.915 -0.3360  0.4686 -0.3571
12968TIP3   OH260318   4.761   6.192  14.079 -0.2375 -0.4867 -0.0194
12968TIP3    H160319   4.842   6.176  14.127  0.0059 -1.5285 -0.7638
12968TIP3    H260320   4.782   6.266  14.022 -0.0843 -0.1836  0.4232
12969TIP3   OH260321   4.233   6.326  13.652 -0.0982  0.6579  0.7702
12969TIP3    H160322   4.191   6.258  13.599  0.1203  0.4387  0.8763
12969TIP3    H260323   4.242   6.287  13.738 -0.2704  0.9433  0.9183
12970TIP3   OH260324   4.874   4.268  13.070  0.5074  0.2893 -0.2298
12970TIP3    H160325   4.882   4.352  13.024  0.4035  0.6494  0.4104
12970TIP3    H260326   4.948   4.267  13.131 -0.1998  0.4566  0.6272
12971TIP3   OH260327   5.746   4.301  10.646  0.3778 -0.1448  0.0016
12971TIP3    H160328   5.816   4.281  10.707 -0.2233 -1.4594  0.2618
12971TIP3    H260329   5.666   4.287  10.695 -0.1422 -2.3595 -1.4068
12972TIP3   OH260330   4.199   4.245   2.073 -0.3265  0.1335  0.1782
12972TIP3    H160331   4.195   4.261   1.979 -1.2832  1.7889  0.4686
12972TIP3    H260332   4.138   4.173   2.088 -1.3154  0.8710 -0.2779
12973TIP3   OH260333   4.051   6.426  10.933  0.0593 -0.4824 -0.3806
12973TIP3    H160334   4.103   6.503  10.955 -0.4893 -0.3145  0.3488
12973TIP3    H260335   4.021   6.443  10.843 -0.2857  0.2895 -0.1271
12974TIP3   OH260336   5.888   3.373   2.436 -0.2082  0.1531 -0.1650
12974TIP3    H160337   5.917   3.464   2.441  0.4926 -0.1582  1.8897
12974TIP3    H260338   5.967   3.322   2.450 -0.6875 -0.7731 -0.7906
12975TIP3   OH260339   1.994   4.226   5.370 -0.2944  0.9222 -0.0110
12975TIP3    H160340   2.027   4.310   5.401  0.6530  0.4745  0.2036
12975TIP3    H260341   2.039   4.161   5.424 -2.8027  0.3492  1.4779
12976TIP3   OH260342   0.301   0.493  12.160 -0.0487 -0.7771 -0.0269
12976TIP3    H160343   0.227   0.457  12.110 -1.3124 -2.1407  2.7223
12976TIP3    H260344   0.261   0.560  12.216  1.3557  0.7245 -0.7737
12977TIP3   OH260345   1.271   1.610   1.502 -0.2161  0.4808  0.1510
12977TIP3    H160346   1.178   1.593   1.489 -0.0339  0.3897 -1.0594
12977TIP3    H260347   1.307   1.616   1.414  0.7077  1.7139  0.6017
12978TIP3   OH260348   1.990   6.749  15.164  0.0654 -0.0587  0.2815
12978TIP3    H160349   1.908   6.798  15.155  0.6916  0.9753  0.1621
12978TIP3    H260350   2.015   6.729  15.074 -0.2249 -0.6781  0.3317
12979TIP3   OH260351   2.841   1.480  14.147 -0.3630 -0.0533  0.3448
12979TIP3    H160352   2.872   1.391  14.165  0.7422  0.1013 -0.7300
12979TIP3    H260353   2.921   1.533  14.142 -0.8676  0.5901 -1.1824
12980TIP3   OH260354   5.265   3.822   0.418 -0.1113 -0.1228 -0.0098
12980TIP3    H160355   5.303   3.794   0.501  0.9918 -1.3933 -0.9284
12980TIP3    H260356   5.306   3.906   0.399 -0.4437  0.2196  0.7729
12981TIP3   OH260357   4.649   4.454   6.099  0.5107 -0.4630 -0.1052
12981TIP3    H160358   4.567   4.504   6.100 -0.3865 -1.8777 -0.4240
12981TIP3    H260359   4.666   4.433   6.191  0.5716 -0.0591 -0.0273
12982TIP3   OH260360   5.052   4.954  12.208 -0.0937 -0.4732 -0.3065
12982TIP3    H160361   5.069   4.888  12.276  0.6592 -0.1847 -0.2119
12982TIP3    H260362   5.122   5.018  12.220 -1.7907  1.2380  0.7164
12983TIP3   OH260363   2.233   2.202   4.573  0.3111 -0.0930  0.2919
12983TIP3    H160364   2.210   2.125   4.626 -2.3543  1.3335  1.3107
12983TIP3    H260365   2.294   2.252   4.629  0.0730 -0.2170  0.6632
12984TIP3   OH260366   0.634   3.086  16.317 -0.3976 -0.9831 -0.3787
12984TIP3    H160367   0.713   3.124  16.277  1.0643 -1.8015  1.6499
12984TIP3    H260368   0.622   3.137  16.397 -1.0490 -1.8424  0.0741
12985TIP3   OH260369   3.452   0.310  16.980 -0.4383 -0.5037 -0.3940
12985TIP3    H160370   3.364   0.301  17.016 -0.3577  0.6903  0.1316
12985TIP3    H260371   3.504   0.345  17.053 -0.0831  1.1386 -1.4017
12986TIP3   OH260372   1.189   2.798   0.008 -0.1059  0.3880  0.3074
12986TIP3    H160373   1.138   2.755   0.077 -1.2945  0.1062 -0.7311
12986TIP3    H260374   1.180   2.741  -0.068  0.1078  1.3474 -0.4577
12987TIP3   OH260375   1.521   6.560   2.743  0.2682 -0.0579 -0.3082
12987TIP3    H160376   1.564   6.483   2.780  0.5149  0.1956 -0.0683
12987TIP3    H260377   1.555   6.566   2.654 -0.1291 -0.5162 -0.4978
12988TIP3   OH260378   3.059   1.517  12.478 -0.7761  0.0348  0.2387
12988TIP3    H160379   3.131   1.529  12.416 -0.6080 -1.6949  0.0772
12988TIP3    H260380   3.028   1.606  12.497 -0.4961  0.6163 -1.9252
12989TIP3   OH260381   3.374   0.849   6.450  1.0381 -0.2926  0.3321
12989TIP3    H160382   3.322   0.910   6.504 -0.0151 -0.5528 -0.3698
12989TIP3    H260383   3.394   0.899   6.371  0.8565 -0.5834  0.1009
12990TIP3   OH260384   6.430   4.166  13.455  0.1003 -0.0278 -0.4987
12990TIP3    H160385   6.377   4.086  13.446 -0.9232  0.4290  1.2518
12990TIP3    H260386   6.514   4.143  13.415  0.0955 -2.2728  0.6841
12991TIP3   OH260387   3.907   5.793  16.079 -0.6087 -0.4338 -0.4964
12991TIP3    H160388   3.927   5.875  16.034  0.4843 -0.6570 -0.4442
12991TIP3    H260389   3.846   5.818  16.148  0.0493  0.4209 -0.2104
12992TIP3   OH260390   0.015   6.144  15.355  0.3111  0.1117  0.0161
12992TIP3    H160391  -0.044   6.206  15.398 -0.5701 -1.0638  0.5358
12992TIP3    H260392   0.051   6.192  15.280 -1.7931  0.6505 -0.6808
12993TIP3   OH260393   5.351   2.185   6.000  0.3268 -0.3814  0.1114
12993TIP3    H160394   5.276   2.128   5.983  0.5370 -1.0223  1.2802
12993TIP3    H260395   5.361   2.236   5.919 -0.3241 -1.4700 -0.6722
12994TIP3   OH260396   2.458   4.942   3.711 -0.0199  0.2758 -0.0330
12994TIP3    H160397   2.514   4.868   3.737  0.0281  0.4998  0.4950
12994TIP3    H260398   2.495   5.017   3.757 -1.1637  0.3118  0.8607
12995TIP3   OH260399   5.509   3.523  12.835  0.0691  0.5423  0.5632
12995TIP3    H160400   5.535   3.546  12.924  1.4815  0.1110  0.2634
12995TIP3    H260401   5.481   3.606  12.797 -1.0981  0.6343  1.5853
12996TIP3   OH260402   2.617   6.782  15.371 -0.2947 -0.0641 -0.0147
12996TIP3    H160403   2.712   6.793  15.366  0.0051 -2.5919 -1.1330
12996TIP3    H260404   2.605   6.702  15.423 -1.9530  1.8008  2.5850
12997TIP3   OH260405   3.582   1.484   2.495 -0.5498  0.1864 -0.3788
12997TIP3    H160406   3.520   1.555   2.476 -1.3587  0.4611  2.9913
12997TIP3    H260407   3.531   1.418   2.541  1.2043 -0.4392  0.7500
12998TIP3   OH260408   5.004   4.014  14.230 -0.1052  0.0746 -0.0524
12998TIP3    H160409   5.011   3.956  14.155  2.4472 -0.8820  0.8690
12998TIP3    H260410   4.931   3.979  14.281 -0.1903 -0.8134 -0.7808
12999TIP3   OH260411   5.826   1.624   4.928  0.2217  0.1334  0.4258
12999TIP3    H160412   5.837   1.583   5.014 -1.9762  0.7598  1.0413
12999TIP3    H260413   5.735   1.653   4.928  0.2958  0.4036 -2.0101
13000TIP3   OH260414   3.668   1.047   6.064  0.5915  0.2539 -0.3834
13000TIP3    H160415   3.750   1.000   6.077  0.8156  1.1927  1.9434
13000TIP3    H260416   3.695   1.135   6.040  0.3000  0.6711  0.7746
13001TIP3   OH260417   1.493   5.921   2.765 -0.3817  0.1033  0.1918
13001TIP3    H160418   1.435   5.887   2.697 -0.5138 -0.4450  0.5789
13001TIP3    H260419   1.574   5.942   2.719 -0.9693  1.1213 -0.4038
13002TIP3   OH260420   2.794   5.132   4.753 -0.5453  0.2644  0.0664
13002TIP3    H160421   2.751   5.054   4.717 -0.0986 -0.5907  1.3531
13002TIP3    H260422   2.796   5.117   4.847  1.2851  0.9386  0.1614
13003TIP3   OH260423   5.425   1.722  13.486  0.1553 -0.3883  0.2034
13003TIP3    H160424   5.352   1.721  13.424  0.8192 -1.2741 -0.5708
13003TIP3    H260425   5.387   1.687  13.567 -0.4229 -0.2836 -0.0198
13004TIP3   OH260426   0.993   5.214  15.260  0.2135 -0.5072 -0.4753
13004TIP3    H160427   1.038   5.245  15.339 -1.2186  0.2956  0.0490
13004TIP3    H260428   0.999   5.288  15.199 -0.7146 -0.2376 -0.2560
13005TIP3   OH260429   1.451   0.079  15.962  0.0616 -0.0924 -0.3237
13005TIP3    H160430   1.438   0.032  16.045 -1.8538 -1.6647 -1.4741
13005TIP3    H260431   1.509   0.152  15.985 -1.4084  0.2142  2.6406
13006TIP3   OH260432   4.458   0.182   5.368 -0.0746 -0.2013 -0.1811
13006TIP3    H160433   4.552   0.186   5.389 -0.1163 -1.1083  0.2251
13006TIP3    H260434   4.447   0.242   5.294  0.7447  0.2492  0.0534
13007TIP3   OH260435   1.075   5.629   3.618  0.0152 -0.0831 -0.5239
13007TIP3    H160436   1.047   5.708   3.571  0.7541 -0.0471 -0.9201
13007TIP3    H260437   1.082   5.562   3.550  0.0296 -0.3151 -0.2937
13008TIP3   OH260438   3.349   0.115   3.410  0.6013  0.2483  0.2207
13008TIP3    H160439   3.336   0.204   3.379 -1.8232  0.2105  1.0586
13008TIP3    H260440   3.391   0.125   3.495 -1.0488  0.6730  1.0087
13009TIP3   OH260441   2.723   6.193  14.891  0.1166  0.1146 -0.2373
13009TIP3    H160442   2.656   6.171  14.956 -0.8728 -0.7640 -1.5237
13009TIP3    H260443   2.803   6.153  14.924  0.0523  1.2862  1.3865
13010TIP3   OH260444   1.265   3.185  13.261  0.6229  0.1195  0.0745
13010TIP3    H160445   1.247   3.260  13.317  0.2310 -1.4541  2.1265
13010TIP3    H260446   1.338   3.140  13.304  0.9203 -0.6160 -1.1692
13011TIP3   OH260447   5.249   2.341   0.216 -0.5673  0.1121  0.3731
13011TIP3    H160448   5.190   2.353   0.142 -0.7639  1.0394  0.6666
13011TIP3    H260449   5.311   2.414   0.210 -0.8159  0.4105  1.3286
13012TIP3   OH260450   0.142   5.641  13.564 -0.3615 -0.0694  0.3283
13012TIP3    H160451   0.200   5.570  13.535  0.2103  0.6962 -0.4331
13012TIP3    H260452   0.178   5.668  13.649  1.2645  1.3243 -0.7612
13013TIP3   OH260453   0.008   3.440  11.001  0.2074  0.4343  0.1430
13013TIP3    H160454  -0.043   3.506  10.954 -0.4953  1.8114  2.7160
13013TIP3    H260455  -0.057   3.380  11.038  0.6722 -0.0413  0.2034
13014TIP3   OH260456   1.632   0.131  12.703 -0.3364  0.3327 -0.1830
13014TIP3    H160457   1.557   0.125  12.763 -0.4894  1.2164 -0.2854
13014TIP3    H260458   1.600   0.181  12.629 -0.5634 -1.9884 -1.6906
13015TIP3   OH260459   3.749   4.019   4.673 -0.4639 -0.2497  0.0546
13015TIP3    H160460   3.707   4.096   4.713  3.1555  1.1791  1.3425
13015TIP3    H260461   3.832   4.052   4.640 -0.1017 -3.0694 -2.0138
13016TIP3   OH260462   4.092   2.490  14.369 -0.4165 -0.0625 -0.4454
13016TIP3    H160463   4.030   2.503  14.440 -0.2795  0.1937 -0.3714
13016TIP3    H260464   4.074   2.562  14.308  0.6036  0.7087  0.1456
13017TIP3   OH260465   0.625   3.271   4.197 -0.0189 -0.4219  0.0106
13017TIP3    H160466   0.574   3.248   4.120  1.1725 -1.8214 -0.3650
13017TIP3    H260467   0.656   3.360   4.179  0.8004 -0.9850 -1.4071
13018TIP3   OH260468   2.761   2.953   0.611  0.0872  0.6899 -0.1887
13018TIP3    H160469   2.725   2.942   0.699  1.3298  1.0195  0.3675
13018TIP3    H260470   2.694   2.916   0.553 -0.8283  0.6576  0.8730
13019TIP3   OH260471   2.115   1.738  14.597 -0.3836  0.3349  0.5750
13019TIP3    H160472   2.039   1.692  14.632 -0.4284 -0.0547 -0.0313
13019TIP3    H260473   2.154   1.780  14.673 -1.1832  0.5046  0.8976
13020TIP3   OH260474   5.267   3.784  14.104  0.5256 -0.3057 -0.4661
13020TIP3    H160475   5.318   3.865  14.110 -0.1543  0.0176  1.6297
13020TIP3    H260476   5.179   3.813  14.080  0.3573 -0.4413 -0.0205
13021TIP3   OH260477   1.458   5.358   0.316  0.2462  0.0122  0.4674
13021TIP3    H160478   1.522   5.394   0.256  1.9955 -1.6841  1.2800
13021TIP3    H260479   1.401   5.432   0.338  0.8200  1.1003 -1.6477
13022TIP3   OH260480   0.011   5.712  15.167 -0.0195  0.7283 -0.3703
13022TIP3    H160481   0.055   5.782  15.215 -0.6208  0.6836  0.2646
13022TIP3    H260482  -0.053   5.677  15.230  1.8008 -1.8917  0.1036
13023TIP3   OH260483   3.416   1.706  13.880 -0.5722  0.1828 -0.3054
13023TIP3    H160484   3.442   1.617  13.858  0.5284  0.8250 -1.6820
13023TIP3    H260485   3.495   1.747  13.916 -0.8539  0.8096 -0.3799
13024TIP3   OH260486   2.236   1.230  15.423 -0.1133 -0.3198  0.1572
13024TIP3    H160487   2.206   1.262  15.338  2.3127  1.0225 -0.2391
13024TIP3    H260488   2.204   1.294  15.486  1.9206  1.1683 -0.2740
13025TIP3   OH260489   1.795   4.432  11.272 -0.3618  0.3957  0.1270
13025TIP3    H160490   1.759   4.418  11.185  0.1997  0.6408 -0.1468
13025TIP3    H260491   1.878   4.385  11.273 -0.5309  0.1006  0.6488
13026TIP3   OH260492   1.530   6.588  11.823 -0.1147  0.3942 -0.3740
13026TIP3    H160493   1.522   6.492  11.820  2.1630  0.1800 -0.4102
13026TIP3    H260494   1.486   6.618  11.744 -1.6379 -0.5529  0.0910
13027TIP3   OH260495   6.477   3.845  11.752 -0.1454  0.6142  0.0730
13027TIP3    H160496   6.449   3.914  11.813 -0.2282 -0.1186  0.8835
13027TIP3    H260497   6.514   3.892  11.678  2.2503  1.5105  1.7802
13028TIP3   OH260498   4.051   4.938   0.909  0.5311  0.2309 -0.3310
13028TIP3    H160499   3.980   4.959   0.970  0.4581 -1.7728  0.3199
13028TIP3    H260500   4.114   5.009   0.920 -1.6592  2.4243 -1.4223
13029TIP3   OH260501   1.940   6.022   1.448 -0.1182  0.0753 -0.0405
13029TIP3    H160502   1.881   5.956   1.485  2.0796 -1.9159  0.0274
13029TIP3    H260503   1.989   6.056   1.523 -0.0912  0.6121 -0.2951
13030TIP3   OH260504   3.818   6.005  15.167  0.3472 -0.8225  0.4474
13030TIP3    H160505   3.904   6.015  15.125 -0.1189 -3.2371 -1.1641
13030TIP3    H260506   3.771   6.086  15.146  2.0829  0.3809  1.0753
13031TIP3   OH260507   3.704   6.037  11.218 -0.1350  0.0539 -0.3192
13031TIP3    H160508   3.772   6.033  11.285 -1.6045 -1.1233  1.1449
13031TIP3    H260509   3.673   5.947  11.210 -1.1730  0.4807 -1.3304
13032TIP3   OH260510   4.666   0.060  16.615  0.4471 -0.0887  0.3583
13032TIP3    H160511   4.695   0.068  16.706 -2.0457 -1.6072  1.3361
13032TIP3    H260512   4.616   0.139  16.598 -0.8218 -0.7540  0.9848
13033TIP3   OH260513   1.792   4.723   3.829 -0.0829 -0.4155  0.1092
13033TIP3    H160514   1.848   4.771   3.768 -1.7967 -0.1102 -1.2495
13033TIP3    H260515   1.815   4.631   3.814  1.1531 -0.2217  0.6839
13034TIP3   OH260516   4.529   0.220  14.939 -0.9414  0.5171  0.0084
13034TIP3    H160517   4.548   0.295  14.995 -0.7705 -0.5456  1.4024
13034TIP3    H260518   4.582   0.149  14.975 -0.5427 -0.0931 -1.7384
13035TIP3   OH260519   5.559   1.603  15.059 -0.0836  0.4105  0.2679
13035TIP3    H160520   5.526   1.517  15.036  2.8101 -1.0124  1.2137
13035TIP3    H260521   5.540   1.658  14.983 -1.9133 -1.0464 -0.3458
13036TIP3   OH260522   6.712   2.790   2.054  0.1204  0.4503  0.1473
13036TIP3    H160523   6.734   2.758   1.967 -0.1302 -2.1870  1.0166
13036TIP3    H260524   6.795   2.790   2.101  0.0997  0.9974  0.1882
13037TIP3   OH260525   2.581   5.621   1.394  0.5677  0.3562 -0.0899
13037TIP3    H160526   2.674   5.633   1.412  0.2132  1.7474  0.9746
13037TIP3    H260527   2.539   5.698   1.435 -1.1561 -0.9030  0.5688
13038TIP3   OH260528   3.558   0.679   4.589 -0.9023  0.1135 -0.1207
13038TIP3    H160529   3.574   0.642   4.502 -0.8552 -0.1909  0.0180
13038TIP3    H260530   3.480   0.734   4.577  0.2042  1.5737 -0.7815
13039TIP3   OH260531   3.429   2.755  16.578  0.2903 -0.2873 -0.3631
13039TIP3    H160532   3.335   2.753  16.595  0.3020 -1.3649 -0.3543
13039TIP3    H260533   3.443   2.834  16.526 -0.2394  1.2634  1.8101
13040TIP3   OH260534   2.589   6.053   0.469 -0.2539  0.1752 -0.3292
13040TIP3    H160535   2.650   6.066   0.395 -1.1906  3.3564 -0.6140
13040TIP3    H260536   2.502   6.067   0.431 -0.8347  0.4924  1.1012
13041TIP3   OH260537   0.587   3.875   0.099  0.0091 -0.7672 -0.0930
13041TIP3    H160538   0.580   3.943   0.032 -0.3218 -0.7415 -0.0316
13041TIP3    H260539   0.575   3.793   0.051  0.2052 -0.7721 -0.1343
13042TIP3   OH260540   6.657   2.569   2.378  0.4286 -0.5527  0.0746
13042TIP3    H160541   6.744   2.531   2.378 -0.5633 -2.9700  2.0613
13042TIP3    H260542   6.615   2.533   2.300  1.4961  1.4316 -1.4589
13043TIP3   OH260543   2.475   3.840   1.561  0.0130  0.2803 -0.5674
13043TIP3    H160544   2.512   3.902   1.624 -1.3319  1.2820 -0.7427
13043TIP3    H260545   2.388   3.874   1.542 -1.1521 -2.2042  0.0832
13044TIP3   OH260546   3.811   1.954   1.671 -0.2084 -0.1089 -0.1152
13044TIP3    H160547   3.832   1.935   1.579  2.3788 -1.0064  0.6033
13044TIP3    H260548   3.778   1.871   1.706 -1.3838  0.2863 -0.2663
13045TIP3   OH260549   2.384   1.335   4.101  0.4081 -0.1101  0.0451
13045TIP3    H160550   2.330   1.414   4.111  0.7563 -0.0812  1.9714
13045TIP3    H260551   2.321   1.265   4.087  0.1520  0.6680 -3.1122
13046TIP3   OH260552   0.011   1.715   0.628 -0.0896 -0.6097  0.1115
13046TIP3    H160553  -0.057   1.708   0.695 -0.2713 -0.9404 -0.1058
13046TIP3    H260554  -0.036   1.743   0.549  0.1846  0.1884  0.2247
13047TIP3   OH260555   5.099   5.438   2.804 -1.0689 -0.0273 -0.5907
13047TIP3    H160556   5.133   5.405   2.887 -1.0171  1.0785 -0.1630
13047TIP3    H260557   5.060   5.523   2.826 -0.7258  0.4431 -1.7625
13048TIP3   OH260558   5.659   4.103   3.535  0.2671  0.0145 -0.1972
13048TIP3    H160559   5.627   4.079   3.622 -1.8336 -0.0339 -0.9527
13048TIP3    H260560   5.636   4.196   3.527 -1.3089 -0.4603 -1.4320
13049TIP3   OH260561   2.300   6.048   0.575  0.2555  0.6374  0.0039
13049TIP3    H160562   2.264   5.962   0.556  0.2377  0.5801  0.2942
13049TIP3    H260563   2.347   6.037   0.658 -0.0796  0.9985  0.2448
13050TIP3   OH260564   1.154   4.825  11.751 -0.5574  0.0639  0.6128
13050TIP3    H160565   1.222   4.758  11.755  0.3230  0.9311  0.2952
13050TIP3    H260566   1.094   4.802  11.822 -0.9407 -1.7787 -0.2593
13051TIP3   OH260567   4.446   5.941  11.696  0.8857  0.2794  0.1926
13051TIP3    H160568   4.465   6.004  11.626  2.2466 -0.6005 -0.2456
13051TIP3    H260569   4.527   5.938  11.748  0.5539 -0.5191  0.6750
13052TIP3   OH260570   0.282   6.498  12.696  0.6947 -0.6070 -0.1576
13052TIP3    H160571   0.324   6.489  12.611 -0.4272  0.6706 -0.8654
13052TIP3    H260572   0.228   6.577  12.688  1.2372  0.0278  1.9981
13053TIP3   OH260573   5.661   3.453   0.200 -0.1038 -0.2054  0.0112
13053TIP3    H160574   5.703   3.367   0.202  0.3526 -0.0554 -1.5942
13053TIP3    H260575   5.577   3.438   0.156  0.5779  0.3788 -1.5430
13054TIP3   OH260576   6.009   6.343   0.147  0.5128 -0.3545 -0.0770
13054TIP3    H160577   5.985   6.395   0.070  0.1717 -0.9838 -0.3959
13054TIP3    H260578   5.932   6.289   0.164  1.0472 -1.1018 -0.0295
13055TIP3   OH260579   0.568   3.261   0.005 -0.0653 -0.2875 -0.4671
13055TIP3    H160580   0.523   3.325   0.060 -1.5938 -1.2029 -0.6188
13055TIP3    H260581   0.603   3.197   0.067 -1.1658 -0.9278 -0.4847
13056TIP3   OH260582   5.953   1.988  11.172  0.7748 -0.7322  0.5008
13056TIP3    H160583   5.872   2.005  11.123 -0.1772 -2.6703  1.3433
13056TIP3    H260584   6.017   1.965  11.105 -0.1397 -1.9671  0.0272
13057TIP3   OH260585   3.793   2.137  17.160 -0.1925  0.5223 -0.2666
13057TIP3    H160586   3.789   2.223  17.118  1.4476  1.2267  0.9825
13057TIP3    H260587   3.708   2.128  17.203 -0.3179  1.5900 -0.2778
13058TIP3   OH260588   3.316   0.187   5.826  0.3164  0.1241 -0.2962
13058TIP3    H160589   3.270   0.163   5.906  2.3147  2.4256  1.6236
13058TIP3    H260590   3.368   0.110   5.803 -0.4347 -0.6186  0.5141
13059TIP3   OH260591   2.622   0.063  13.632 -0.8902  0.4660  0.2006
13059TIP3    H160592   2.696   0.120  13.612 -0.4456 -0.2191 -0.1341
13059TIP3    H260593   2.656  -0.025  13.620 -1.2156  0.0946  1.9652
13060TIP3   OH260594   0.872   0.111   1.303  0.6690 -0.0875 -0.1803
13060TIP3    H160595   0.789   0.096   1.257  0.5104  1.4497 -0.4164
13060TIP3    H260596   0.934   0.135   1.234  1.1218 -0.4383  0.0963
13061TIP3   OH260597   5.576   5.786   4.023  0.1791 -0.9429 -0.1685
13061TIP3    H160598   5.603   5.801   4.113  0.2612 -1.7031 -0.0663
13061TIP3    H260599   5.606   5.864   3.976  1.6354 -1.3079  0.1315
13062TIP3   OH260600   4.373   3.972  14.374  0.0985  0.1341 -0.8027
13062TIP3    H160601   4.401   3.887  14.410  0.8846  1.3126  1.5230
13062TIP3    H260602   4.444   3.997  14.315  1.1537  0.3410  0.5078
13063TIP3   OH260603   4.504   4.718   1.029  0.3375  0.0870  0.3231
13063TIP3    H160604   4.535   4.781   0.964  1.1816 -0.7455 -0.0875
13063TIP3    H260605   4.417   4.692   0.999 -0.0305  1.0472  0.5033
13064TIP3   OH260606   5.489   4.047   1.519  0.1600 -0.6030 -0.3097
13064TIP3    H160607   5.524   4.044   1.608  0.2850 -2.2443 -0.3998
13064TIP3    H260608   5.500   4.138   1.491  0.8764 -0.2746  1.0483
13065TIP3   OH260609   2.219   0.999  11.725 -0.5558 -0.6257  0.2008
13065TIP3    H160610   2.182   1.017  11.812  0.3672  1.8469  0.1138
13065TIP3    H260611   2.267   0.917  11.736 -1.7775 -1.1772  1.6100
13066TIP3   OH260612   1.551   1.433   1.000 -0.4106 -0.1993 -0.2950
13066TIP3    H160613   1.585   1.523   0.999  0.6724 -0.5744  1.5413
13066TIP3    H260614   1.618   1.383   0.954 -1.3916  0.0264 -2.0347
13067TIP3   OH260615   0.305   0.644   1.841 -0.2196  0.8861 -0.7006
13067TIP3    H160616   0.308   0.705   1.767  1.0813 -0.2079 -1.5745
13067TIP3    H260617   0.396   0.639   1.870 -0.8257  1.8667  1.4534
13068TIP3   OH260618   4.423   1.092  12.456 -0.2687  0.4659 -0.4028
13068TIP3    H160619   4.338   1.064  12.488  0.6182 -1.4703  0.3300
13068TIP3    H260620   4.420   1.188  12.462 -3.0372  0.5311 -2.1513
13069TIP3   OH260621   0.107   2.808  15.873 -0.6061 -0.0741 -0.4824
13069TIP3    H160622   0.098   2.713  15.861 -0.1689 -0.0084 -1.4564
13069TIP3    H260623   0.183   2.818  15.931 -1.5801 -0.3598  0.8563
13070TIP3   OH260624   6.344   6.232  13.391  0.1625  0.0941 -0.3326
13070TIP3    H160625   6.406   6.165  13.419 -1.0356  0.6059  3.8745
13070TIP3    H260626   6.398   6.309  13.373  1.0424 -0.2804  0.6343
13071TIP3   OH260627   5.279   2.423   3.579  0.4675  0.2435 -0.0921
13071TIP3    H160628   5.285   2.445   3.672 -0.4870 -0.7986  0.2127
13071TIP3    H260629   5.273   2.328   3.576  3.2133  0.0415 -1.3632
13072TIP3   OH260630   3.521   3.001  11.366 -0.1701 -0.1882 -0.0575
13072TIP3    H160631   3.524   3.029  11.457 -0.2379 -2.0066  0.5323
13072TIP3    H260632   3.494   3.079  11.318 -0.2169  0.7720  1.4821
13073TIP3   OH260633   2.337   3.544  11.078  0.1741 -0.4388 -0.8764
13073TIP3    H160634   2.271   3.611  11.094  0.6889  0.1075 -1.0266
13073TIP3    H260635   2.389   3.578  11.005  2.0601  0.2168  0.7183
13074TIP3   OH260636   3.785   0.391  14.345 -0.1934  0.0823 -0.1397
13074TIP3    H160637   3.758   0.351  14.263 -2.1082  1.6194 -0.2716
13074TIP3    H260638   3.840   0.465  14.319  1.8315 -1.3132  0.0644
13075TIP3   OH260639   2.755   2.301  16.836  0.3131 -0.0654 -0.4444
13075TIP3    H160640   2.781   2.389  16.864 -0.3424  0.6096 -1.9566
13075TIP3    H260641   2.665   2.292  16.866  0.6547 -0.5609  0.4648
13076TIP3   OH260642   5.455   5.188  11.258 -0.0924  0.7069  0.7114
13076TIP3    H160643   5.496   5.272  11.237  0.9959  0.1912  0.7730
13076TIP3    H260644   5.460   5.138  11.177  1.0956 -0.0452  1.2337
13077TIP3   OH260645   6.316   5.996   5.094  0.1651  0.1405 -0.0049
13077TIP3    H160646   6.347   5.906   5.104 -0.0007 -0.0053 -0.7719
13077TIP3    H260647   6.361   6.045   5.163 -0.1110 -0.6237  0.7247
13078TIP3   OH260648   0.217   3.068   3.887 -0.0832 -0.0454  0.2440
13078TIP3    H160649   0.253   3.143   3.934 -0.0709 -0.4846  0.9492
13078TIP3    H260650   0.253   3.075   3.798 -0.6997  1.2063  0.0800
13079TIP3   OH260651   0.334   3.554  12.179 -0.6309  0.2638  0.0887
13079TIP3    H160652   0.408   3.495  12.165 -1.0168 -0.3652  0.6970
13079TIP3    H260653   0.341   3.618  12.107 -0.2053 -0.5072 -0.5654
13080TIP3   OH260654   1.419   0.992   0.909 -0.0880  0.2404  0.4952
13080TIP3    H160655   1.332   0.962   0.937 -1.1244  2.3575 -0.2710
13080TIP3    H260656   1.466   1.009   0.990 -0.7084 -0.0514  0.9188
13081TIP3   OH260657   6.657   5.108   0.839 -0.8512  0.1517 -0.2241
13081TIP3    H160658   6.568   5.083   0.867 -0.5037 -0.9530 -0.0932
13081TIP3    H260659   6.668   5.197   0.872 -0.5977 -0.9804  2.9348
13082TIP3   OH260660   3.784   3.089  11.530  0.1883 -0.3933  0.2439
13082TIP3    H160661   3.790   3.060  11.439  1.1993 -1.1977  0.5471
13082TIP3    H260662   3.696   3.063  11.557 -0.0749 -0.2612 -0.4661
13083TIP3   OH260663   6.326   3.464  12.199 -0.0609  0.3149  0.2850
13083TIP3    H160664   6.353   3.400  12.134  0.2351 -0.4861  1.1829
13083TIP3    H260665   6.248   3.505  12.161  0.5435  0.3864 -0.8959
13084TIP3   OH260666   0.963   0.881  14.057 -0.2959  0.1297  0.2355
13084TIP3    H160667   0.898   0.942  14.022  0.4202  1.6138  1.4734
13084TIP3    H260668   0.915   0.829  14.122  0.0277  2.0592  2.0521
13085TIP3   OH260669   0.741   1.856  14.566  0.7117 -0.5205  0.1600
13085TIP3    H160670   0.682   1.800  14.515  0.9805 -1.1636  0.5569
13085TIP3    H260671   0.708   1.850  14.656  0.5568  0.1977  0.1515
13086TIP3   OH260672   1.565   4.953   3.453 -0.1884 -0.1209  0.4410
13086TIP3    H160673   1.656   4.944   3.480 -0.4787 -0.7970  1.2131
13086TIP3    H260674   1.547   5.047   3.459  0.5740  0.0649 -0.1234
13087TIP3   OH260675   4.956   1.877  12.863 -0.4633  0.6644  0.0910
13087TIP3    H160676   4.953   1.799  12.919  1.8530  1.2250  1.0540
13087TIP3    H260677   4.974   1.842  12.776 -0.2895  0.0586  0.3624
13088TIP3   OH260678   4.313   0.323   4.543  0.3613 -0.4338 -0.2443
13088TIP3    H160679   4.303   0.289   4.632  0.3356 -2.1038 -0.8676
13088TIP3    H260680   4.321   0.418   4.554 -0.3060 -0.5645  1.4799
13089TIP3   OH260681   1.764   3.496   0.011 -0.1800 -0.3713 -0.2693
13089TIP3    H160682   1.727   3.410   0.034  0.4870 -0.3967  0.6866
13089TIP3    H260683   1.828   3.476  -0.057 -0.8547 -0.4919 -0.8854
13090TIP3   OH260684   5.640   5.851   4.283  0.1196  0.3576  0.3494
13090TIP3    H160685   5.708   5.897   4.331 -0.1670  2.0828 -0.8706
13090TIP3    H260686   5.559   5.874   4.329  0.1274 -0.0582  0.5759
13091TIP3   OH260687   0.878   0.687  16.634 -0.0799 -0.5000  0.3799
13091TIP3    H160688   0.901   0.708  16.543 -0.8992 -0.2579  0.2273
13091TIP3    H260689   0.959   0.653  16.671  0.2735 -0.5751 -0.4342
13092TIP3   OH260690   0.946   0.636   4.733 -0.0311  0.6872  0.2732
13092TIP3    H160691   0.864   0.619   4.777 -0.9270 -0.1844 -1.6702
13092TIP3    H260692   0.948   0.732   4.723 -1.3256  0.6346 -0.6178
13093TIP3   OH260693   5.613   4.457  10.856  0.9685 -0.2687 -0.3360
13093TIP3    H160694   5.532   4.492  10.820  1.9084  1.2272 -1.0218
13093TIP3    H260695   5.665   4.534  10.878  0.9374 -1.1330  3.1183
13094TIP3   OH260696   0.068   4.623  15.017 -0.2108 -0.6840 -0.0484
13094TIP3    H160697  -0.017   4.666  15.019  1.1937  2.2860 -0.6419
13094TIP3    H260698   0.081   4.601  14.924  0.2742  0.1951 -0.1953
13095TIP3   OH260699   0.781   2.215  11.024  0.4057 -0.1557 -0.4088
13095TIP3    H160700   0.816   2.253  10.944  0.8381 -1.8555 -1.0299
13095TIP3    H260701   0.856   2.175  11.067 -0.2799 -1.5433 -0.4654
13096TIP3   OH260702   6.459   0.600  12.661 -0.3364  0.2006 -0.3402
13096TIP3    H160703   6.492   0.642  12.741  1.1639 -0.6106 -0.5238
13096TIP3    H260704   6.499   0.650  12.590 -0.9991  0.3820 -0.5907
13097TIP3   OH260705   2.270   0.512   4.641  0.0570 -0.0696  0.4601
13097TIP3    H160706   2.272   0.434   4.586  0.4659 -0.7693  1.4513
13097TIP3    H260707   2.275   0.585   4.580  0.8376 -0.8407 -0.4005
13098TIP3   OH260708   1.449   2.482   4.951  0.3601 -0.1937 -0.1936
13098TIP3    H160709   1.390   2.449   5.019  0.1365 -0.3023 -0.4399
13098TIP3    H260710   1.401   2.555   4.911 -0.1568 -1.0889 -1.2484
13099TIP3   OH260711   1.820   5.797   1.583  0.2423  0.5836 -0.2619
13099TIP3    H160712   1.813   5.705   1.560 -1.0762  0.7379 -0.5552
13099TIP3    H260713   1.836   5.798   1.677 -2.1728  0.0798  0.1844
13100TIP3   OH260714   5.244   2.449  16.452  0.4951 -0.1700 -0.5961
13100TIP3    H160715   5.298   2.406  16.518  0.1779 -0.2952 -0.4159
13100TIP3    H260716   5.245   2.541  16.475  1.5405 -0.0179 -1.2394
13101TIP3   OH260717   1.968   0.559   0.519 -0.2435  0.1513 -0.5156
13101TIP3    H160718   1.894   0.621   0.517 -0.7461 -0.3722  1.1399
13101TIP3    H260719   1.984   0.538   0.427 -1.9434  0.5208 -0.9127
13102TIP3   OH260720   5.788   2.445   3.652 -0.2483  0.5754  0.7966
13102TIP3    H160721   5.776   2.392   3.573  2.0761  0.9010  0.1977
13102TIP3    H260722   5.800   2.534   3.619 -1.2171  1.0301  1.6396
13103TIP3   OH260723   4.762   1.389  12.342 -0.1069  0.2493 -0.0019
13103TIP3    H160724   4.669   1.396  12.362 -0.2637 -2.0648  0.2156
13103TIP3    H260725   4.805   1.380  12.428  0.2835  0.8075 -0.1320
13104TIP3   OH260726   2.662   4.030  15.595 -0.1240 -0.8680 -0.0880
13104TIP3    H160727   2.695   4.004  15.508  0.3484  1.7886 -0.7291
13104TIP3    H260728   2.569   4.044  15.582 -0.2143 -1.3212  0.0526
13105TIP3   OH260729   0.638   5.571   5.974  0.0544 -0.1618 -0.2706
13105TIP3    H160730   0.609   5.482   5.996 -1.3909 -0.1231 -1.9103
13105TIP3    H260731   0.587   5.594   5.896  1.0613  1.7741 -0.3792
13106TIP3   OH260732   3.390   4.647  15.737  0.3817  0.0987 -0.3457
13106TIP3    H160733   3.467   4.697  15.763  1.6581 -1.1811 -1.5747
13106TIP3    H260734   3.331   4.713  15.700  1.3502  0.9348 -0.4336
13107TIP3   OH260735   1.122   4.387  16.994 -0.4557  0.3800 -0.0386
13107TIP3    H160736   1.149   4.407  16.904  0.5564 -0.4889  0.0681
13107TIP3    H260737   1.028   4.370  16.986 -0.6006  1.4329 -0.7415
13108TIP3   OH260738   0.236   1.699   0.288 -0.2317  0.5682 -0.4458
13108TIP3    H160739   0.234   1.604   0.275 -0.7930  0.9124 -3.1799
13108TIP3    H260740   0.144   1.726   0.280 -0.2251  1.2396  1.4273
13109TIP3   OH260741   6.135   4.065   0.731 -0.0761  0.1845  0.3829
13109TIP3    H160742   6.091   4.150   0.735  2.4620  1.5215  0.8877
13109TIP3    H260743   6.088   4.010   0.794 -0.1427  2.0182  1.9677
13110TIP3   OH260744   6.492   4.047   0.437 -0.0510 -0.0499 -0.4471
13110TIP3    H160745   6.499   4.127   0.384 -1.1905  0.5743  0.3074
13110TIP3    H260746   6.568   3.995   0.412  0.0819  0.7598 -1.8152
13111TIP3   OH260747   6.726   1.178  14.750  0.6527 -0.2584  0.1507
13111TIP3    H160748   6.666   1.147  14.818  1.2202  1.6597  1.5712
13111TIP3    H260749   6.812   1.148  14.777  0.6898 -0.7309 -0.4848
13112TIP3   OH260750   5.511   6.283  15.081 -0.4450  0.0483 -0.0463
13112TIP3    H160751   5.578   6.222  15.115 -0.9449 -1.3359 -1.4603
13112TIP3    H260752   5.434   6.228  15.066 -0.7812  0.9389 -1.7432
13113TIP3   OH260753   4.550   4.023   5.898  0.0823 -0.6892  0.1766
13113TIP3    H160754   4.534   3.929   5.911  0.7265 -0.9438 -0.7795
13113TIP3    H260755   4.615   4.026   5.828  3.5531  0.3283  3.2941
13114TIP3   OH260756   2.463   5.348   5.495 -0.0687  0.4493 -0.0208
13114TIP3    H160757   2.468   5.437   5.528 -0.3858  0.3265  0.3574
13114TIP3    H260758   2.533   5.301   5.540  0.8302  0.7720 -1.0566
13115TIP3   OH260759   0.972   2.235  17.212 -0.2482  0.1989 -0.0527
13115TIP3    H160760   1.046   2.278  17.171  0.2821 -0.9723 -0.3376
13115TIP3    H260761   0.906   2.304  17.223 -0.2832  0.5999 -2.5830
13116TIP3   OH260762   3.915   5.409  11.416 -0.8855 -0.3634 -0.0164
13116TIP3    H160763   3.997   5.360  11.423 -1.3162 -1.3443 -1.5841
13116TIP3    H260764   3.941   5.494  11.380 -0.8094 -1.6122 -3.1405
13117TIP3   OH260765   5.556   0.993  16.460 -0.4530  0.4778  0.2325
13117TIP3    H160766   5.514   0.922  16.509 -1.6831  1.5943  0.8442
13117TIP3    H260767   5.637   1.010  16.507  0.1898 -0.9736 -0.3175
13118TIP3   OH260768   4.750   6.539   3.887 -0.2794  0.4704 -0.1028
13118TIP3    H160769   4.667   6.524   3.842 -0.6154  2.3671 -0.1588
13118TIP3    H260770   4.745   6.630   3.916  1.6451  0.4966  0.1828
13119TIP3   OH260771   3.718   1.678   1.736 -0.1166  0.4632 -0.3069
13119TIP3    H160772   3.792   1.654   1.792  0.7984  1.1485 -1.1943
13119TIP3    H260773   3.645   1.627   1.770  0.8723 -0.5862  0.2985
13120TIP3   OH260774   3.812   6.779  16.131 -0.5290  0.1495 -0.4339
13120TIP3    H160775   3.901   6.745  16.143 -0.9519 -1.3880 -1.3598
13120TIP3    H260776   3.823   6.853  16.072  0.1157 -0.2362 -0.8159
13121TIP3   OH260777   2.392   3.700  12.602  0.0132  0.1219  0.1628
13121TIP3    H160778   2.446   3.651  12.664 -1.2026  0.7871  1.7729
13121TIP3    H260779   2.310   3.652  12.600  0.3079 -0.3299 -1.5411
13122TIP3   OH260780   2.257   6.249   3.917 -0.6560 -0.0597 -0.3472
13122TIP3    H160781   2.220   6.337   3.926 -1.4117 -0.4576  0.5224
13122TIP3    H260782   2.181   6.191   3.919 -0.0577 -0.8270  0.5127
13123TIP3   OH260783   6.367   1.366   4.832 -0.0718 -0.8815 -0.4671
13123TIP3    H160784   6.326   1.403   4.909 -0.3830 -2.3073  0.0614
13123TIP3    H260785   6.410   1.286   4.863  0.9154 -0.7719 -1.5040
13124TIP3   OH260786   2.415   0.308  16.095  0.1125 -0.1978 -0.2058
13124TIP3    H160787   2.412   0.345  16.184 -2.5886  1.2836 -0.8553
13124TIP3    H260788   2.365   0.370  16.042  4.7366  0.9318 -3.5988
13125TIP3   OH260789   6.251   1.430  11.601 -0.5400  0.3518 -0.4608
13125TIP3    H160790   6.185   1.408  11.667  0.6825 -0.9662  0.3532
13125TIP3    H260791   6.264   1.525  11.610  1.0316 -0.1003  2.5744
13126TIP3   OH260792   0.120   1.108   0.312  0.4577 -0.3988 -0.2433
13126TIP3    H160793   0.194   1.166   0.296  1.2445 -1.2999  0.0835
13126TIP3    H260794   0.119   1.048   0.237  1.3717 -1.7306  0.7785
13127TIP3   OH260795   5.032   1.910   0.822 -0.0588 -0.5789  0.3455
13127TIP3    H160796   5.067   1.844   0.762 -1.2414 -0.3501 -0.6133
13127TIP3    H260797   5.000   1.859   0.896  0.1464 -0.9793  0.1637
13128TIP3   OH260798   6.543   0.231  16.843 -0.2453  0.0772  0.0791
13128TIP3    H160799   6.484   0.287  16.794 -1.2453  0.3350  1.5331
13128TIP3    H260800   6.631   0.261  16.820 -0.7664  2.7742  1.4372
13129TIP3   OH260801   6.424   3.391  14.838 -0.1706 -0.3170  0.3189
13129TIP3    H160802   6.373   3.470  14.821  0.5931  0.2139  0.4431
13129TIP3    H260803   6.443   3.355  14.752  1.1697  0.7352  0.1549
13130TIP3   OH260804   6.146   6.322  12.443 -0.3057  0.4537 -0.0436
13130TIP3    H160805   6.160   6.340  12.536 -2.4441  0.7706  0.2413
13130TIP3    H260806   6.188   6.395  12.397  1.6898 -0.2545  0.6005
13131TIP3   OH260807   5.332   4.150   5.824  0.3018  0.1895 -0.1733
13131TIP3    H160808   5.369   4.239   5.832  0.5762  0.1771 -1.1951
13131TIP3    H260809   5.246   4.163   5.784 -1.3241  0.3101  3.1749
13132TIP3   OH260810   1.063   1.046  11.791 -0.5892 -0.1045  0.2118
13132TIP3    H160811   0.968   1.048  11.803 -0.4154 -0.6956  1.7837
13132TIP3    H260812   1.097   1.108  11.856  0.0762  0.5824 -0.7685
13133TIP3   OH260813   5.353   4.674  16.663  0.4632  0.2404  0.5666
13133TIP3    H160814   5.314   4.725  16.592 -0.8691  0.7165  1.6051
13133TIP3    H260815   5.447   4.680  16.649  0.1907 -0.5952 -1.7940
13134TIP3   OH260816   0.802   1.001  13.691  0.2186  0.6692  0.1509
13134TIP3    H160817   0.786   1.055  13.768  0.3043 -0.4455  0.9460
13134TIP3    H260818   0.896   1.008  13.675  0.3922 -0.0479  0.8491
13135TIP3   OH260819   4.800   5.194  16.878  0.0701  0.0464  0.1310
13135TIP3    H160820   4.792   5.140  16.800  1.4094 -0.1493  0.1163
13135TIP3    H260821   4.894   5.210  16.887 -0.2411  1.6958  0.5920
13136TIP3   OH260822   4.548   2.685   5.115  0.5754 -0.0406  0.1899
13136TIP3    H160823   4.456   2.667   5.132  0.6053 -0.9422 -0.5914
13136TIP3    H260824   4.548   2.740   5.037  0.7259 -0.5166 -0.1471
13137TIP3   OH260825   6.466   1.125   4.934  0.3104 -0.5217  0.3996
13137TIP3    H160826   6.540   1.106   4.993  1.4387 -0.3678 -0.9307
13137TIP3    H260827   6.472   1.057   4.867  0.6950  0.9400 -1.0480
13138TIP3   OH260828   4.187   5.811   3.402 -0.2354  0.4275  0.6402
13138TIP3    H160829   4.185   5.725   3.445 -1.4049  0.5564  0.8439
13138TIP3    H260830   4.116   5.860   3.443 -1.5273  0.4837 -1.5895
13139TIP3   OH260831   4.584   2.286  12.977  0.1569  0.7404  0.0401
13139TIP3    H160832   4.592   2.324  12.890 -0.0024 -1.7088 -1.0808
13139TIP3    H260833   4.653   2.220  12.981 -1.2326 -0.7049  0.9109
13140TIP3   OH260834   5.411   1.617   5.850  0.0555  0.1922  0.4922
13140TIP3    H160835   5.350   1.681   5.813 -1.4596 -0.2800  2.0976
13140TIP3    H260836   5.437   1.563   5.775  1.8228  3.0023 -0.9848
13141TIP3   OH260837   3.977   1.031  12.912  0.4711  0.1570 -0.2014
13141TIP3    H160838   4.024   1.055  12.992  0.1513 -1.4370  0.4863
13141TIP3    H260839   3.889   1.008  12.941  0.9696 -2.5459 -0.6761
13142TIP3   OH260840   4.202   5.734  11.445  0.4155 -0.6448  0.0336
13142TIP3    H160841   4.207   5.656  11.390  0.6402  0.4003 -1.4844
13142TIP3    H260842   4.179   5.804  11.384 -0.7117  0.3075  1.5328
13143TIP3   OH260843   1.226   4.836  14.476  0.3028  0.3255 -0.3892
13143TIP3    H160844   1.283   4.836  14.553  2.2443 -0.2945 -1.7941
13143TIP3    H260845   1.176   4.755  14.483  1.2967 -0.2955 -0.3412
13144TIP3   OH260846   0.828   0.410   4.248 -0.6287 -0.1278  0.0213
13144TIP3    H160847   0.803   0.410   4.155  0.5486 -2.4947 -0.3236
13144TIP3    H260848   0.911   0.362   4.250  0.9537  2.5653  1.9074
13145TIP3   OH260849   2.329   5.202   3.998 -0.4601 -0.0555  0.1340
13145TIP3    H160850   2.370   5.288   4.008 -0.8972  0.4234 -1.9433
13145TIP3    H260851   2.400   5.144   3.975 -0.5045  0.2025 -0.6618
13146TIP3   OH260852   0.998   1.803   3.013  0.0869  0.3293 -0.5982
13146TIP3    H160853   1.065   1.780   3.077 -1.9026 -0.6656  1.1715
13146TIP3    H260854   0.996   1.899   3.014 -0.5725  0.3212  1.5445
13147TIP3   OH260855   6.565   1.638  14.841  0.0309  0.3892 -0.7549
13147TIP3    H160856   6.632   1.582  14.800  0.4676 -0.1832  0.6723
13147TIP3    H260857   6.525   1.685  14.769  0.2666 -1.1375 -1.9051
13148TIP3   OH260858   3.028   2.789   0.368 -0.3369 -0.0854  0.0036
13148TIP3    H160859   3.019   2.860   0.432 -1.3360  0.2436 -0.4922
13148TIP3    H260860   3.043   2.834   0.285 -1.4093 -0.4374 -0.3884
13149TIP3   OH260861   3.876   2.514  12.538  0.7115 -0.2054 -0.7232
13149TIP3    H160862   3.966   2.481  12.528  1.3812  1.3032  0.1184
13149TIP3    H260863   3.847   2.478  12.621  0.5143 -0.7460 -1.0257
13150TIP3   OH260864   2.690   0.144  11.069  0.2593  0.3575 -0.5086
13150TIP3    H160865   2.766   0.098  11.104 -0.3635 -1.1022 -1.0684
13150TIP3    H260866   2.723   0.192  10.994  0.3175 -1.5738 -1.7489
13151TIP3   OH260867   5.885   5.227   2.670  0.1344 -0.0595 -0.0820
13151TIP3    H160868   5.911   5.181   2.750  1.0113  1.9332  0.8195
13151TIP3    H260869   5.790   5.240   2.679 -0.1105 -1.6501 -0.3387
13152TIP3   OH260870   6.438   3.014  16.431 -0.1893  0.0535  0.4758
13152TIP3    H160871   6.505   3.031  16.498  1.5144 -0.6594 -0.9804
13152TIP3    H260872   6.429   3.098  16.385  0.6265 -0.1668 -0.1044
13153TIP3   OH260873   1.017   5.785   0.584  0.4637  0.6535  0.1602
13153TIP3    H160874   0.925   5.802   0.604  0.4709 -0.1788  0.9601
13153TIP3    H260875   1.065   5.846   0.638  0.4039  0.3789  0.5267
13154TIP3   OH260876   3.153   2.383   2.464  0.1057  0.3819  0.2787
13154TIP3    H160877   3.247   2.405   2.465  0.8159 -2.2990 -1.5536
13154TIP3    H260878   3.126   2.400   2.374 -0.5575 -1.1278  0.1814
13155TIP3   OH260879   3.238   3.774   6.542  0.2234  0.3900  0.2602
13155TIP3    H160880   3.332   3.775   6.560  0.5152 -0.9034 -1.1047
13155TIP3    H260881   3.199   3.736   6.621  0.7287  1.7880  1.2129
13156TIP3   OH260882   2.151   4.951  15.992  0.1580  0.1337 -0.6580
13156TIP3    H160883   2.094   4.945  16.068 -1.9663 -1.6735 -2.3451
13156TIP3    H260884   2.240   4.946  16.028 -0.8207 -1.1875  1.6673
13157TIP3   OH260885   4.865   2.194  14.310 -0.0857 -0.2751 -0.0266
13157TIP3    H160886   4.797   2.138  14.272 -0.2444  0.8701 -1.4848
13157TIP3    H260887   4.821   2.278  14.324  1.0277  0.4853 -1.0296
13158TIP3   OH260888   5.283   3.448   6.077  0.2880  0.1954 -0.2690
13158TIP3    H160889   5.234   3.468   6.157 -0.3640  1.9883 -1.0832
13158TIP3    H260890   5.375   3.447   6.104 -0.0630 -1.0623  0.8622
13159TIP3   OH260891   1.799   0.306  16.294 -0.2040 -0.2523  0.2624
13159TIP3    H160892   1.727   0.248  16.318  1.1009 -2.0936 -0.2071
13159TIP3    H260893   1.849   0.257  16.229  2.1059  0.5307  1.3901
13160TIP3   OH260894   5.376   2.920   2.735 -0.1187  0.1775  0.2389
13160TIP3    H160895   5.445   2.870   2.693 -1.8239 -0.9289 -1.2977
13160TIP3    H260896   5.311   2.935   2.666 -0.1721  3.5691  0.9166
13161TIP3   OH260897   3.926   1.136   0.020 -0.2998  0.4351 -0.0219
13161TIP3    H160898   3.908   1.058   0.072 -1.7101  0.4681 -0.4460
13161TIP3    H260899   3.881   1.120  -0.064 -0.5451  1.6619 -0.1340
13162TIP3   OH260900   0.256   1.593   4.711 -0.2139  0.4130  0.2376
13162TIP3    H160901   0.165   1.601   4.683 -0.0224  1.8163 -0.0460
13162TIP3    H260902   0.301   1.666   4.667  0.9770 -0.0676  0.6360
13163TIP3   OH260903   5.072   0.228  16.955  0.2828  0.0103 -0.5066
13163TIP3    H160904   5.161   0.248  16.925  2.0207 -4.2343  1.5281
13163TIP3    H260905   5.059   0.284  17.031  0.6863  1.5005 -1.4947
13164TIP3   OH260906   3.099   1.517  13.919  0.6301 -0.0412  0.6964
13164TIP3    H160907   3.135   1.435  13.885  1.2045  1.1144 -1.6198
13164TIP3    H260908   3.088   1.573  13.842 -1.9132  1.2713  1.9182
13165TIP3   OH260909   5.976   2.039   0.719  0.1566 -0.0929 -0.1232
13165TIP3    H160910   5.954   2.124   0.681 -1.8347 -1.3459 -1.8525
13165TIP3    H260911   5.897   1.987   0.710  1.8024 -2.6327 -0.4542
13166TIP3   OH260912   3.273   4.258   3.657  0.2845  0.0214 -0.5573
13166TIP3    H160913   3.239   4.181   3.702  0.8035  0.7227  1.0935
13166TIP3    H260914   3.194   4.308   3.633 -0.0006 -0.4234 -0.5595
13167TIP3   OH260915   2.420   1.234  12.142  0.3277 -0.1757  0.2940
13167TIP3    H160916   2.494   1.278  12.101 -0.2921  0.6689  0.0618
13167TIP3    H260917   2.374   1.304  12.189 -1.8485 -0.1501 -1.7747
13168TIP3   OH260918   1.337   2.532  14.641  0.2877 -0.7544 -0.6784
13168TIP3    H160919   1.294   2.466  14.587  0.4697 -0.7432 -0.8422
13168TIP3    H260920   1.384   2.586  14.578  0.4776 -0.7231 -0.5095
13169TIP3   OH260921   0.561   6.399   1.078 -0.1039 -0.1430  0.5329
13169TIP3    H160922   0.571   6.362   1.165 -0.0812  2.7780  1.8396
13169TIP3    H260923   0.466   6.407   1.066 -0.0807  0.6701  0.8506
13170TIP3   OH260924   0.970   5.795  15.984  0.2064 -0.1565 -0.5071
13170TIP3    H160925   0.888   5.759  15.950 -0.6943  1.4051 -0.0248
13170TIP3    H260926   1.005   5.847  15.912 -0.7797  1.6486  0.2695
13171TIP3   OH260927   0.024   5.602   2.214 -0.2084 -0.0282 -0.2154
13171TIP3    H160928   0.080   5.534   2.253 -0.4764 -0.6373 -0.8758
13171TIP3    H260929  -0.059   5.558   2.196  0.2039 -0.0109 -2.2938
13172TIP3   OH260930   6.655   5.304  15.121  0.2145  0.6511 -0.1711
13172TIP3    H160931   6.687   5.364  15.054 -1.0092 -1.2743 -2.5221
13172TIP3    H260932   6.560   5.318  15.123  0.3549  1.6544  2.1752
13173TIP3   OH260933   5.724   5.976  11.256  0.4176  0.9859 -0.5239
13173TIP3    H160934   5.633   5.998  11.234 -0.8020 -1.5338  1.7104
13173TIP3    H260935   5.717   5.920  11.333  3.8835  0.4026 -0.5595
13174TIP3   OH260936   2.080   0.763  15.391 -0.3138  0.4246  0.4941
13174TIP3    H160937   2.016   0.821  15.431 -1.5666 -0.6121  0.0193
13174TIP3    H260938   2.029   0.705  15.335  0.7236 -1.9306  1.8794
13175TIP3   OH260939   5.395   3.589  13.278  0.6848 -0.3897  0.0963
13175TIP3    H160940   5.352   3.515  13.234  1.0019 -0.0665 -0.7562
13175TIP3    H260941   5.394   3.564  13.371 -0.5876 -0.7655 -0.0030
13176TIP3   OH260942   0.236   4.560  14.005  0.0709  0.3243  0.5288
13176TIP3    H160943   0.170   4.614  13.962 -0.7649  1.6929  3.4167
13176TIP3    H260944   0.318   4.582  13.961 -1.0518  0.1924 -1.6666
13177TIP3   OH260945   5.339   1.369  11.643 -0.3052 -0.3175  0.2629
13177TIP3    H160946   5.338   1.401  11.553  0.5942  0.5541  0.5574
13177TIP3    H260947   5.337   1.448  11.696 -1.3949 -0.8368  1.0249
13178TIP3   OH260948   3.469   3.564   6.561  0.3177 -0.1028 -0.2516
13178TIP3    H160949   3.452   3.587   6.470 -2.1944  1.8908  0.6748
13178TIP3    H260950   3.539   3.624   6.588 -0.7664  1.1126 -0.1178
13179TIP3   OH260951   0.310   0.268   5.693  0.3029  0.3846 -0.3624
13179TIP3    H160952   0.324   0.188   5.744  0.3311  0.0743 -0.8507
13179TIP3    H260953   0.399   0.299   5.673  0.2930  0.4286 -0.3366
13180TIP3   OH260954   0.639   3.698  11.458 -0.3123 -0.4728  0.4780
13180TIP3    H160955   0.716   3.738  11.418 -0.3258 -1.7532 -0.8463
13180TIP3    H260956   0.566   3.722  11.400 -1.2141  1.9960  2.5077
13181TIP3   OH260957   2.080   2.546  16.850  0.7574  0.2873 -0.2429
13181TIP3    H160958   2.145   2.489  16.809  0.7961  1.2979 -1.6412
13181TIP3    H260959   2.124   2.632  16.855 -0.2431  0.8285 -0.6486
13182TIP3   OH260960   5.137   3.964   4.639 -0.3379  0.0447 -0.2182
13182TIP3    H160961   5.174   3.876   4.646  0.7918  0.5639  0.3266
13182TIP3    H260962   5.092   3.977   4.723 -0.0407  0.2014 -0.0838
13183TIP3   OH260963   3.389   2.611   1.253  0.1651 -0.5336  0.0385
13183TIP3    H160964   3.375   2.633   1.161 -0.7686 -0.3908  0.2008
13183TIP3    H260965   3.326   2.540   1.270 -0.6736  0.4055  0.9220
13184TIP3   OH260966   5.847   1.737  15.632 -0.1468 -0.9326 -0.2628
13184TIP3    H160967   5.885   1.784  15.707  0.9820  1.1065 -2.0370
13184TIP3    H260968   5.885   1.650  15.636  0.0292 -0.7936  1.4348
13185TIP3   OH260969   6.441   3.520   0.353  0.0981  0.1949  0.4155
13185TIP3    H160970   6.377   3.588   0.329  0.3478  0.5609  0.7689
13185TIP3    H260971   6.526   3.560   0.335  0.2138 -0.7043 -1.1107
13186TIP3   OH260972   6.634   4.310  12.619 -0.0685 -0.3847 -0.3050
13186TIP3    H160973   6.539   4.298  12.619 -0.7360  4.2515 -0.5790
13186TIP3    H260974   6.657   4.322  12.711  0.0524 -0.1357 -0.3667
13187TIP3   OH260975   3.569   2.585   1.505  0.2485  0.1406  0.3958
13187TIP3    H160976   3.558   2.589   1.410  0.2409  0.6317  0.4164
13187TIP3    H260977   3.494   2.533   1.535 -0.5513  1.1922  0.2680
13188TIP3   OH260978   1.199   2.469   4.153 -0.5700 -0.1762 -0.0068
13188TIP3    H160979   1.212   2.438   4.064  1.6905  1.7404 -0.3847
13188TIP3    H260980   1.153   2.552   4.143  1.2608  0.9218  0.4803
13189TIP3   OH260981   1.311   1.807   6.236 -0.3900 -0.2634 -0.1378
13189TIP3    H160982   1.262   1.887   6.252 -0.5676 -0.5574  0.7980
13189TIP3    H260983   1.381   1.808   6.301  0.4878 -0.1465 -1.0741
13190TIP3   OH260984   0.760   1.047   0.459 -0.0832 -0.1784 -0.0985
13190TIP3    H160985   0.758   0.961   0.418  0.3103 -0.0838 -0.3219
13190TIP3    H260986   0.836   1.044   0.518 -1.0568 -0.5456  1.1443
13191TIP3   OH260987   5.524   0.453  15.707 -0.7172  0.5207 -0.2000
13191TIP3    H160988   5.446   0.470  15.761 -0.5739  1.2499 -0.2094
13191TIP3    H260989   5.536   0.534  15.658  1.1216  1.0982  1.1510
13192TIP3   OH260990   4.243   1.423   4.864  0.3370 -1.2897 -0.0159
13192TIP3    H160991   4.300   1.499   4.849 -0.6119 -0.9429 -2.1031
13192TIP3    H260992   4.269   1.391   4.950 -0.4783  2.4893  1.7579
13193TIP3   OH260993   2.063   3.642  15.546  0.4461 -0.0155  0.2329
13193TIP3    H160994   1.977   3.618  15.579  0.4717 -2.4588 -1.3473
13193TIP3    H260995   2.058   3.626  15.452  2.4428  0.4396  0.0230
13194TIP3   OH260996   6.419   2.232  11.681 -0.6272  0.2669  0.0160
13194TIP3    H160997   6.472   2.165  11.724 -0.7558 -0.5080 -1.0184
13194TIP3    H260998   6.454   2.237  11.591 -0.4824  1.7254  0.1328
13195TIP3   OH260999   2.718   2.118  15.578 -0.1906  0.1204  0.9593
13195TIP3    H161000   2.633   2.099  15.617 -0.3731 -1.9879 -0.3841
13195TIP3    H261001   2.780   2.107  15.649 -0.8426 -0.3192  1.4647
13196TIP3   OH261002   0.755   6.521  13.700  0.2528  0.1260 -0.0913
13196TIP3    H161003   0.760   6.436  13.744  0.8737  0.6460  0.8732
13196TIP3    H261004   0.840   6.561  13.715 -0.3944  1.3671  0.3874
13197TIP3   OH261005   3.271   4.150   2.432 -0.1918 -0.1306 -0.3383
13197TIP3    H161006   3.219   4.130   2.354 -1.0781  0.8668 -0.0173
13197TIP3    H261007   3.338   4.081   2.435 -1.1332 -1.0841 -1.0797
13198TIP3   OH261008   3.443   1.316   0.365  0.0921 -0.1189  0.4244
13198TIP3    H161009   3.410   1.227   0.349 -2.8105  0.9650  0.0166
13198TIP3    H261010   3.494   1.336   0.287 -1.9109 -0.2662 -0.9641
13199TIP3   OH261011   5.142   3.765  10.671  0.5974 -0.0888 -0.3425
13199TIP3    H161012   5.055   3.743  10.702  1.1457  0.4577  1.6418
13199TIP3    H261013   5.127   3.820  10.594 -0.8250  0.3868  0.2617
13200TIP3   OH261014   5.051   2.705   2.088  0.2472  0.7992 -0.1373
13200TIP3    H161015   4.981   2.687   2.151 -0.9023  2.1047 -1.0294
13200TIP3    H261016   5.129   2.665   2.128 -0.4581  1.5527  2.0781
13201TIP3   OH261017   4.116   2.003   2.272 -0.6076  0.3584 -0.8397
13201TIP3    H161018   4.070   1.998   2.356 -0.4930  1.1887 -0.7247
13201TIP3    H261019   4.135   2.096   2.261  1.2667 -0.0028 -0.7810
13202TIP3   OH261020   5.273   0.121   3.278  0.2911 -0.1635  0.2520
13202TIP3    H161021   5.225   0.134   3.196  0.6251  1.2093  0.2556
13202TIP3    H261022   5.280   0.026   3.288  2.7338 -0.3848 -2.7681
13203TIP3   OH261023   0.477   5.993  16.773  0.4577 -0.8258 -0.3006
13203TIP3    H161024   0.516   5.984  16.685  1.0037 -2.7339  0.1294
13203TIP3    H261025   0.552   5.993  16.832  0.0741  0.2675  0.2110
13204TIP3   OH261026   4.815   2.046  16.952 -0.3545 -0.1046  0.1569
13204TIP3    H161027   4.885   2.004  16.904  1.2661  0.0056  2.3445
13204TIP3    H261028   4.738   1.991  16.936  0.1933 -0.2387 -2.2271
13205TIP3   OH261029   3.305   6.017   5.180 -0.2519 -0.0864  0.0117
13205TIP3    H161030   3.258   6.076   5.238 -1.1700 -0.7742 -0.0286
13205TIP3    H261031   3.311   6.064   5.097 -0.0586  0.3744  0.2881
13206TIP3   OH261032   2.912   4.730  17.085  0.9541 -0.8003  0.8419
13206TIP3    H161033   2.921   4.680  17.166 -0.0387 -1.0162  0.8309
13206TIP3    H261034   2.846   4.682  17.035  0.0350  0.4753  0.8053
13207TIP3   OH261035   0.994   3.839   3.765 -0.7255  1.1197  0.5467
13207TIP3    H161036   0.995   3.764   3.824 -2.8990 -0.4870 -1.3344
13207TIP3    H261037   1.066   3.822   3.704 -0.8347  0.8587  0.4890
13208TIP3   OH261038   0.282   2.362  15.378  0.0206 -0.3421  0.6421
13208TIP3    H161039   0.275   2.447  15.335 -2.9657  0.7072  3.0306
13208TIP3    H261040   0.220   2.306  15.331 -1.1121  0.0070  1.6872
13209TIP3   OH261041   0.168   2.836  15.544 -0.0478 -0.1486 -0.4949
13209TIP3    H161042   0.142   2.927  15.529  0.0314  0.0792  0.7113
13209TIP3    H261043   0.245   2.842  15.600  0.4766 -0.9381 -1.1227
13210TIP3   OH261044   5.638   2.253  14.914  0.4943  0.1365 -0.0841
13210TIP3    H161045   5.694   2.224  14.985  1.3061 -0.2890 -0.8895
13210TIP3    H261046   5.624   2.347  14.931 -0.4029 -0.2544  1.3511
13211TIP3   OH261047   3.944   5.665   0.168  0.1245  0.2742  0.2078
13211TIP3    H161048   3.934   5.730   0.097 -0.1962 -0.5327 -0.4989
13211TIP3    H261049   3.883   5.595   0.144  2.0165 -1.2770 -0.1511
13212TIP3   OH261050   0.756   3.268  11.537 -0.3887  0.6833  0.4557
13212TIP3    H161051   0.706   3.328  11.481 -0.6352  1.4961  1.5334
13212TIP3    H261052   0.766   3.189  11.484  0.3218  1.8322 -1.1586
13213TIP3   OH261053   5.027   5.768  16.101  0.1870 -0.4320 -0.2770
13213TIP3    H161054   4.999   5.677  16.103 -0.7337 -0.1746 -1.1488
13213TIP3    H261055   5.112   5.768  16.145  0.0201 -1.6473  0.0514
13214TIP3   OH261056   2.861   3.036   6.199  0.3647 -0.3503 -0.5090
13214TIP3    H161057   2.945   2.992   6.211  0.8463  0.3017 -1.4170
13214TIP3    H261058   2.857   3.098   6.272  1.7667  1.2659 -1.7516
13215TIP3   OH261059   0.131   1.692   3.635  0.3749  0.5292 -0.4096
13215TIP3    H161060   0.162   1.779   3.609 -2.1950  1.5444 -0.2115
13215TIP3    H261061   0.211   1.642   3.649  1.9334  3.0318  0.0296
13216TIP3   OH261062   0.859   3.283   0.103  0.4300 -0.0279 -0.1166
13216TIP3    H161063   0.833   3.351   0.041  1.3989  0.2233 -0.2582
13216TIP3    H261064   0.863   3.328   0.187 -1.3261 -0.4700  0.2202
13217TIP3   OH261065   4.197   4.247   4.357  0.3077 -0.2631  0.4886
13217TIP3    H161066   4.261   4.212   4.295  0.2939  0.1345  0.2414
13217TIP3    H261067   4.114   4.210   4.329  0.2495  0.1906  0.0511
13218TIP3   OH261068   4.935   5.262   1.497  0.2543 -0.1374  0.2568
13218TIP3    H161069   4.911   5.209   1.573  0.0221 -0.1039  0.2076
13218TIP3    H261070   4.947   5.198   1.426 -1.1902 -0.0369 -0.1015
13219TIP3   OH261071   4.550   3.106  15.611 -0.3863 -0.1806 -0.1785
13219TIP3    H161072   4.523   3.015  15.629 -0.9429 -0.2552 -1.3184
13219TIP3    H261073   4.522   3.155  15.688  1.3038 -1.2280  1.1521
13220TIP3   OH261074   4.400   5.122   2.477  0.2008  0.0055  0.1531
13220TIP3    H161075   4.349   5.041   2.472 -1.2273  0.9308 -0.2503
13220TIP3    H261076   4.361   5.179   2.411  0.9590  1.1733  0.7074
13221TIP3   OH261077   5.924   2.361   3.238 -0.8874 -0.3187 -0.1099
13221TIP3    H161078   5.867   2.336   3.310 -2.4050 -0.9673 -1.5221
13221TIP3    H261079   5.869   2.414   3.181  0.5665  0.9907 -0.3245
13222TIP3   OH261080   5.323   6.149   1.605 -0.0989 -0.9395 -0.2809
13222TIP3    H161081   5.381   6.205   1.554  0.3777 -0.7100  0.5022
13222TIP3    H261082   5.381   6.083   1.643 -0.8802 -3.0430 -2.5852
13223TIP3   OH261083   0.018   1.198   3.457 -0.0722 -0.0393 -0.4674
13223TIP3    H161084  -0.054   1.207   3.395  0.3446  2.2761 -0.6790
13223TIP3    H261085   0.054   1.111   3.441 -0.1369  0.4260 -3.3114
13224TIP3   OH261086   0.385   0.458  12.791  0.5736  0.6950 -0.2901
13224TIP3    H161087   0.336   0.512  12.854  0.9641  0.7035  0.0113
13224TIP3    H261088   0.428   0.391  12.845 -0.6161 -0.4562 -0.7655
13225TIP3   OH261089   0.018   1.601   6.122 -0.9265 -0.7043 -0.9027
13225TIP3    H161090  -0.037   1.625   6.196 -0.2342  0.6429 -0.8065
13225TIP3    H261091  -0.019   1.649   6.048 -0.1951 -0.1867 -0.9406
13226TIP3   OH261092   6.722   2.699  10.549  0.1584 -0.3464  1.1021
13226TIP3    H161093   6.719   2.606  10.571  0.0322 -0.5288  0.3054
13226TIP3    H261094   6.782   2.737  10.614  1.1087 -1.1759  0.7083
13227TIP3   OH261095   3.251   0.621   6.533 -0.3443 -0.1440  0.3120
13227TIP3    H161096   3.304   0.697   6.507  0.5012 -0.7407  0.2515
13227TIP3    H261097   3.298   0.546   6.496 -2.3271 -0.5416 -1.4784
13228TIP3   OH261098   6.428   3.569   0.619  0.6646  0.0170  0.3307
13228TIP3    H161099   6.508   3.548   0.668  0.6701  0.8872  0.6950
13228TIP3    H261100   6.453   3.555   0.527  0.6703 -1.5554  0.5494
13229TIP3   OH261101   4.614   0.719  16.822  0.5549  0.2861 -0.5236
13229TIP3    H161102   4.568   0.725  16.905  2.3555 -0.6144  0.5707
13229TIP3    H261103   4.630   0.810  16.797  0.6673  0.5523  0.5099
13230TIP3   OH261104   3.821   5.474  16.637  0.0954 -0.2864 -0.2862
13230TIP3    H161105   3.744   5.442  16.589 -0.3967 -0.2346  0.4550
13230TIP3    H261106   3.800   5.456  16.729  0.0255  1.7467  0.1045
13231TIP3   OH261107   4.007   1.411  14.310 -0.1588  0.2285 -0.0638
13231TIP3    H161108   3.970   1.499  14.303 -0.8915 -0.0008  0.8554
13231TIP3    H261109   4.018   1.382  14.219  1.0940  1.6750 -0.3934
13232TIP3   OH261110   1.559   2.929  14.350  0.2866 -0.1938 -0.0835
13232TIP3    H161111   1.513   2.934  14.434 -0.4685  0.5337 -0.5337
13232TIP3    H261112   1.649   2.906  14.373  0.5556  1.8825  1.0791
13233TIP3   OH261113   5.094   2.534   1.625  0.3958  0.3790 -0.1744
13233TIP3    H161114   5.095   2.534   1.720  0.1647  2.5196 -0.1512
13233TIP3    H261115   5.144   2.612   1.600 -3.4386  2.4897 -1.6713
13234TIP3   OH261116   4.642   4.380  17.153 -0.2082  0.1351 -0.7292
13234TIP3    H161117   4.652   4.375  17.248 -1.5281 -1.4606 -0.6511
13234TIP3    H261118   4.719   4.334  17.118  1.1309  2.1171 -0.5046
13235TIP3   OH261119   1.948   0.894   1.153 -0.2953 -0.6995  0.2740
13235TIP3    H161120   1.956   0.820   1.213 -1.2389 -0.5125  0.6223
13235TIP3    H261121   2.035   0.933   1.152 -0.5029 -0.1935  2.1536
13236TIP3   OH261122   4.405   5.001   2.952 -0.1620  0.5913 -0.4163
13236TIP3    H161123   4.431   5.082   2.997  0.5421 -1.4410  3.0563
13236TIP3    H261124   4.315   4.986   2.979  0.8040 -1.5457  1.8150
13237TIP3   OH261125   1.447   3.900   1.875 -0.3540  0.2242 -0.2327
13237TIP3    H161126   1.511   3.918   1.944  0.1867 -0.1511 -0.6309
13237TIP3    H261127   1.482   3.945   1.798  1.1608 -2.7144 -1.3158
13238TIP3   OH261128   2.189   4.223   6.685 -0.0251 -0.2085  0.4945
13238TIP3    H161129   2.172   4.209   6.778  0.1765 -2.5176  0.2034
13238TIP3    H261130   2.108   4.196   6.641 -0.0647  0.7261 -0.0254
13239TIP3   OH261131   1.150   1.817  13.082  0.3773 -0.7148  0.6442
13239TIP3    H161132   1.067   1.865  13.087  0.8968  0.3917 -1.0792
13239TIP3    H261133   1.203   1.855  13.153  0.3938  0.5158 -0.0136
13240TIP3   OH261134   3.654   0.843   0.862  0.3935  0.2192  0.0289
13240TIP3    H161135   3.640   0.839   0.957 -2.7284 -0.6595 -0.3988
13240TIP3    H261136   3.728   0.903   0.851  1.2389 -0.1904  3.0406
13241TIP3   OH261137   5.247   0.050  16.764  0.3818  0.5247 -0.3176
13241TIP3    H161138   5.292  -0.017  16.714  0.7548 -0.3840  1.1972
13241TIP3    H261139   5.155   0.040  16.741  0.7106  1.0591 -1.8830
13242TIP3   OH261140   4.845   0.588  16.867 -0.4882 -0.3905 -0.0060
13242TIP3    H161141   4.756   0.623  16.872 -0.3929 -0.3039  1.2902
13242TIP3    H261142   4.843   0.528  16.793 -2.1399 -1.7775  1.1142
13243TIP3   OH261143   2.374   6.476   4.709  0.8991 -0.0345 -0.2895
13243TIP3    H161144   2.421   6.504   4.788 -0.5537 -0.3294  0.7025
13243TIP3    H261145   2.436   6.419   4.663  2.2912  1.3048 -0.1124
13244TIP3   OH261146   1.795   4.781   5.454 -0.2788 -0.6012 -0.5241
13244TIP3    H161147   1.830   4.821   5.374 -0.2880  2.1664  0.7958
13244TIP3    H261148   1.873   4.754   5.503 -0.2997 -4.1803 -2.3047
13245TIP3   OH261149   2.469   2.834  11.435  0.3565  0.3708 -0.1626
13245TIP3    H161150   2.492   2.845  11.527 -0.7639 -2.0911  0.4635
13245TIP3    H261151   2.541   2.875  11.387  2.3557 -0.7126  1.8033
13246TIP3   OH261152   3.417   6.202  17.023  0.1349 -0.7918 -0.1463
13246TIP3    H161153   3.397   6.179  16.932 -0.1266  0.7766 -0.5047
13246TIP3    H261154   3.339   6.175  17.072 -0.9329  0.9024 -0.8301
13247TIP3   OH261155   2.388   2.122   0.836 -0.0473 -0.0064  0.1607
13247TIP3    H161156   2.482   2.115   0.819 -0.4113  0.6681 -2.1899
13247TIP3    H261157   2.353   2.171   0.762 -2.2449 -0.1341  1.0764
13248TIP3   OH261158   2.796   6.207  15.384  0.0358 -0.2120 -0.2436
13248TIP3    H161159   2.803   6.253  15.300 -2.7341  0.6891 -0.0361
13248TIP3    H261160   2.728   6.142  15.370 -0.1529 -0.3368  1.1776
13249TIP3   OH261161   2.033   4.854   2.503 -0.0636 -0.1650 -0.2433
13249TIP3    H161162   2.036   4.807   2.587 -0.0437  1.0741  0.4540
13249TIP3    H261163   2.036   4.784   2.437  0.4941 -1.1211  0.7755
13250TIP3   OH261164   2.486   1.296   0.317  0.1817 -0.2662 -0.0813
13250TIP3    H161165   2.486   1.317   0.410  0.6505 -0.7917  0.0402
13250TIP3    H261166   2.503   1.202   0.313 -0.0365 -0.2872 -0.6906
13251TIP3   OH261167   4.130   5.298  12.750  0.0754 -0.6711 -0.3243
13251TIP3    H161168   4.134   5.346  12.668 -0.9934 -0.5878 -0.3365
13251TIP3    H261169   4.205   5.239  12.747 -0.0204 -0.7445 -1.4109
13252TIP3   OH261170   4.519   0.268   4.159  0.3354 -0.2636  0.0168
13252TIP3    H161171   4.425   0.280   4.152  0.4439 -0.4244 -1.9042
13252TIP3    H261172   4.530   0.193   4.218 -0.6595  0.9168  1.7478
13253TIP3   OH261173   3.385   1.225   4.770  0.0077  0.3047  0.3029
13253TIP3    H161174   3.415   1.259   4.854 -1.5967  0.1117  0.9587
13253TIP3    H261175   3.292   1.248   4.765  0.6148  2.4601 -2.4859
13254TIP3   OH261176   1.059   2.078  16.590 -0.2062  0.0516  1.0976
13254TIP3    H161177   1.152   2.060  16.595 -0.1713  0.3885  1.7843
13254TIP3    H261178   1.039   2.123  16.673 -0.7824  0.8497  0.5388
13255TIP3   OH261179   6.366   2.154  12.309  0.3252  0.0480 -0.2474
13255TIP3    H161180   6.335   2.213  12.240  0.5762 -0.0218 -0.4189
13255TIP3    H261181   6.294   2.150  12.371 -0.5059 -1.0880 -1.2552
13256TIP3   OH261182   3.891   3.071  15.079 -0.0365 -0.6240  0.4958
13256TIP3    H161183   3.981   3.041  15.094  0.2235 -0.8555 -1.4024
13256TIP3    H261184   3.898   3.138  15.011 -1.3138 -0.7687  0.1995
13257TIP3   OH261185   0.221   4.273   2.256  0.0779 -0.1683 -0.0032
13257TIP3    H161186   0.245   4.208   2.191  0.3112 -0.4057  0.3169
13257TIP3    H261187   0.135   4.245   2.288 -0.4513  0.4584 -0.8611
13258TIP3   OH261188   2.449   6.111   4.194  0.1633  0.1681 -0.2994
13258TIP3    H161189   2.466   6.121   4.288  0.1530 -1.4014 -0.1141
13258TIP3    H261190   2.365   6.155   4.180  0.2982  0.6475  0.3749
13259TIP3   OH261191   1.636   5.605  15.041 -0.3625  0.0261 -0.6998
13259TIP3    H161192   1.666   5.527  15.089 -1.0293  0.4778  0.4687
13259TIP3    H261193   1.553   5.579  15.002 -0.7195  0.2230 -0.0852
13260TIP3   OH261194   2.742   0.615   5.204 -0.4491 -0.1198 -0.0429
13260TIP3    H161195   2.684   0.596   5.130 -1.1921 -0.2263  0.5541
13260TIP3    H261196   2.789   0.694   5.178  0.3606 -0.9877 -1.2399
13261TIP3   OH261197   2.363   5.789  15.500 -0.2561  0.6284  0.2378
13261TIP3    H161198   2.414   5.718  15.538 -2.5161 -1.5867 -0.7247
13261TIP3    H261199   2.396   5.868  15.543  1.0355 -1.1904  2.7148
13262TIP3   OH261200   6.158   2.482  15.949 -0.5973 -0.4831 -0.3216
13262TIP3    H161201   6.169   2.434  15.867 -0.0452 -0.9860  0.0423
13262TIP3    H261202   6.165   2.416  16.017 -1.2883 -0.0996  0.1283
13263TIP3   OH261203   2.949   5.833   0.795 -0.3492 -0.2448 -0.3750
13263TIP3    H161204   2.971   5.787   0.876 -1.3661 -1.3452 -0.7180
13263TIP3    H261205   2.855   5.850   0.801 -0.1828  0.8841 -0.7262
13264TIP3   OH261206   4.594   2.112   2.206 -0.1268  0.6881  0.2315
13264TIP3    H161207   4.661   2.126   2.138 -0.0341 -0.6883  0.0237
13264TIP3    H261208   4.521   2.169   2.180 -1.0407 -1.5958 -2.3619
13265TIP3   OH261209   3.192   0.265   2.589  1.0777 -0.8255  0.1184
13265TIP3    H161210   3.142   0.184   2.601 -0.2732  0.3160  2.5459
13265TIP3    H261211   3.130   0.325   2.547  1.3402 -0.3262  0.4443
13266TIP3   OH261212   1.748   4.544   5.281 -0.3473 -0.2114 -0.0903
13266TIP3    H161213   1.844   4.541   5.280 -0.3476 -0.2619  0.0377
13266TIP3    H261214   1.727   4.593   5.360 -0.4252 -0.1905 -0.1249
13267TIP3   OH261215   2.382   2.081   4.380  0.0583  0.3952  0.7235
13267TIP3    H161216   2.452   2.026   4.414  0.9031  1.1159  0.1767
13267TIP3    H261217   2.329   2.103   4.456  0.7159  0.2684  1.2191
13268TIP3   OH261218   0.142   0.447  16.772 -0.6391 -0.1593 -0.2216
13268TIP3    H161219   0.093   0.418  16.850 -1.2502 -1.7390 -1.1590
13268TIP3    H261220   0.076   0.485  16.715 -0.0666  1.7286  0.3454
13269TIP3   OH261221   4.682   2.700  14.172  0.1934 -0.2495 -0.1321
13269TIP3    H161222   4.736   2.634  14.215  2.4054  1.1080 -0.7602
13269TIP3    H261223   4.731   2.724  14.094 -1.7211  0.4559 -1.1562
13270TIP3   OH261224   1.380   3.442  15.022  0.6246  0.1165 -0.0454
13270TIP3    H161225   1.332   3.361  15.040  1.3549 -0.4297 -0.5712
13270TIP3    H261226   1.444   3.448  15.093  1.4772 -0.4702 -0.7652
13271TIP3   OH261227   4.661   5.216  11.600  0.1938 -0.9852  0.2436
13271TIP3    H161228   4.712   5.138  11.622  1.0015 -0.3426  0.6606
13271TIP3    H261229   4.639   5.205  11.508  0.7269 -1.4701  0.1756
13272TIP3   OH261230   6.585   3.376  11.826 -0.4004  0.1835 -0.2043
13272TIP3    H161231   6.508   3.396  11.880 -1.2604 -0.7025 -1.0979
13272TIP3    H261232   6.623   3.298  11.866 -0.3485  0.2317 -0.1599
13273TIP3   OH261233   6.748   6.160   1.029  0.6917 -0.3630 -0.0904
13273TIP3    H161234   6.701   6.077   1.040 -1.3620  0.7140 -0.4375
13273TIP3    H261235   6.699   6.222   1.082  1.0960  1.0440 -1.3562
13274TIP3   OH261236   5.434   1.351  15.040  0.8888 -0.0415  0.0271
13274TIP3    H161237   5.346   1.319  15.021  1.2704 -0.3892 -1.1908
13274TIP3    H261238   5.475   1.281  15.091  0.9186 -0.4655 -0.5812
13275TIP3   OH261239   2.795   3.872  13.047  0.3244 -0.2476  0.1268
13275TIP3    H161240   2.776   3.802  12.984  0.7416  0.6061 -0.9776
13275TIP3    H261241   2.871   3.841  13.095 -0.3243 -1.1488  0.5804
13276TIP3   OH261242   5.442   6.466   0.692  0.3081 -0.2774 -0.2911
13276TIP3    H161243   5.499   6.486   0.617  1.0738  3.1799  1.1294
13276TIP3    H261244   5.462   6.375   0.713  1.9545 -0.5302 -2.6685
13277TIP3   OH261245   2.458   4.024   5.656  0.4470  0.8208 -0.1177
13277TIP3    H161246   2.471   3.933   5.682  1.3226  1.2075  0.8391
13277TIP3    H261247   2.492   4.029   5.567  3.1131  0.8712  0.8750
13278TIP3   OH261248   6.591   3.849   5.382  0.1613 -0.3273 -0.0602
13278TIP3    H161249   6.545   3.916   5.432 -0.8415 -0.3369 -0.9591
13278TIP3    H261250   6.584   3.770   5.435  2.6205  0.5874  1.7218
13279TIP3   OH261251   4.583   1.656   5.430  0.3256 -0.3278 -0.5968
13279TIP3    H161252   4.588   1.613   5.345  0.9307 -0.3159 -0.5745
13279TIP3    H261253   4.546   1.590   5.489  1.2629 -0.8267 -0.5579
13280TIP3   OH261254   1.686   2.214   0.258  0.3878 -0.4802  0.5663
13280TIP3    H161255   1.703   2.178   0.171 -1.3027  1.0636 -0.4399
13280TIP3    H261256   1.623   2.154   0.298  0.7596 -0.8948  0.5377
13281TIP3   OH261257   5.413   0.306   4.888  0.5014  0.1381  0.1887
13281TIP3    H161258   5.323   0.325   4.861  0.5812  0.1681 -0.0583
13281TIP3    H261259   5.467   0.356   4.827  0.6556  1.7605  1.5997
13282TIP3   OH261260   3.030   0.148   6.549  0.3515  0.6455  0.1443
13282TIP3    H161261   3.097   0.080   6.552  0.4510  0.7471  0.2450
13282TIP3    H261262   2.947   0.101   6.546  0.4328  0.5190 -0.0635
13283TIP3   OH261263   6.071   4.817   1.598 -0.1327 -0.2167 -0.0484
13283TIP3    H161264   6.026   4.733   1.602  0.2995 -0.3998  1.1702
13283TIP3    H261265   6.016   4.872   1.543 -2.4267 -0.1076  2.2552
13284TIP3   OH261266   3.069   3.246   5.738  0.5919  0.0928  0.1897
13284TIP3    H161267   3.088   3.154   5.721  1.2298  0.2686 -0.0997
13284TIP3    H261268   3.036   3.249   5.827 -1.8672 -0.7392 -0.6629
13285TIP3   OH261269   3.669   6.400   0.534 -0.4494  0.2879 -0.6650
13285TIP3    H161270   3.702   6.328   0.479 -2.1312 -1.5460  0.6474
13285TIP3    H261271   3.724   6.397   0.612  0.2708  1.2265 -1.1349
13286TIP3   OH261272   0.978   5.638  14.016  0.0321 -0.2306 -0.3096
13286TIP3    H161273   0.983   5.733  14.019  0.6174 -0.2425 -0.8116
13286TIP3    H261274   1.042   5.609  14.081 -0.8676 -0.2742  0.5692
13287TIP3   OH261275   5.240   2.660  13.686 -0.0827  0.4456  0.2085
13287TIP3    H161276   5.213   2.626  13.771  0.7554 -0.0963  0.2629
13287TIP3    H261277   5.267   2.582  13.637 -0.3083  0.7860 -0.4636
13288TIP3   OH261278   3.352   5.464  12.080  0.0961  0.9493 -0.3810
13288TIP3    H161279   3.418   5.395  12.070 -0.6729 -0.2809  2.4231
13288TIP3    H261280   3.271   5.425  12.047 -0.0229  1.0766 -0.2369
13289TIP3   OH261281   3.191   1.304  11.019 -0.0963 -0.4054  0.0474
13289TIP3    H161282   3.108   1.261  10.996  1.0769 -1.7808 -1.7850
13289TIP3    H261283   3.180   1.395  10.989 -0.2995 -1.0389 -1.8782
13290TIP3   OH261284   2.207   3.585  17.205 -0.6117  0.1886 -0.1578
13290TIP3    H161285   2.194   3.658  17.144 -1.0401 -0.6971 -1.1415
13290TIP3    H261286   2.266   3.526  17.160 -2.3702 -1.3541 -0.5137
13291TIP3   OH261287   3.784   6.530  16.008  0.0866 -0.6100 -0.3761
13291TIP3    H161288   3.861   6.559  15.958 -0.0236 -1.1231 -0.8546
13291TIP3    H261289   3.763   6.603  16.065 -0.6701  0.5600 -2.1287
13292TIP3   OH261290   1.443   5.189   2.156 -0.3193  0.2582 -0.0221
13292TIP3    H161291   1.515   5.245   2.186 -1.4627  1.3100  0.7965
13292TIP3    H261292   1.408   5.234   2.079 -0.8282  0.3223  0.2505
13293TIP3   OH261293   3.247   2.128   5.059  0.4237  0.0445  0.1783
13293TIP3    H161294   3.208   2.182   4.990  1.7441  0.7342 -0.0499
13293TIP3    H261295   3.220   2.171   5.141 -0.7159 -0.4784  0.0889
13294TIP3   OH261296   3.962   0.236  15.008 -0.2206  0.0603  0.4297
13294TIP3    H161297   4.024   0.307  14.989  0.4352 -0.5573  0.2522
13294TIP3    H261298   3.962   0.229  15.104 -2.0644  1.8685  0.6045
13295TIP3   OH261299   1.950   5.478   0.869  0.0786  0.6261 -0.2055
13295TIP3    H161300   1.870   5.485   0.920  0.4676  0.5864  0.4173
13295TIP3    H261301   2.020   5.469   0.934  0.3764 -1.5362 -0.8100
13296TIP3   OH261302   5.420   1.112  12.123  0.4120  0.1201  0.2476
13296TIP3    H161303   5.514   1.127  12.128  0.2314  1.4019  0.0408
13296TIP3    H261304   5.382   1.200  12.127 -0.6767 -0.2088 -1.8970
13297TIP3   OH261305   2.835   4.311  14.921 -0.5896 -0.6877 -0.2281
13297TIP3    H161306   2.820   4.358  14.839 -1.1437 -0.0609  0.2305
13297TIP3    H261307   2.785   4.231  14.912 -0.8608 -0.5003 -0.3935
13298TIP3   OH261308   5.115   1.222   4.893 -0.8178 -0.5948 -0.2889
13298TIP3    H161309   5.034   1.209   4.942 -0.7989  2.0606  0.5519
13298TIP3    H261310   5.086   1.242   4.804 -1.0111 -1.3266 -0.3929
13299TIP3   OH261311   1.236   0.100   0.844  0.4076 -0.4561  0.2090
13299TIP3    H161312   1.156   0.140   0.811  1.5709  1.1989 -0.6968
13299TIP3    H261313   1.253   0.144   0.928  0.1105 -1.1367  0.6255
13300TIP3   OH261314   5.094   2.577   1.056 -0.1444  0.2219  0.2164
13300TIP3    H161315   5.049   2.603   1.136 -0.4193  3.0996 -0.8235
13300TIP3    H261316   5.025   2.573   0.990  0.6691  2.1039 -0.7956
13301TIP3   OH261317   4.824   2.861   6.513  0.1888  0.2027  0.4661
13301TIP3    H161318   4.836   2.955   6.500  2.6627 -0.0366  0.7832
13301TIP3    H261319   4.867   2.842   6.597 -1.4774 -0.9983  1.0855
13302TIP3   OH261320   1.291   4.811  13.825  0.6711 -1.0455 -0.3885
13302TIP3    H161321   1.307   4.851  13.740  1.5892  0.3571  0.4198
13302TIP3    H261322   1.374   4.770  13.849  0.2588 -1.9126 -0.3956
13303TIP3   OH261323   3.704   3.406   2.318  0.2436 -0.3507  0.1778
13303TIP3    H161324   3.640   3.420   2.388  1.6178  2.4281  0.9528
13303TIP3    H261325   3.778   3.364   2.362 -0.7888 -3.1847 -0.6421
13304TIP3   OH261326   5.577   5.682   4.640 -0.0766 -0.6379  0.0373
13304TIP3    H161327   5.640   5.706   4.708 -0.5620  0.4444  0.1079
13304TIP3    H261328   5.620   5.612   4.591  0.9791 -0.2441  0.3870
13305TIP3   OH261329   5.118   1.403  16.381  0.0935  0.1602 -0.3127
13305TIP3    H161330   5.035   1.438  16.411  0.4688  1.5991 -0.9177
13305TIP3    H261331   5.117   1.413  16.286 -0.0046 -1.9866 -0.5779
13306TIP3   OH261332   2.350   4.642  14.644 -0.0998  0.3900 -1.0214
13306TIP3    H161333   2.303   4.647  14.728  1.8721 -0.0663  0.1402
13306TIP3    H261334   2.320   4.718  14.595 -1.2905  0.6564  0.0980
13307TIP3   OH261335   1.161   6.201  16.154  0.4509  0.4134 -0.0420
13307TIP3    H161336   1.114   6.271  16.109 -3.3998 -1.9477  0.0955
13307TIP3    H261337   1.168   6.230  16.245  1.0451  1.6884 -0.4975
13308TIP3   OH261338   5.599   6.116  16.189  0.4414  0.4365 -0.4031
13308TIP3    H161339   5.653   6.103  16.267 -0.2411 -3.1309 -0.4462
13308TIP3    H261340   5.662   6.145  16.122  1.7689 -0.5177  0.3929
13309TIP3   OH261341   1.830   1.011  16.459 -0.0374 -0.0780 -0.0705
13309TIP3    H161342   1.784   1.030  16.377 -1.0455  1.3546  0.8294
13309TIP3    H261343   1.898   0.948  16.433 -1.2149 -0.6985 -1.7538
13310TIP3   OH261344   6.426   1.404   3.179 -0.2098  0.1307  0.9201
13310TIP3    H161345   6.406   1.340   3.248 -1.3749 -1.9423 -1.2692
13310TIP3    H261346   6.500   1.365   3.132 -1.7373 -0.2838 -1.2109
13311TIP3   OH261347   5.384   5.952  13.430  0.3554  0.4180 -0.0299
13311TIP3    H161348   5.470   5.936  13.392  0.7886 -1.9600  1.8266
13311TIP3    H261349   5.380   6.047  13.442  2.8232  0.5363  0.0719
13312TIP3   OH261350   5.288   3.272  15.938  0.0348  0.3673 -0.2824
13312TIP3    H161351   5.310   3.299  16.027  0.2571 -0.4944 -0.0751
13312TIP3    H261352   5.371   3.276  15.891  0.1029 -0.1375 -0.2051
13313TIP3   OH261353   2.741   5.643  16.548 -0.8520  0.1013 -0.1311
13313TIP3    H161354   2.824   5.596  16.543 -1.1963 -0.7315  1.5707
13313TIP3    H261355   2.735   5.690  16.465  0.6748 -0.8969 -0.8326
13314TIP3   OH261356   1.606   2.849   0.800  0.0369  0.1440  0.1875
13314TIP3    H161357   1.585   2.873   0.890 -0.7388 -1.2438  0.3824
13314TIP3    H261358   1.698   2.824   0.803 -0.0825 -0.2380  0.6602
13315TIP3   OH261359   2.773   5.383  12.425  0.0794  0.1903 -0.1004
13315TIP3    H161360   2.766   5.403  12.331  2.8773 -2.7383 -1.0427
13315TIP3    H261361   2.850   5.431  12.453 -2.3342  3.3165  1.4644
13316TIP3   OH261362   5.265   3.568  15.316  0.4262  0.3164  0.3512
13316TIP3    H161363   5.227   3.498  15.370  0.8601  0.1730  0.4718
13316TIP3    H261364   5.239   3.648  15.361 -0.0052  0.2294  0.2584
13317TIP3   OH261365   5.563   4.602   5.103  0.2665  0.5746  0.6650
13317TIP3    H161366   5.515   4.537   5.052 -1.4453  1.5799  0.9397
13317TIP3    H261367   5.522   4.599   5.189  1.4083  0.7297  1.2250
13318TIP3   OH261368   2.778   6.240   5.235 -0.2291 -0.5846 -0.1746
13318TIP3    H161369   2.768   6.234   5.330  2.8899 -0.0185  0.2188
13318TIP3    H261370   2.792   6.150   5.207 -1.9459 -0.8553 -0.2344
13319TIP3   OH261371   1.445   4.076  12.165  0.5108 -0.4542  0.4542
13319TIP3    H161372   1.350   4.073  12.153  0.6818 -0.2788 -1.1320
13319TIP3    H261373   1.457   4.105  12.255 -0.9423  0.8031  0.2679
13320TIP3   OH261374   6.640   4.236   1.923 -0.1287 -0.0135 -0.4082
13320TIP3    H161375   6.551   4.252   1.890 -0.2037  0.1760 -0.1156
13320TIP3    H261376   6.639   4.144   1.949 -0.8684  0.5163  1.5208
13321TIP3   OH261377   6.642   1.352   0.734 -0.1588 -0.0740  0.0015
13321TIP3    H161378   6.609   1.262   0.729 -0.0419 -0.1325  0.2752
13321TIP3    H261379   6.706   1.357   0.662  1.0761 -0.7350  1.0318
13322TIP3   OH261380   3.602   5.874  12.791  0.1199 -0.5446  0.1733
13322TIP3    H161381   3.695   5.892  12.803  0.4872 -1.2999 -1.5209
13322TIP3    H261382   3.567   5.955  12.754  0.4531 -0.8686 -0.8702
13323TIP3   OH261383   4.835   5.374  14.524  0.6790  0.5217  0.1737
13323TIP3    H161384   4.850   5.365  14.430 -2.4648  0.9459 -0.4184
13323TIP3    H261385   4.866   5.463  14.544 -0.8046  1.3184 -0.9550
13324TIP3   OH261386   1.511   5.155   4.594 -0.4979 -0.3041 -0.0133
13324TIP3    H161387   1.572   5.227   4.610 -2.1939  1.1881 -0.1255
13324TIP3    H261388   1.522   5.133   4.502  0.0392 -0.1987  0.0275
13325TIP3   OH261389   0.154   0.042  11.124  1.1338 -1.0188 -0.2604
13325TIP3    H161390   0.078  -0.005  11.160 -0.5341  0.6363 -1.4734
13325TIP3    H261391   0.150   0.023  11.030  1.7218 -0.2005 -0.4484
13326TIP3   OH261392   6.623   0.648   3.462  0.2425  0.1855 -0.4485
13326TIP3    H161393   6.709   0.671   3.496  0.9002 -1.3806 -1.0007
13326TIP3    H261394   6.563   0.666   3.535  1.1622  0.3441  0.2789
13327TIP3   OH261395   6.478   5.974  14.329 -0.2295  0.1406  0.0702
13327TIP3    H161396   6.481   6.012  14.417  2.8421 -0.9101  0.4828
13327TIP3    H261397   6.483   6.049  14.271  1.5776  0.6791  0.8604
13328TIP3   OH261398   0.769   2.386  15.750 -0.2456 -0.1765  0.2690
13328TIP3    H161399   0.841   2.369  15.811 -1.0606  0.7450  1.4807
13328TIP3    H261400   0.690   2.360  15.797 -0.9265  1.0563 -0.1708
13329TIP3   OH261401   4.025   4.410  11.147 -0.1197  0.2530  0.3955
13329TIP3    H161402   3.994   4.356  11.074 -2.1682 -0.1318  1.5191
13329TIP3    H261403   4.084   4.473  11.107 -1.6670  0.4182 -1.6975
13330TIP3   OH261404   2.607   5.611   2.485  0.4155  0.0188 -0.2614
13330TIP3    H161405   2.574   5.690   2.441 -0.0366  0.5061  0.9239
13330TIP3    H261406   2.690   5.593   2.443  1.3776  2.1770  0.6277
13331TIP3   OH261407   0.456   3.557   6.222  0.2033  0.0494  0.2614
13331TIP3    H161408   0.413   3.641   6.241 -0.6647 -0.3913  0.2633
13331TIP3    H261409   0.384   3.494   6.214  0.9654 -1.3044  3.2352
13332TIP3   OH261410   5.647   2.243   2.481 -0.3202 -0.5417  0.1303
13332TIP3    H161411   5.560   2.283   2.477 -1.1819 -2.2891  0.8637
13332TIP3    H261412   5.630   2.152   2.505  1.6934 -1.0048 -0.1376
13333TIP3   OH261413   4.529   0.955   0.797 -0.6321  0.2337  0.6094
13333TIP3    H161414   4.509   1.048   0.784 -0.1830  0.1296 -0.8477
13333TIP3    H261415   4.476   0.910   0.731  0.2291 -0.4411  0.3876
13334TIP3   OH261416   5.149   0.953   6.120  0.6652 -0.0699 -0.5700
13334TIP3    H161417   5.056   0.961   6.096 -0.2195 -0.4028  2.4749
13334TIP3    H261418   5.174   1.042   6.146 -0.1325 -0.7344  2.8113
13335TIP3   OH261419   2.926   1.458   1.141  0.0391 -0.2524 -0.0587
13335TIP3    H161420   2.940   1.369   1.173  2.5904  0.1099 -0.0925
13335TIP3    H261421   2.913   1.510   1.221 -1.6143 -0.6717 -0.0483
13336TIP3   OH261422   6.326   4.322  12.834  0.2673  0.4581  0.4589
13336TIP3    H161423   6.339   4.266  12.910 -1.0875  1.8044  1.7267
13336TIP3    H261424   6.249   4.287  12.790  0.5175  0.2237  0.2011
13337TIP3   OH261425   3.259   4.182  15.843  0.0442 -0.1482 -0.5676
13337TIP3    H161426   3.255   4.209  15.751  0.1798  0.3844 -0.4201
13337TIP3    H261427   3.244   4.263  15.892 -0.1253 -0.4503 -0.1226
13338TIP3   OH261428   3.754   3.217  12.339  0.2085  0.2452 -0.2215
13338TIP3    H161429   3.753   3.313  12.338 -0.0114  0.2480  0.1597
13338TIP3    H261430   3.725   3.193  12.428 -0.4249 -0.1785 -0.5328
13339TIP3   OH261431   5.864   5.125   3.657 -0.0062 -0.1199  0.1055
13339TIP3    H161432   5.889   5.036   3.682 -0.2943 -0.3130 -0.2961
13339TIP3    H261433   5.875   5.176   3.737  0.4704 -0.4518  0.2550
13340TIP3   OH261434   5.861   0.589  14.937  0.5590  0.3038 -0.6617
13340TIP3    H161435   5.852   0.680  14.907  1.2604  0.3196 -0.8438
13340TIP3    H261436   5.888   0.541  14.859  1.3942  0.1644 -0.2931
13341TIP3   OH261437   4.828   6.420  16.113 -0.0651  0.0012 -0.1979
13341TIP3    H161438   4.898   6.453  16.170 -0.7880 -2.2512  2.0400
13341TIP3    H261439   4.766   6.493  16.107 -0.0305  0.2385  2.0117
13342TIP3   OH261440   4.066   1.337  13.207  0.2321 -0.1612  0.5037
13342TIP3    H161441   3.987   1.288  13.230  0.2912 -0.8475 -0.7238
13342TIP3    H261442   4.127   1.271  13.175  1.1846  0.4173  1.0823
13343TIP3   OH261443   5.692   1.818   5.683  0.0920 -0.0833  0.2374
13343TIP3    H161444   5.684   1.900   5.731 -1.1492 -0.3561  0.5192
13343TIP3    H261445   5.687   1.750   5.750 -2.2802 -0.4879 -0.3143
13344TIP3   OH261446   4.383   0.579  15.553  1.1877  0.5059  0.3238
13344TIP3    H161447   4.475   0.568  15.527  1.0880  0.0089  0.1718
13344TIP3    H261448   4.343   0.494  15.536  1.1556  0.1152  2.2659
13345TIP3   OH261449   4.411   2.803   3.399 -0.4630  0.4984 -0.0396
13345TIP3    H161450   4.453   2.746   3.463 -0.9819  2.1187  1.8004
13345TIP3    H261451   4.480   2.822   3.335 -0.0653 -1.4833 -0.2287
13346TIP3   OH261452   1.747   6.517  12.501 -0.3779  0.4366 -0.3791
13346TIP3    H161453   1.721   6.580  12.569  0.7899  1.0010 -0.4343
13346TIP3    H261454   1.809   6.459  12.545 -1.4644 -0.6797 -0.3295
13347TIP3   OH261455   2.450   5.676  15.219 -1.1405 -0.2679  0.1163
13347TIP3    H161456   2.376   5.616  15.209 -0.5004 -1.0978  0.3279
13347TIP3    H261457   2.460   5.687  15.313 -1.6787  0.7123  0.0681
13348TIP3   OH261458   3.610   1.122   2.980 -0.1073  0.1144 -0.1242
13348TIP3    H161459   3.606   1.211   2.945  0.4251  0.1067 -0.2129
13348TIP3    H261460   3.609   1.066   2.903 -2.9745 -0.0728 -0.0052
13349TIP3   OH261461   2.967   0.403   2.514 -0.3338  0.1604  0.0933
13349TIP3    H161462   2.972   0.459   2.592 -0.8928 -0.4053  0.5466
13349TIP3    H261463   2.891   0.435   2.467  1.3566  2.0277 -1.4486
13350TIP3   OH261464   5.551   3.269  17.181 -0.0385  0.2740 -0.0685
13350TIP3    H161465   5.512   3.351  17.209 -0.7165 -0.5446  1.4535
13350TIP3    H261466   5.485   3.228  17.125  0.0573  0.4843 -0.3372
13351TIP3   OH261467   2.317   5.780  11.756  0.1304 -0.2623 -0.5198
13351TIP3    H161468   2.359   5.744  11.835  1.0740  0.5282 -0.6591
13351TIP3    H261469   2.248   5.837  11.790 -0.1451 -0.7331 -0.2806
13352TIP3   OH261470   6.564   3.929  11.497 -0.1057  0.2779  0.1611
13352TIP3    H161471   6.562   3.975  11.413  1.8866 -1.0083 -0.6359
13352TIP3    H261472   6.495   3.863  11.490  0.6559 -0.4255 -0.8374
13353TIP3   OH261473   5.403   6.298  16.260  0.3426  0.4502  0.3994
13353TIP3    H161474   5.409   6.380  16.212  1.3402  0.2083  0.0928
13353TIP3    H261475   5.479   6.247  16.231 -0.4587 -0.7195  0.3242
13354TIP3   OH261476   2.857   1.532  13.016 -0.0102 -0.0862  0.1439
13354TIP3    H161477   2.832   1.449  13.057 -0.3042 -0.3700 -0.6100
13354TIP3    H261478   2.826   1.525  12.926 -0.2359  0.9340  0.1375
13355TIP3   OH261479   2.249   3.236  14.167  0.3944 -0.1128  0.0625
13355TIP3    H161480   2.223   3.254  14.257  1.3789 -2.8985  0.9539
13355TIP3    H261481   2.321   3.297  14.150 -0.0513  0.6919  1.0147
13356TIP3   OH261482   2.775   5.888  16.790 -0.3570  0.5804 -0.3941
13356TIP3    H161483   2.706   5.868  16.727 -1.8200 -0.5442  1.4992
13356TIP3    H261484   2.753   5.976  16.822 -1.4234 -0.1062  0.8142
13357TIP3   OH261485   0.052   1.810  12.337  0.7590 -0.0364 -0.3257
13357TIP3    H161486   0.124   1.765  12.381 -0.1405 -1.7303 -0.5500
13357TIP3    H261487  -0.027   1.765  12.367 -0.0235  0.2059 -1.9351
13358TIP3   OH261488   6.205   3.328   1.456 -0.4142  0.1628  0.1011
13358TIP3    H161489   6.159   3.407   1.427 -1.0145  0.4072  1.6518
13358TIP3    H261490   6.297   3.354   1.462 -0.6090  0.7499  0.6056
13359TIP3   OH261491   1.479   5.122   5.012  0.3269 -0.3175 -0.0665
13359TIP3    H161492   1.560   5.170   4.995 -0.5012  1.5448  1.1314
13359TIP3    H261493   1.410   5.182   4.986 -0.7195 -1.3629  0.2413
13360TIP3   OH261494   2.700   5.318   6.614  0.2612  0.0633  0.2026
13360TIP3    H161495   2.675   5.391   6.556  1.0441  1.0501  1.0842
13360TIP3    H261496   2.617   5.276   6.637 -0.1772  0.5079 -0.5390
13361TIP3   OH261497   5.361   0.349  13.706 -0.1487 -0.4168 -0.1528
13361TIP3    H161498   5.435   0.409  13.712 -0.0524 -0.6155  0.7609
13361TIP3    H261499   5.352   0.331  13.612  0.0907  0.6813 -0.3964
13362TIP3   OH261500   0.366   5.074   1.027 -0.6100 -0.1125  0.5141
13362TIP3    H161501   0.359   5.168   1.042  0.8744  0.6421 -3.0773
13362TIP3    H261502   0.427   5.043   1.095 -0.6483  1.5901  1.3449
13363TIP3   OH261503   0.263   4.592  12.166  0.1483 -0.4823  0.1942
13363TIP3    H161504   0.181   4.639  12.152 -0.5437 -1.4417  0.9458
13363TIP3    H261505   0.243   4.529  12.235  1.4705 -0.8569  0.2516
13364TIP3   OH261506   2.129   1.411  15.573 -0.8760  0.1153  0.1515
13364TIP3    H161507   2.036   1.391  15.558 -0.6072  0.6722 -2.4254
13364TIP3    H261508   2.142   1.496  15.532  1.2029 -0.7932 -1.1331
13365TIP3   OH261509   3.027   6.702  17.110 -0.1888  0.1402 -0.1491
13365TIP3    H161510   3.047   6.621  17.157  0.7316  0.5573  0.1964
13365TIP3    H261511   3.112   6.733  17.079 -0.5832  0.7798 -0.5945
13366TIP3   OH261512   2.353   2.222   3.005  0.1219 -0.2112 -0.1761
13366TIP3    H161513   2.289   2.239   2.936  0.2948 -0.3495 -0.3707
13366TIP3    H261514   2.430   2.274   2.981  0.4407 -0.8122 -0.4671
13367TIP3   OH261515   1.181   5.939  12.489  0.2280  0.0073  0.4712
13367TIP3    H161516   1.163   5.845  12.497 -2.7645  0.1698 -2.7451
13367TIP3    H261517   1.105   5.981  12.530  1.1124  0.9980  1.0969
13368TIP3   OH261518   0.946   2.697   1.061 -0.0265 -0.5266 -0.4888
13368TIP3    H161519   1.028   2.677   1.106  0.2854 -0.1561 -0.8945
13368TIP3    H261520   0.879   2.686   1.129  0.7146  2.9750  0.9296
13369TIP3   OH261521   0.298   0.035   1.574  0.0794 -1.0125 -0.3811
13369TIP3    H161522   0.209  -0.001   1.579  0.5141 -2.1026 -0.4131
13369TIP3    H261523   0.339  -0.013   1.503  0.4144  0.1365 -0.9751
13370TIP3   OH261524   3.084   0.141   1.502 -0.1118 -0.4391 -0.6776
13370TIP3    H161525   3.165   0.120   1.550 -1.5238  2.0178  3.0430
13370TIP3    H261526   3.014   0.119   1.564 -2.1749  0.0496 -2.8023
13371TIP3   OH261527   3.630   1.277  11.102  0.4205 -0.5594  0.2060
13371TIP3    H161528   3.546   1.293  11.145  0.8001 -0.4750  0.9245
13371TIP3    H261529   3.607   1.261  11.010 -0.2689  0.7620  0.1307
13372TIP3   OH261530   0.198   5.231  11.366  0.1326 -0.0289 -0.1393
13372TIP3    H161531   0.206   5.173  11.290  2.1252  0.0841 -0.0463
13372TIP3    H261532   0.286   5.235  11.402 -0.3899  1.5171  1.0185
13373TIP3   OH261533   3.655   1.769  13.995  0.3938 -0.1401  0.4423
13373TIP3    H161534   3.746   1.759  13.969 -0.1707 -0.1165 -1.5833
13373TIP3    H261535   3.653   1.848  14.049  1.4111  0.3541 -0.2461
13374TIP3   OH261536   2.501   0.327  11.939  0.0196  0.3340 -0.4693
13374TIP3    H161537   2.587   0.302  11.904 -0.1747  0.3722 -0.9674
13374TIP3    H261538   2.439   0.267  11.896 -0.3070  0.8852 -0.7680
13375TIP3   OH261539   5.862   5.515   2.670  0.2341 -0.4693  0.1633
13375TIP3    H161540   5.871   5.423   2.647  1.9420 -0.2548 -0.0892
13375TIP3    H261541   5.938   5.535   2.725 -1.8950 -0.0449  3.0986
13376TIP3   OH261542   6.031   2.338  14.354 -0.4125 -0.1781 -0.6157
13376TIP3    H161543   6.023   2.384  14.438 -0.0193  1.8829 -1.6869
13376TIP3    H261544   6.021   2.246  14.377  1.1243  0.2248  1.9251
13377TIP3   OH261545   2.324   3.148   4.966 -0.2852 -0.0393 -0.4491
13377TIP3    H161546   2.301   3.120   5.054 -1.6851  1.0477 -0.4566
13377TIP3    H261547   2.246   3.131   4.913 -0.6655  2.4109 -0.7563
13378TIP3   OH261548   3.095   0.328   3.629  0.2290  0.3411 -0.4601
13378TIP3    H161549   3.063   0.286   3.549 -1.1160  0.9132 -0.2319
13378TIP3    H261550   3.024   0.317   3.693 -0.3595  3.2638 -0.5029
13379TIP3   OH261551   1.898   6.725   1.225  0.1131  0.1015  0.6702
13379TIP3    H161552   1.833   6.697   1.289 -1.6722 -0.8542 -1.4998
13379TIP3    H261553   1.852   6.723   1.142  2.7920 -0.1236 -0.8632
13380TIP3   OH261554   5.970   2.785  15.238 -0.4718 -0.6772  0.2859
13380TIP3    H161555   5.951   2.695  15.265  2.4358 -1.6893 -0.8803
13380TIP3    H261556   6.037   2.776  15.170  1.0679  2.4643  1.2970
13381TIP3   OH261557   4.624   3.472   2.448 -0.2133  0.3851 -0.0684
13381TIP3    H161558   4.677   3.425   2.513 -3.2837 -2.0707  0.7679
13381TIP3    H261559   4.620   3.414   2.373  1.0900  2.0672 -1.4821
13382TIP3   OH261560   2.704   4.031  12.790  0.8675  0.2244  0.1210
13382TIP3    H161561   2.754   3.991  12.719 -2.2662 -2.8226 -0.4857
13382TIP3    H261562   2.734   3.988  12.869  0.5041 -0.3213 -0.0340
13383TIP3   OH261563   4.611   4.812   3.342  0.7241  0.0144 -0.4881
13383TIP3    H161564   4.646   4.724   3.356 -0.5390 -0.6297 -1.2501
13383TIP3    H261565   4.654   4.843   3.263  0.0940 -0.5023 -1.0390
13384TIP3   OH261566   5.076   4.123  11.623 -0.1580 -0.8877 -0.5277
13384TIP3    H161567   5.027   4.111  11.542 -0.7218  0.7703 -0.4382
13384TIP3    H261568   5.112   4.211  11.617  3.7538 -2.4109 -1.0727
13385TIP3   OH261569   2.356   4.677   5.465 -0.2283  0.0116 -0.0808
13385TIP3    H161570   2.344   4.627   5.545  1.4611  0.4971  0.4966
13385TIP3    H261571   2.427   4.633   5.419  0.3454  1.0520 -0.2205
13386TIP3   OH261572   1.485   2.505   2.815  0.3396 -0.4779  0.1741
13386TIP3    H161573   1.504   2.414   2.791  2.6669  0.6492 -2.6455
13386TIP3    H261574   1.471   2.549   2.731  1.2822  2.1624  1.3528
13387TIP3   OH261575   4.442   1.456  15.375 -0.2604 -0.5150 -0.0127
13387TIP3    H161576   4.431   1.546  15.345  0.6427 -0.2304  0.4732
13387TIP3    H261577   4.532   1.453  15.409  0.0268 -1.8454 -0.8695
13388TIP3   OH261578   1.463   3.282  12.090  0.7264  0.1981  0.1408
13388TIP3    H161579   1.517   3.263  12.013  0.7608  1.1704 -0.0795
13388TIP3    H261580   1.373   3.267  12.061  0.8904 -1.6989  0.5876
13389TIP3   OH261581   3.156   2.015  17.130  0.0245 -0.1614  0.7960
13389TIP3    H161582   3.197   2.030  17.215 -1.5581  1.4372  1.2929
13389TIP3    H261583   3.137   1.921  17.128  0.3181 -0.2494  2.0768
13390TIP3   OH261584   4.940   1.915   2.176  0.3464 -0.0074 -0.3204
13390TIP3    H161585   4.994   1.992   2.193 -0.4636  0.4444  0.2090
13390TIP3    H261586   4.909   1.926   2.087 -2.6833  2.0887  0.9120
13391TIP3   OH261587   2.321   0.080  11.889 -1.0434  0.0847  0.1120
13391TIP3    H161588   2.339  -0.006  11.926 -1.1711 -0.5463 -1.2723
13391TIP3    H261589   2.225   0.086  11.889 -1.1168 -0.8054 -2.0900
13392TIP3   OH261590   2.001   3.977   0.795 -0.0775 -0.1132 -0.1403
13392TIP3    H161591   2.019   4.069   0.780 -0.6219 -0.2316 -1.5952
13392TIP3    H261592   2.063   3.951   0.863 -1.1595  1.7704  1.6595
13393TIP3   OH261593   5.426   1.333   0.312 -0.5091 -0.1472 -0.1919
13393TIP3    H161594   5.432   1.354   0.405 -1.6632  0.2151 -0.1913
13393TIP3    H261595   5.380   1.408   0.273 -0.2813 -0.4254 -1.0034
13394TIP3   OH261596   1.293   4.017   4.685  0.6283 -0.2575  0.3184
13394TIP3    H161597   1.244   4.069   4.749  1.3006  0.5432  0.1856
13394TIP3    H261598   1.367   4.073   4.660  1.1576 -1.1306 -0.0922
13395TIP3   OH261599   0.617   2.088  11.935  0.4370  0.8425  0.3742
13395TIP3    H161600   0.580   2.004  11.907 -0.8033  1.7595 -0.8603
13395TIP3    H261601   0.702   2.066  11.972 -0.1959 -1.0375  0.7656
13396TIP3   OH261602   0.222   0.831  14.456  0.2837  0.0208  0.0604
13396TIP3    H161603   0.181   0.843  14.370  1.0484 -0.2646 -0.3572
13396TIP3    H261604   0.170   0.763  14.498 -0.2161  0.3054 -0.1038
13397TIP3   OH261605   3.592   1.558  16.563  0.0064 -0.1280 -0.5106
13397TIP3    H161606   3.676   1.577  16.605 -0.4596 -1.0548  0.8862
13397TIP3    H261607   3.543   1.640  16.570  1.5662  1.1086 -3.3088
13398TIP3   OH261608   3.183   4.878  16.608 -0.5640 -0.4851 -0.5979
13398TIP3    H161609   3.256   4.889  16.670 -0.3235  0.1953 -0.9973
13398TIP3    H261610   3.204   4.937  16.536 -0.7394 -1.4324 -1.4297
13399TIP3   OH261611   1.239   4.387  11.032  0.3024 -0.1572  0.0644
13399TIP3    H161612   1.230   4.396  10.938  0.0766  2.1854  0.2655
13399TIP3    H261613   1.325   4.347  11.044  0.7791  0.4899 -1.1104
13400TIP3   OH261614   1.309   5.099   4.354 -0.1103  0.2200  0.0147
13400TIP3    H161615   1.240   5.121   4.417 -0.2080  1.8295 -0.6187
13400TIP3    H261616   1.266   5.042   4.290 -0.5087  0.1271  0.3643
13401TIP3   OH261617   0.038   4.684  11.487  0.1718  0.4828 -0.0311
13401TIP3    H161618   0.086   4.615  11.443  0.7917  1.8272 -1.5301
13401TIP3    H261619  -0.030   4.709  11.424  1.8063  3.2505 -0.7973
13402TIP3   OH261620   6.251   2.978   2.634  0.4035  0.1489 -0.3876
13402TIP3    H161621   6.311   2.931   2.692 -1.4373 -2.1056 -0.2945
13402TIP3    H261622   6.276   2.949   2.546 -0.4595 -0.7022 -0.3556
13403TIP3   OH261623   3.339   3.589   0.769 -0.3478  0.4420  0.0495
13403TIP3    H161624   3.266   3.556   0.716  0.7997  0.0801 -1.3275
13403TIP3    H261625   3.393   3.512   0.785  0.2639  0.9098  0.2156
13404TIP3   OH261626   1.280   5.522  14.458 -0.1688  0.1649 -0.4069
13404TIP3    H161627   1.346   5.582  14.494 -0.1562 -0.7238  1.1035
13404TIP3    H261628   1.301   5.437  14.498 -0.6077 -0.6972 -1.9864
13405TIP3   OH261629   4.878   5.025   5.574 -0.1558  0.7143  0.1192
13405TIP3    H161630   4.926   5.015   5.492  1.0478 -1.2602  1.0154
13405TIP3    H261631   4.939   5.071   5.632 -0.1829  0.2124  0.5547
13406TIP3   OH261632   6.765   3.654  14.022 -0.1794  0.1520 -0.8448
13406TIP3    H161633   6.808   3.571  14.042 -0.0613  0.0316 -1.5798
13406TIP3    H261634   6.834   3.709  13.985 -0.3226  0.4727 -0.6322
13407TIP3   OH261635   6.543   3.330   4.217 -0.3107  0.2227  0.3617
13407TIP3    H161636   6.549   3.291   4.304  1.9547 -2.0030 -0.7161
13407TIP3    H261637   6.470   3.286   4.175  1.0776 -1.5944 -0.2004
13408TIP3   OH261638   1.331   1.050   5.016 -0.1079  0.4852 -0.2361
13408TIP3    H161639   1.295   1.135   5.044  0.2084  0.5503 -0.0219
13408TIP3    H261640   1.387   1.071   4.942 -3.3644 -0.0571 -2.9799
13409TIP3   OH261641   5.367   2.678  12.875  0.2686 -0.2105  0.8102
13409TIP3    H161642   5.352   2.716  12.962 -0.3657 -1.0495  1.0719
13409TIP3    H261643   5.351   2.585  12.886  1.5209 -0.5240  0.0906
13410TIP3   OH261644   0.192   0.752  12.170 -0.8020 -0.4550 -0.1034
13410TIP3    H161645   0.133   0.765  12.096 -1.7117  1.3351  0.9102
13410TIP3    H261646   0.279   0.748  12.131 -1.2672  0.6131 -1.2523
13411TIP3   OH261647   1.961   6.564  15.527  0.5373 -0.1195 -0.6129
13411TIP3    H161648   1.915   6.560  15.443  0.0595 -0.0951 -0.3516
13411TIP3    H261649   1.915   6.632  15.576  0.0332 -0.9819  0.1329
13412TIP3   OH261650   6.199   0.171  12.083 -0.2257  0.2715  0.2770
13412TIP3    H161651   6.184   0.265  12.096  1.0911  0.5282  0.0725
13412TIP3    H261652   6.155   0.151  12.000  0.1051  0.8656 -0.0450
13413TIP3   OH261653   5.115   1.652  11.381  0.1669 -0.1524  0.2576
13413TIP3    H161654   5.082   1.569  11.347 -0.1954 -0.6103  1.7130
13413TIP3    H261655   5.084   1.656  11.471  0.9596  1.1411  0.4927
13414TIP3   OH261656   0.422   0.410  13.110 -0.0667  0.3503  0.0447
13414TIP3    H161657   0.395   0.372  13.193 -0.5678 -0.7893 -0.6315
13414TIP3    H261658   0.453   0.498  13.133 -1.9211  0.7334  1.1775
13415TIP3   OH261659   2.732   4.082   2.198 -0.1038  0.3484 -0.3492
13415TIP3    H161660   2.724   4.137   2.276  0.5977  0.3592 -0.2822
13415TIP3    H261661   2.644   4.048   2.183 -0.0005 -0.6582  1.1854
13416TIP3   OH261662   0.634   2.737   0.340 -0.3648 -0.0048  0.0463
13416TIP3    H161663   0.636   2.745   0.435  0.3101  0.4360 -0.0043
13416TIP3    H261664   0.726   2.738   0.313 -0.5738  0.7246 -0.6831
13417TIP3   OH261665   5.864   4.563  16.317 -0.1863 -0.3016 -0.3009
13417TIP3    H161666   5.957   4.539  16.318 -0.5058 -1.5340  1.7785
13417TIP3    H261667   5.844   4.586  16.408 -2.2348 -1.3272 -0.4629
13418TIP3   OH261668   5.428   3.902   1.274  0.0218 -0.2492  0.8471
13418TIP3    H161669   5.440   3.942   1.361 -0.4891 -1.1516  1.3377
13418TIP3    H261670   5.343   3.859   1.280 -0.5725  0.7134 -0.5135
13419TIP3   OH261671   5.956   4.921   2.118 -0.3074  0.1469 -0.2148
13419TIP3    H161672   6.022   4.976   2.075 -1.0882 -1.0021 -2.9678
13419TIP3    H261673   6.006   4.848   2.155  0.0696 -0.4081 -1.7710
13420TIP3   OH261674   0.434   4.206  14.054 -0.2470 -0.3252  0.6579
13420TIP3    H161675   0.506   4.241  14.002 -0.2409 -0.4298  0.5959
13420TIP3    H261676   0.365   4.187  13.991 -0.3523 -0.1695  0.7269
13421TIP3   OH261677   4.951   2.754  11.391 -0.1774 -0.2442  0.2565
13421TIP3    H161678   4.861   2.767  11.362 -0.3812 -0.3547  0.8519
13421TIP3    H261679   4.949   2.674  11.443  0.0975  0.2278  1.0027
13422TIP3   OH261680   1.261   0.918  13.756  0.3167 -0.6564  0.3488
13422TIP3    H161681   1.352   0.889  13.764  0.8565  0.6263 -0.8970
13422TIP3    H261682   1.248   0.927  13.661 -0.3049  1.6850  0.6446
13423TIP3   OH261683   5.093   6.027   2.582  0.2012 -0.0644 -0.4529
13423TIP3    H161684   5.098   6.122   2.593  0.0133 -0.0922 -0.1245
13423TIP3    H261685   5.101   6.014   2.487 -0.9648  0.3726 -0.6324
13424TIP3   OH261686   5.194   6.713  14.158 -0.6217 -0.1004  0.2158
13424TIP3    H161687   5.239   6.659  14.224 -0.4778  1.0794  1.0937
13424TIP3    H261688   5.259   6.778  14.132 -0.7832 -0.3653 -0.8777
13425TIP3   OH261689   5.880   6.398  12.380  0.1979 -0.1953 -0.2355
13425TIP3    H161690   5.844   6.412  12.293 -1.3551 -1.7275  0.1317
13425TIP3    H261691   5.966   6.359  12.364 -0.6422 -1.7502 -1.0966
13426TIP3   OH261692   1.257   3.140  16.954  0.2577 -0.3617  0.1821
13426TIP3    H161693   1.201   3.201  16.905  0.6387 -0.5174 -0.4570
13426TIP3    H261694   1.197   3.093  17.012 -0.4274 -1.2072 -1.1947
13427TIP3   OH261695   5.443   6.524  15.906  0.2227  0.0876 -0.1192
13427TIP3    H161696   5.367   6.576  15.879 -0.3963 -0.7459 -0.0088
13427TIP3    H261697   5.446   6.452  15.844  1.4318  0.5695 -0.6280
13428TIP3   OH261698   6.265   4.355   3.167  0.0140 -0.7122 -0.1255
13428TIP3    H161699   6.235   4.270   3.199  0.7289 -1.0112 -0.2336
13428TIP3    H261700   6.345   4.372   3.216 -0.5053  0.2417  0.4139
13429TIP3   OH261701   2.422   1.743   1.234 -0.7372 -0.1631 -0.2608
13429TIP3    H161702   2.401   1.758   1.327  0.9537  1.0149 -0.0359
13429TIP3    H261703   2.483   1.669   1.235 -0.6058 -0.0561 -0.4201
13430TIP3   OH261704   1.439   6.233  16.971 -0.2833  0.2301  0.4345
13430TIP3    H161705   1.400   6.285  16.900  0.2079  0.3446  0.2449
13430TIP3    H261706   1.514   6.285  17.000  1.5819 -1.4051 -1.2955
13431TIP3   OH261707   6.620   4.731  10.801  0.3485  0.4730 -0.0515
13431TIP3    H161708   6.654   4.777  10.725 -2.2306 -0.1370 -1.6108
13431TIP3    H261709   6.529   4.713  10.780  0.4512 -2.5773  1.8112
13432TIP3   OH261710   5.116   1.161   1.349 -0.2129 -0.2625  0.2187
13432TIP3    H161711   5.188   1.223   1.360  1.1724 -1.5679 -1.2389
13432TIP3    H261712   5.058   1.203   1.285 -0.0912  0.2230  0.4246
13433TIP3   OH261713   0.518   2.249   0.020 -0.3989  0.1564  0.1826
13433TIP3    H161714   0.460   2.242   0.096  0.9052 -0.4074  1.1499
13433TIP3    H261715   0.519   2.343  -0.001 -0.1701  0.4271  1.3506
13434TIP3   OH261716   1.874   5.200   2.579 -0.0014 -0.0403 -0.4928
13434TIP3    H161717   1.936   5.141   2.620 -1.0553 -1.4986 -0.9631
13434TIP3    H261718   1.873   5.174   2.487 -3.8426 -2.3665  0.1179
13435TIP3   OH261719   1.312   1.235  17.201  0.4799 -0.3458 -0.1846
13435TIP3    H161720   1.357   1.314  17.231  1.8589 -1.0274 -0.4352
13435TIP3    H261721   1.224   1.242  17.238 -0.0756  2.3158 -1.8696
13436TIP3   OH261722   2.416   0.182   0.166  0.1660  0.2146  0.1158
13436TIP3    H161723   2.461   0.232   0.233 -0.4245  0.8640  0.0298
13436TIP3    H261724   2.385   0.247   0.103 -1.3263 -0.1675  0.4297
13437TIP3   OH261725   1.065   1.311   5.953 -0.6669  0.3729  0.3691
13437TIP3    H161726   0.987   1.261   5.930  0.0187 -0.2211 -0.7072
13437TIP3    H261727   1.061   1.388   5.896  0.3360 -0.4384 -0.8268
13438TIP3   OH261728   2.870   4.670  16.490  0.4336  0.2855  0.1779
13438TIP3    H161729   2.781   4.702  16.484  0.3335 -0.1957 -1.2516
13438TIP3    H261730   2.893   4.645  16.400  1.6477 -0.5365  0.6886
13439TIP3   OH261731   0.791   3.153  12.426  0.3547  0.5300  0.0419
13439TIP3    H161732   0.787   3.190  12.514  0.0674  0.3264  0.1125
13439TIP3    H261733   0.720   3.089  12.423  1.2114 -0.4393  0.1162
13440TIP3   OH261734   5.013   6.509  15.407 -0.8538  0.0471  0.4611
13440TIP3    H161735   5.024   6.416  15.422  1.7666  0.0645 -1.1713
13440TIP3    H261736   5.039   6.550  15.490  1.8625 -0.4930 -0.0775
13441TIP3   OH261737   4.344   6.040  12.092 -0.3270  0.3352 -0.1317
13441TIP3    H161738   4.370   6.120  12.137 -1.8529  0.4929  0.4853
13441TIP3    H261739   4.292   6.070  12.017 -1.0344 -0.0798  0.1883
13442TIP3   OH261740   2.414   1.489   4.784  0.7482  0.0083  0.0763
13442TIP3    H161741   2.447   1.466   4.871  0.1530 -1.0622  0.0327
13442TIP3    H261742   2.357   1.565   4.799  0.4901 -0.2944  0.6525
13443TIP3   OH261743   1.933   4.876   6.072  0.3422 -0.0660  0.0359
13443TIP3    H161744   1.926   4.822   6.151 -1.9588 -1.1908 -0.8894
13443TIP3    H261745   2.014   4.925   6.084  1.2291 -1.9265  2.0285
13444TIP3   OH261746   4.930   6.196  11.585 -0.3327  0.1527  0.2078
13444TIP3    H161747   4.893   6.108  11.586  1.1134 -0.4932  3.2041
13444TIP3    H261748   5.015   6.186  11.542 -1.2657  0.5850 -1.7516
13445TIP3   OH261749   0.648   1.160  15.531 -0.2957 -0.7728  0.5125
13445TIP3    H161750   0.615   1.176  15.619  0.3962 -1.5339  0.9235
13445TIP3    H261751   0.630   1.241  15.483 -1.3680 -0.6334  1.1366
13446TIP3   OH261752   6.449   1.630  15.525 -0.8121 -0.0626 -0.3208
13446TIP3    H161753   6.448   1.605  15.433  0.6483  2.5462 -1.1004
13446TIP3    H261754   6.360   1.660  15.542 -0.4047  2.1089 -1.7228
13447TIP3   OH261755   2.800   3.954   4.600 -0.5434  0.0922  0.2513
13447TIP3    H161756   2.848   4.030   4.567  0.9679 -1.3351 -0.9800
13447TIP3    H261757   2.840   3.936   4.685 -0.8892  0.6574  0.5356
13448TIP3   OH261758   5.562   5.502  13.834  0.2741 -0.5707  0.0869
13448TIP3    H161759   5.638   5.499  13.892  1.0716 -1.1176 -0.9665
13448TIP3    H261760   5.536   5.410  13.825 -0.6139 -0.3719  0.5629
13449TIP3   OH261761   5.857   2.381  13.590 -0.0594 -0.1822 -0.4583
13449TIP3    H161762   5.943   2.420  13.572  0.2659 -0.5398  0.2647
13449TIP3    H261763   5.795   2.453  13.578  0.6861  1.0102  2.4169
13450TIP3   OH261764   2.305   1.131   5.414  0.0032 -0.0361 -0.0331
13450TIP3    H161765   2.260   1.153   5.496  0.9915  2.3654 -0.0938
13450TIP3    H261766   2.364   1.205   5.399  0.9900 -1.2135 -2.0912
13451TIP3   OH261767   2.269   1.583   6.019  0.7243 -0.0531 -0.0560
13451TIP3    H161768   2.241   1.538   6.098 -0.6540 -0.2754 -0.6568
13451TIP3    H261769   2.223   1.667   6.021  3.0861  1.2545  0.9279
13452TIP3   OH261770   1.109   3.396  13.054  0.3146  0.1465  0.1625
13452TIP3    H161771   1.131   3.456  12.982  1.1397  0.6804  0.8442
13452TIP3    H261772   1.183   3.404  13.114  0.1879 -1.1928  0.5028
13453TIP3   OH261773   5.681   6.201   1.181  0.3880  0.1118 -0.6938
13453TIP3    H161774   5.591   6.196   1.214  0.9268  0.4241  0.8769
13453TIP3    H261775   5.728   6.253   1.247  1.3431  1.4073 -2.3463
13454TIP3   OH261776   5.835   5.247  15.929 -0.6248 -0.5788  0.1590
13454TIP3    H161777   5.829   5.312  15.858  2.3541 -2.3767 -1.8418
13454TIP3    H261778   5.886   5.290  15.997 -0.0050 -0.2666 -0.5008
13455TIP3   OH261779   2.788   6.362  13.521  0.2146  0.1738 -0.1285
13455TIP3    H161780   2.732   6.340  13.447  0.2844 -0.7821  0.0861
13455TIP3    H261781   2.866   6.307  13.510 -0.2730 -0.8500  1.2485
13456TIP3   OH261782   4.885   0.461   2.083 -0.6134 -0.2549  0.0155
13456TIP3    H161783   4.975   0.448   2.053 -1.2279 -0.5784 -1.7357
13456TIP3    H261784   4.892   0.525   2.154  1.0873 -0.9108  0.4586
13457TIP3   OH261785   2.486   0.083  16.233 -0.0046 -0.0242 -0.0094
13457TIP3    H161786   2.580   0.099  16.235  0.1736 -0.9698 -0.3638
13457TIP3    H261787   2.453   0.139  16.163  0.4476 -0.4547 -0.5669
13458TIP3   OH261788   2.906   2.527  15.730 -0.5605  0.2840 -0.1704
13458TIP3    H161789   2.860   2.458  15.779 -0.9523  0.4998 -0.2303
13458TIP3    H261790   2.908   2.495  15.640  2.0753 -1.1152  0.3391
13459TIP3   OH261791   2.642   0.108   0.857  0.8403  0.6595 -0.1598
13459TIP3    H161792   2.569   0.113   0.795  1.0022  2.5923 -0.2387
13459TIP3    H261793   2.701   0.043   0.820 -1.5318 -2.0937  0.6733
13460TIP3   OH261794   0.835   4.195   1.465 -0.2315 -0.2104 -0.3246
13460TIP3    H161795   0.842   4.280   1.423  0.1363  0.0690  0.3025
13460TIP3    H261796   0.916   4.149   1.440 -0.2381 -0.2231 -0.3227
13461TIP3   OH261797   3.928   5.171   4.780  0.2073  0.1603 -0.1043
13461TIP3    H161798   3.962   5.214   4.702  0.2774  1.0985  0.4331
13461TIP3    H261799   3.961   5.082   4.775  1.9757  0.7823 -0.0849
13462TIP3   OH261800   0.003   0.560   2.829  0.1153 -0.1876 -0.4847
13462TIP3    H161801   0.090   0.585   2.859  0.3929 -0.3649 -1.1248
13462TIP3    H261802  -0.038   0.518   2.904  0.8687 -0.8100 -0.4223
13463TIP3   OH261803   4.387   5.857   0.541  0.0882 -0.3306 -0.3640
13463TIP3    H161804   4.313   5.913   0.515 -0.2121 -0.3711  0.3901
13463TIP3    H261805   4.439   5.911   0.599 -0.1291 -0.7877  0.2572
13464TIP3   OH261806   2.078   5.705   0.775  0.0171  0.2961 -0.1130
13464TIP3    H161807   2.015   5.639   0.802  1.0141 -0.2229  1.0010
13464TIP3    H261808   2.139   5.712   0.849  0.0935  2.2435 -0.3225
13465TIP3   OH261809   5.627   5.238   2.823  0.4661 -0.7389 -0.3364
13465TIP3    H161810   5.590   5.155   2.856 -0.0386 -0.3024  0.1993
13465TIP3    H261811   5.597   5.242   2.732 -2.2016  0.3850  0.5351
13466TIP3   OH261812   2.874   2.574   0.423  0.3029  0.2893  0.2970
13466TIP3    H161813   2.797   2.593   0.369  0.5495  0.1920 -0.0942
13466TIP3    H261814   2.935   2.646   0.405  0.2573  0.4269  0.6917
13467TIP3   OH261815   1.031   3.845   6.394 -0.1166 -0.1005 -0.1323
13467TIP3    H161816   1.043   3.800   6.311 -0.5384  1.1793 -0.9047
13467TIP3    H261817   1.120   3.867   6.423  0.0281 -0.5045 -0.2768
13468TIP3   OH261818   0.196   4.127   4.671 -0.4120  0.4714 -0.1600
13468TIP3    H161819   0.178   4.200   4.612 -2.7576  0.9387  1.0729
13468TIP3    H261820   0.272   4.155   4.722 -1.4954  2.2233  0.5266
13469TIP3   OH261821   2.159   0.229  15.138  0.0803  0.1368 -0.0199
13469TIP3    H161822   2.235   0.199  15.187 -0.3545 -0.3245  0.3875
13469TIP3    H261823   2.115   0.149  15.110 -1.5906  0.3479  1.8542
13470TIP3   OH261824   1.292   5.357   4.168  0.0520  0.8877 -0.1740
13470TIP3    H161825   1.228   5.386   4.234  1.1409 -0.9038  1.7271
13470TIP3    H261826   1.252   5.279   4.129  0.2319  0.8806 -0.3453
13471TIP3   OH261827   2.600   4.569  13.497 -0.7986  0.3119 -0.0743
13471TIP3    H161828   2.517   4.559  13.450  0.9374  0.0925 -3.1934
13471TIP3    H261829   2.632   4.656  13.471  0.4078  0.0125  0.3733
13472TIP3   OH261830   5.167   0.779  15.256 -0.2900 -0.5181  0.1962
13472TIP3    H161831   5.142   0.697  15.213  0.7884  0.2225 -1.9509
13472TIP3    H261832   5.244   0.808  15.207 -0.6057  1.7338  1.0023
13473TIP3   OH261833   1.580   0.390  15.984  0.2743  0.1053  0.3406
13473TIP3    H161834   1.616   0.477  16.001  1.4544 -0.4060  0.5063
13473TIP3    H261835   1.485   0.402  15.991  0.3734  1.5656 -0.5601
13474TIP3   OH261836   3.529   3.177  16.813  0.8836 -0.3948 -0.4250
13474TIP3    H161837   3.594   3.244  16.833 -0.7577  1.1185 -0.0457
13474TIP3    H261838   3.445   3.220  16.827 -0.2300 -1.8687 -2.3443
13475TIP3   OH261839   5.004   4.290   6.190 -0.1515 -0.0239 -0.0324
13475TIP3    H161840   5.095   4.317   6.200  0.2385 -1.4060  0.2926
13475TIP3    H261841   4.954   4.371   6.199  1.0734  0.8680 -0.9124
13476TIP3   OH261842   2.074   6.314  11.927 -0.5117 -0.1774  0.5199
13476TIP3    H161843   2.078   6.402  11.965 -0.3826  0.0870 -0.0915
13476TIP3    H261844   2.083   6.255  12.001  0.4902  0.3301  0.8062
13477TIP3   OH261845   3.198   3.790   3.092 -0.0278  0.1724  0.5320
13477TIP3    H161846   3.144   3.859   3.132 -0.8787 -1.0559  1.5483
13477TIP3    H261847   3.287   3.809   3.122 -0.3894  0.3316  1.5188
13478TIP3   OH261848   5.786   2.515   3.061 -0.1584 -0.2735 -0.5015
13478TIP3    H161849   5.824   2.597   3.032 -1.1669  0.5733  0.5347
13478TIP3    H261850   5.748   2.477   2.981  0.3809  0.2110 -0.9937
13479TIP3   OH261851   2.850   3.544  14.567  0.8026 -0.2721 -0.3201
13479TIP3    H161852   2.778   3.607  14.562  0.9714  0.0071  0.6295
13479TIP3    H261853   2.885   3.555  14.655  2.0706 -0.3550 -0.8052
13480TIP3   OH261854   2.946   3.508   0.399  0.0126 -0.2227  0.2092
13480TIP3    H161855   2.908   3.429   0.436  1.3621  0.0495  2.2345
13480TIP3    H261856   2.961   3.566   0.474  2.8533  0.3183 -0.6910
13481TIP3   OH261857   1.646   1.990   1.632  0.6201  0.0353 -0.3040
13481TIP3    H161858   1.629   1.903   1.668 -1.0261 -0.5570 -2.3818
13481TIP3    H261859   1.561   2.034   1.636  1.2342  1.2139 -0.1365
13482TIP3   OH261860   5.497   0.886   4.303 -0.1003 -0.4582 -0.6521
13482TIP3    H161861   5.421   0.927   4.262  0.3225  1.5223  0.4684
13482TIP3    H261862   5.564   0.886   4.235 -0.0789  0.8523 -0.6513
13483TIP3   OH261863   1.420   6.550   4.460 -0.3542 -0.2637 -0.4174
13483TIP3    H161864   1.328   6.565   4.480 -0.4591 -0.2106 -0.9122
13483TIP3    H261865   1.465   6.627   4.495 -0.6263  0.1922 -1.0489
13484TIP3   OH261866   3.843   1.705   1.439  0.3255  0.7404  0.7462
13484TIP3    H161867   3.759   1.680   1.479  0.1820  2.0747  1.2795
13484TIP3    H261868   3.819   1.749   1.357  0.5654 -0.3065  0.1012
13485TIP3   OH261869   0.624   5.921   2.465 -0.9803 -0.7602 -0.3443
13485TIP3    H161870   0.590   5.872   2.540 -1.1880 -0.8568 -0.4995
13485TIP3    H261871   0.692   5.864   2.428  0.4988  0.1208  0.9196
13486TIP3   OH261872   4.657   0.214   0.516 -0.0635 -0.6468  0.1885
13486TIP3    H161873   4.665   0.199   0.422  0.1576 -1.2822  0.3100
13486TIP3    H261874   4.568   0.247   0.527  1.3438  3.9443 -0.8397
13487TIP3   OH261875   1.825   5.551  10.497 -0.6863 -0.1596 -0.4610
13487TIP3    H161876   1.730   5.555  10.507 -0.7126 -0.7580 -0.4934
13487TIP3    H261877   1.853   5.642  10.504 -0.9285 -0.2988  2.8721
13488TIP3   OH261878   3.689   5.692  16.813  0.5556 -0.1165  0.0539
13488TIP3    H161879   3.768   5.638  16.806  0.9073  0.2215  1.3071
13488TIP3    H261880   3.671   5.720  16.723  2.3064  0.4247 -0.1395
13489TIP3   OH261881   5.123   3.394   1.090  0.0953 -0.5873 -0.3143
13489TIP3    H161882   5.055   3.341   1.133 -0.1960  0.2698  0.2934
13489TIP3    H261883   5.141   3.348   1.009 -0.2656 -1.5464  0.1388
13490TIP3   OH261884   5.333   6.114   6.018  0.9155 -0.1395  0.0739
13490TIP3    H161885   5.421   6.149   6.006  2.6188 -3.4900  1.8979
13490TIP3    H261886   5.339   6.023   5.987 -2.0389 -0.2716 -0.2359
13491TIP3   OH261887   4.080   5.072   2.820 -0.0118  0.4376  0.5421
13491TIP3    H161888   3.988   5.049   2.807  0.0575  1.6949 -2.5036
13491TIP3    H261889   4.123   4.988   2.834 -0.8429 -0.7317 -3.3280
13492TIP3   OH261890   0.487   2.204  10.721  0.0841  0.9229 -0.0214
13492TIP3    H161891   0.544   2.279  10.734  1.2465 -0.0170  0.3805
13492TIP3    H261892   0.541   2.141  10.673 -0.9427  0.4174 -0.5353
13493TIP3   OH261893   6.338   2.878  12.148 -0.4801 -0.1513 -0.6982
13493TIP3    H161894   6.302   2.957  12.108 -0.2826  0.4450  0.2695
13493TIP3    H261895   6.293   2.806  12.105  0.0056  0.4590 -2.2609
13494TIP3   OH261896   6.030   1.958  16.605 -0.0507 -0.1650  0.3095
13494TIP3    H161897   6.078   1.970  16.523  0.4480 -0.3967  0.5708
13494TIP3    H261898   6.097   1.950  16.672 -0.4507  2.9115  1.1733
13495TIP3   OH261899   0.742   2.678  13.639  0.5732  0.3545  0.1199
13495TIP3    H161900   0.661   2.661  13.592  0.1152 -0.1906  1.0900
13495TIP3    H261901   0.789   2.741  13.584 -0.8159  1.2038 -0.1061
13496TIP3   OH261902   4.847   2.709  14.538 -0.1902  0.2043  0.1844
13496TIP3    H161903   4.778   2.682  14.477  0.0929 -0.8381  0.3149
13496TIP3    H261904   4.804   2.773  14.596 -0.9364 -0.1148 -0.0064
13497TIP3   OH261905   6.417   3.029   0.642  0.1514  0.0984  0.1154
13497TIP3    H161906   6.404   2.942   0.680  0.1609 -0.1561 -0.4517
13497TIP3    H261907   6.328   3.064   0.633  0.1314  0.0494  0.1220
13498TIP3   OH261908   6.730   4.906  14.016 -0.1012 -0.3086 -0.2756
13498TIP3    H161909   6.724   4.846  14.090 -1.2148 -0.1879 -0.2598
13498TIP3    H261910   6.642   4.941  14.007  0.2299  0.3015 -1.1387
13499TIP3   OH261911   2.393   6.058  14.861  0.4594  0.4035  0.4161
13499TIP3    H161912   2.335   5.990  14.895  0.3900  1.4014  2.3110
13499TIP3    H261913   2.434   6.096  14.938  1.0884  1.9999 -0.6803
13500TIP3   OH261914   3.044   1.178   0.507  0.3299 -0.0546  0.2175
13500TIP3    H161915   3.104   1.239   0.549  1.9888 -1.1930 -0.4370
13500TIP3    H261916   3.071   1.092   0.540 -0.2594 -0.6641 -0.8797
13501TIP3   OH261917   6.177   2.701  16.532  0.3232 -0.0958  0.6208
13501TIP3    H161918   6.154   2.793  16.520  1.4383  0.3197  1.6185
13501TIP3    H261919   6.253   2.687  16.475 -1.2969 -1.0253 -1.3520
13502TIP3   OH261920   2.657   0.422   4.329  0.5178  0.5803  0.3648
13502TIP3    H161921   2.649   0.339   4.281  1.3693  1.4193 -1.2713
13502TIP3    H261922   2.741   0.415   4.374 -0.6775 -0.5656  2.4844
13503TIP3   OH261923   1.857   0.905  15.467  0.5950 -0.5930 -0.1272
13503TIP3    H161924   1.788   0.857  15.422  0.4713 -0.7286  0.2070
13503TIP3    H261925   1.837   0.997  15.449  1.0457 -0.6842 -1.0728
13504TIP3   OH261926   2.099   0.757   1.474  0.1324  0.2314  0.5349
13504TIP3    H161927   2.058   0.716   1.550  2.2083 -0.4310  1.3172
13504TIP3    H261928   2.114   0.685   1.413  1.4117  0.2440  0.8322
13505TIP3   OH261929   3.235   0.167  16.171 -0.7466 -0.0409 -0.3762
13505TIP3    H161930   3.288   0.205  16.241  0.2609  2.5111 -2.4320
13505TIP3    H261931   3.293   0.104  16.128 -0.3720  0.5054 -0.6853
13506TIP3   OH261932   5.182   1.673   4.535 -0.2056 -0.3850  0.4230
13506TIP3    H161933   5.175   1.709   4.623 -0.6533 -0.3822  0.3882
13506TIP3    H261934   5.201   1.580   4.548 -0.5180 -0.4337  0.5235
13507TIP3   OH261935   0.051   1.376  15.954 -0.3536  0.0360 -0.4925
13507TIP3    H161936   0.046   1.312  15.883  1.3445  0.8971 -1.4275
13507TIP3    H261937   0.001   1.451  15.922  0.2912  0.3686 -0.7342
13508TIP3   OH261938   0.599   4.137   3.400 -0.0177 -0.1285 -0.0033
13508TIP3    H161939   0.677   4.089   3.430  1.0084  0.9836 -0.8261
13508TIP3    H261940   0.623   4.229   3.411 -1.7302  0.2094  0.9782
13509TIP3   OH261941   1.568   3.064   3.565  0.1727  0.4366  0.5499
13509TIP3    H161942   1.552   3.149   3.525  1.1348  0.4473  0.1767
13509TIP3    H261943   1.651   3.075   3.612  0.5063 -0.4134  0.1650
13510TIP3   OH261944   4.162   2.932   3.501  0.0045  0.1140  0.0417
13510TIP3    H161945   4.129   2.880   3.428  0.2780  0.7704 -0.5589
13510TIP3    H261946   4.256   2.912   3.505  0.0700  0.3941 -0.0553
13511TIP3   OH261947   6.207   5.039  15.237  0.7253 -0.4671 -0.1416
13511TIP3    H161948   6.115   5.026  15.258  0.7003  1.7020  1.3785
13511TIP3    H261949   6.218   5.006  15.148 -1.4347 -1.0650 -0.1920
13512TIP3   OH261950   3.850   1.756   3.013 -0.2534  0.4867 -0.0747
13512TIP3    H161951   3.830   1.774   2.921  1.6640 -0.8312 -0.8004
13512TIP3    H261952   3.765   1.750   3.056 -1.2727 -1.0113 -2.1992
13513TIP3   OH261953   5.559   1.613  13.279 -0.0165  0.2636  0.0818
13513TIP3    H161954   5.591   1.673  13.211 -2.8330  1.5452 -0.1720
13513TIP3    H261955   5.532   1.671  13.350  2.5600 -1.0543  2.2174
13514TIP3   OH261956   5.810   4.854   2.603  0.0116  0.4273 -0.3003
13514TIP3    H161957   5.759   4.843   2.683 -1.6949 -0.0556 -1.4311
13514TIP3    H261958   5.861   4.773   2.595 -0.9185 -0.1547 -0.4514
13515TIP3   OH261959   3.448   3.021   2.814 -0.0016 -0.9440  0.1843
13515TIP3    H161960   3.512   3.025   2.885  0.5029 -0.5132 -0.2972
13515TIP3    H261961   3.500   3.015   2.735 -0.5706 -2.3510 -0.0972
13516TIP3   OH261962   3.627   6.478  11.370  0.7484 -0.5119  0.4622
13516TIP3    H161963   3.695   6.420  11.405  0.0499 -1.3385  0.4527
13516TIP3    H261964   3.577   6.424  11.310 -0.0651  0.0382  0.6356
13517TIP3   OH261965   2.858   5.062   5.373  0.7801  0.0766 -0.0635
13517TIP3    H161966   2.943   5.106   5.365  0.9243  0.4163  2.8935
13517TIP3    H261967   2.880   4.970   5.388  0.5291 -0.3439 -2.0310
13518TIP3   OH261968   1.849   1.386  15.882  0.1435 -0.0264 -0.2205
13518TIP3    H161969   1.927   1.370  15.935 -1.4348 -0.5458  2.0140
13518TIP3    H261970   1.861   1.331  15.805  1.0901 -1.6313  1.0364
13519TIP3   OH261971   5.509   0.709  15.546  0.2191 -0.3371  0.1128
13519TIP3    H161972   5.547   0.764  15.478 -2.7375  1.0628 -0.4904
13519TIP3    H261973   5.421   0.689  15.514  0.0227 -2.5684  1.9242
13520TIP3   OH261974   2.511   2.871   3.693  0.0569  0.3752  0.3034
13520TIP3    H161975   2.552   2.850   3.777 -1.6293 -1.3332  0.7195
13520TIP3    H261976   2.425   2.829   3.696  0.4821 -0.8976 -2.8287
13521TIP3   OH261977   5.765   0.225  13.848  0.1953  0.0854  0.3562
13521TIP3    H161978   5.800   0.250  13.763 -1.5177  1.2808 -0.0078
13521TIP3    H261979   5.790   0.296  13.907 -0.4048  0.2490  0.4086
13522TIP3   OH261980   5.582   4.082   3.187  0.2750 -0.0552 -0.8548
13522TIP3    H161981   5.589   4.039   3.272 -2.8010  1.5815  0.3200
13522TIP3    H261982   5.630   4.164   3.197 -0.2212  0.2111 -0.6066
13523TIP3   OH261983   2.668   0.484   6.019 -0.1032  0.0242  0.0571
13523TIP3    H161984   2.604   0.480   6.090 -0.7344 -0.4172 -0.5380
13523TIP3    H261985   2.739   0.426   6.048 -0.2882 -0.0359  0.3899
13524TIP3   OH261986   5.386   3.758  12.706 -0.5256 -0.3137 -0.1953
13524TIP3    H161987   5.292   3.769  12.719 -0.1617  3.4150 -0.2827
13524TIP3    H261988   5.395   3.727  12.616 -1.6109  0.8602 -0.7145
13525TIP3   OH261989   3.558   0.330   3.126  0.1130 -0.0654  0.1552
13525TIP3    H161990   3.489   0.265   3.133 -0.3622  0.4682  0.4434
13525TIP3    H261991   3.513   0.414   3.132  0.7480  0.2893  0.0133
13526TIP3   OH261992   5.459   0.464  17.058 -0.4102  0.4001 -0.2697
13526TIP3    H161993   5.377   0.447  17.012  0.2628  0.5901 -1.5526
13526TIP3    H261994   5.441   0.437  17.149 -1.0900 -2.0228 -1.0739
13527TIP3   OH261995   6.492   2.173  12.037 -0.1412 -0.4387  0.2599
13527TIP3    H161996   6.538   2.257  12.041 -1.4381  0.2371  1.3849
13527TIP3    H261997   6.545   2.114  12.090 -0.4513  0.2822  1.3849
13528TIP3   OH261998   4.651   1.541   6.397  0.0255  0.0767  0.4541
13528TIP3    H161999   4.570   1.569   6.355  0.0237 -0.0140  0.3951
13528TIP3    H262000   4.683   1.619   6.442  0.4214  0.3891 -0.3524
13529TIP3   OH262001   6.176   0.312  17.157  0.0525  0.1009  0.5120
13529TIP3    H162002   6.141   0.228  17.128  1.2498 -0.2744  0.1301
13529TIP3    H262003   6.268   0.295  17.175  0.2418  1.2675  0.7105
13530TIP3   OH262004   3.851   5.737  12.558 -0.0180 -0.6514  0.0543
13530TIP3    H162005   3.876   5.673  12.624  2.4853  0.0428 -0.1809
13530TIP3    H262006   3.887   5.703  12.476 -1.2420 -0.4277 -0.5944
13531TIP3   OH262007   3.274   6.255   2.079  0.7545 -0.4351  0.1563
13531TIP3    H162008   3.256   6.308   2.002  1.1185  0.5483  0.7381
13531TIP3    H262009   3.299   6.318   2.147 -0.3121 -1.2124  1.3055
13532TIP3   OH262010   1.298   5.727   5.824  0.6367 -0.1762  0.1378
13532TIP3    H162011   1.353   5.680   5.886 -0.7887 -0.1549  1.4417
13532TIP3    H262012   1.251   5.659   5.776  2.2543 -0.2218 -1.4534
13533TIP3   OH262013   4.526   5.987  14.587  0.8867 -0.1886 -0.4193
13533TIP3    H162014   4.456   5.934  14.550  2.4168 -1.1114 -2.0614
13533TIP3    H262015   4.595   5.924  14.608  1.6756  0.8441  0.1197
13534TIP3   OH262016   2.153   1.072   2.397  0.2622 -0.1019  0.6253
13534TIP3    H162017   2.191   0.989   2.370 -0.0743 -0.3558  0.9121
13534TIP3    H262018   2.210   1.103   2.467  1.1587  0.5775 -0.3889
13535TIP3   OH262019   3.305   1.536   4.372  0.1813 -0.1107  0.5147
13535TIP3    H162020   3.222   1.584   4.361  0.1261 -0.4045 -0.3323
13535TIP3    H262021   3.343   1.573   4.451 -0.5112  0.3977  0.6159
13536TIP3   OH262022   6.591   6.392   1.746 -0.0470  0.1048  0.2437
13536TIP3    H162023   6.629   6.311   1.778  2.2661  1.6455  1.5704
13536TIP3    H262024   6.543   6.367   1.667  3.3172 -2.0160 -1.2007
13537TIP3   OH262025   2.641   1.462   0.940 -0.1222  0.0838  0.2051
13537TIP3    H162026   2.651   1.489   1.031 -0.5169 -0.2359  0.3436
13537TIP3    H262027   2.563   1.406   0.940  0.6891 -1.0719 -0.0765
13538TIP3   OH262028   0.141   6.722  12.613 -0.3305 -0.1171  0.7269
13538TIP3    H162029   0.075   6.745  12.548  0.4119  1.0217  0.3700
13538TIP3    H262030   0.182   6.805  12.637  1.0051 -0.8193  0.9114
13539TIP3   OH262031   4.778   2.922  12.554 -0.3033 -0.1901  0.2347
13539TIP3    H162032   4.828   2.953  12.630  0.3734  0.7006 -0.5624
13539TIP3    H262033   4.750   3.002  12.509  0.5821 -0.7278 -1.2902
13540TIP3   OH262034   2.535   0.630  12.799 -0.2222 -0.2395 -1.0758
13540TIP3    H162035   2.596   0.676  12.741  0.4955 -1.1874 -1.0967
13540TIP3    H262036   2.568   0.645  12.887 -1.8741  2.0251 -0.7964
13541TIP3   OH262037   1.196   1.813   0.560 -0.5280 -0.0785  0.2816
13541TIP3    H162038   1.114   1.775   0.530  0.2921 -1.0199 -0.8387
13541TIP3    H262039   1.242   1.740   0.603 -0.6921  0.6822  1.7813
13542TIP3   OH262040   2.263   2.349  15.958  0.2778  0.4547 -0.4328
13542TIP3    H162041   2.261   2.301  16.041  0.2113  1.0963 -0.0672
13542TIP3    H262042   2.170   2.358  15.934  0.2985  0.2411 -0.5937
13543TIP3   OH262043   1.133   5.451  16.882  0.2936  0.3140  0.2002
13543TIP3    H162044   1.214   5.404  16.904  1.0232  1.2379 -0.4973
13543TIP3    H262045   1.077   5.438  16.959  1.5758  0.7185  1.2398
13544TIP3   OH262046   6.613   6.346  15.516 -0.5339 -0.6098 -0.1951
13544TIP3    H162047   6.539   6.340  15.456 -0.4809 -1.6643 -0.1692
13544TIP3    H262048   6.594   6.421  15.572 -2.1336 -1.5484  0.5427
13545TIP3   OH262049   2.204   2.654  14.196  0.3701  0.1768  0.0119
13545TIP3    H162050   2.189   2.573  14.147  1.0217 -0.3891  0.7177
13545TIP3    H262051   2.255   2.709  14.137 -0.2052  0.1324 -0.5300
13546TIP3   OH262052   1.272   5.104   0.588 -0.3287 -0.8798  0.1094
13546TIP3    H162053   1.233   5.192   0.588 -0.1377 -0.7834  0.8491
13546TIP3    H262054   1.366   5.121   0.592 -0.2823 -1.1196  0.0136
13547TIP3   OH262055   0.467   6.754   4.663 -0.3440 -0.9252 -0.4383
13547TIP3    H162056   0.452   6.820   4.596  0.7294  0.3841  0.5810
13547TIP3    H262057   0.555   6.721   4.645 -0.7267 -1.8304 -0.7094
13548TIP3   OH262058   3.176   1.129  17.018 -0.1074  0.1309  0.1901
13548TIP3    H162059   3.252   1.130  16.960 -0.0097  1.8131  0.3320
13548TIP3    H262060   3.194   1.197  17.083 -0.8846 -0.7351  1.3282
13549TIP3   OH262061   0.676   0.899  14.923 -0.4466  0.2431 -0.2757
13549TIP3    H162062   0.747   0.843  14.892  0.8698  1.3910  0.6180
13549TIP3    H262063   0.678   0.890  15.019 -0.8033  1.1304 -0.1768
13550TIP3   OH262064   3.866   1.766   3.357 -0.2246  0.0720 -0.3800
13550TIP3    H162065   3.832   1.681   3.331 -0.9171  0.1102  0.3970
13550TIP3    H262066   3.878   1.760   3.452 -1.4978  1.2595 -0.1213
13551TIP3   OH262067   6.574   4.549  16.938  0.5580 -0.2326 -0.2489
13551TIP3    H162068   6.651   4.568  16.993  0.0375  0.7068  0.1700
13551TIP3    H262069   6.610   4.526  16.853  1.3006  0.4981 -0.1394
13552TIP3   OH262070   2.314   4.105  16.110  0.2590 -0.6452  0.2632
13552TIP3    H162071   2.322   4.047  16.185 -1.9837  0.0870  1.0952
13552TIP3    H262072   2.299   4.046  16.036  0.2970 -1.2454  0.7349
13553TIP3   OH262073   3.659   5.888   1.612 -0.4442  0.1972  0.1252
13553TIP3    H162074   3.674   5.864   1.521  1.5243  1.3825  0.1029
13553TIP3    H262075   3.704   5.820   1.663  1.7903  1.6077  0.1172
13554TIP3   OH262076   5.375   0.024  13.207 -0.0652 -0.0774  0.3767
13554TIP3    H162077   5.327  -0.051  13.242  0.6467 -0.9366 -0.4500
13554TIP3    H262078   5.340   0.099  13.255 -1.8011 -0.7494  0.2325
13555TIP3   OH262079   5.330   3.879   4.854 -0.1811 -0.4434  0.0260
13555TIP3    H162080   5.248   3.928   4.855 -1.6683 -2.8454  2.8755
13555TIP3    H262081   5.369   3.897   4.940  2.1217  0.3685 -1.1514
13556TIP3   OH262082   0.841   1.023   2.990 -1.0940 -0.2450 -0.1258
13556TIP3    H162083   0.749   1.024   3.017 -0.9273 -0.4731  0.4607
13556TIP3    H262084   0.888   1.062   3.064 -0.7246 -0.1068 -0.4350
13557TIP3   OH262085   2.454   6.493  14.139 -0.8928  0.0312 -0.2005
13557TIP3    H162086   2.367   6.481  14.100 -0.7660 -0.7653 -0.2438
13557TIP3    H262087   2.458   6.587  14.160 -1.5518  0.1741 -0.6911
13558TIP3   OH262088   3.556   6.502   2.011 -0.2322 -0.5294  0.3032
13558TIP3    H162089   3.590   6.479   1.925  0.5122 -0.6111  0.6131
13558TIP3    H262090   3.464   6.480   2.007 -0.2313 -0.4105 -0.5184
13559TIP3   OH262091   0.225   4.012   1.433  0.0931  0.5030 -0.1580
13559TIP3    H162092   0.310   3.987   1.469  0.7392 -0.1603 -2.0990
13559TIP3    H262093   0.226   4.108   1.437  0.8983  0.5020 -0.1093
13560TIP3   OH262094   5.893   2.819   3.293 -0.1120  0.0719  0.1300
13560TIP3    H162095   5.882   2.878   3.368 -1.8373 -0.8540  0.6341
13560TIP3    H262096   5.819   2.758   3.299  1.1155 -1.5736 -0.9063
13561TIP3   OH262097   3.681   6.050   2.041 -0.1307 -0.3680  0.8582
13561TIP3    H162098   3.632   6.094   2.110  1.0298  1.5317  0.5061
13561TIP3    H262099   3.614   6.016   1.981 -1.0620  1.6856  0.6823
13562TIP3   OH262100   2.175   5.113  12.153 -0.1399 -0.3117  0.1631
13562TIP3    H162101   2.155   5.074  12.068 -1.2045 -0.8180  0.6396
13562TIP3    H262102   2.177   5.039  12.214 -0.7485  0.2154  0.8236
13563TIP3   OH262103   5.667   3.894  15.458  0.7994 -0.0575 -0.4826
13563TIP3    H162104   5.613   3.946  15.517 -0.8127 -1.5646 -0.5583
13563TIP3    H262105   5.604   3.841  15.409  2.2667 -0.7251 -1.7004
13564TIP3   OH262106   6.434   2.167   5.382 -0.2544  0.7359  0.5166
13564TIP3    H162107   6.463   2.215   5.460 -1.4700 -2.1438  2.8670
13564TIP3    H262108   6.489   2.089   5.380 -1.3095 -0.0051 -0.5765
13565TIP3   OH262109   4.569   2.524  13.572  0.6740  0.3317  0.4263
13565TIP3    H162110   4.479   2.501  13.596  0.4750  0.7050  0.0525
13565TIP3    H262111   4.592   2.594  13.633  1.1867 -0.6715  1.3909
13566TIP3   OH262112   6.110   5.579   0.700 -0.2327 -0.1478 -0.6114
13566TIP3    H162113   6.035   5.521   0.693 -0.7220  0.2793  0.9535
13566TIP3    H262114   6.160   5.544   0.774  0.5811  0.1755 -1.0016
13567TIP3   OH262115   0.421   3.654   6.614 -0.1288  0.2587 -0.5745
13567TIP3    H162116   0.464   3.607   6.685  0.1650  1.2383 -0.0913
13567TIP3    H262117   0.470   3.629   6.535  1.3148  1.3017 -0.0442
13568TIP3   OH262118   6.007   2.095  14.703  0.2619 -0.4709 -0.6153
13568TIP3    H162119   5.936   2.041  14.738 -0.0288 -0.1962 -0.7753
13568TIP3    H262120   5.966   2.181  14.688  1.4752  0.7415  2.6543
13569TIP3   OH262121   2.267   1.077  11.224 -0.0726 -0.1668 -0.0759
13569TIP3    H162122   2.318   1.068  11.143  1.0166 -0.3409  0.6227
13569TIP3    H262123   2.324   1.043  11.293 -0.2295  1.7533  1.0451
13570TIP3   OH262124   6.476   0.308   2.867  0.3245 -0.1458  0.0566
13570TIP3    H162125   6.570   0.317   2.847  0.7518 -2.6322  0.8283
13570TIP3    H262126   6.472   0.242   2.936 -1.8413  1.6575  1.7641
13571TIP3   OH262127   2.014   4.023  16.390 -0.2917  0.1892  0.2051
13571TIP3    H162128   2.000   4.110  16.353 -1.8698 -0.0017  0.3549
13571TIP3    H262129   2.011   3.964  16.315 -2.8835 -0.1297  0.5267
13572TIP3   OH262130   4.562   3.118  14.090 -0.2600 -0.2274  0.0180
13572TIP3    H162131   4.506   3.041  14.095  1.1400 -1.3258 -0.9868
13572TIP3    H262132   4.568   3.137  13.996  0.4515  0.3357  0.1710
13573TIP3   OH262133   2.756   1.207   0.483  0.2498  0.1611 -0.1549
13573TIP3    H162134   2.715   1.128   0.447 -0.8927  1.7659 -2.5004
13573TIP3    H262135   2.846   1.204   0.451  0.5460 -0.7728  0.7435
13574TIP3   OH262136   0.113   5.851  13.372  0.3668 -0.5118 -0.1054
13574TIP3    H162137   0.191   5.875  13.322  0.2533 -0.0083 -0.0368
13574TIP3    H262138   0.146   5.791  13.440  0.7351 -0.0828  0.0984
13575TIP3   OH262139   2.715   0.911  15.362  0.0461  0.2225 -0.1287
13575TIP3    H162140   2.731   0.833  15.414  1.5927  1.4337  1.2313
13575TIP3    H262141   2.647   0.958  15.410  1.3187  1.2321  0.7107
13576TIP3   OH262142   6.747   4.102  12.212 -0.3411  0.5828  0.2532
13576TIP3    H162143   6.666   4.066  12.176  2.1007 -1.4344 -3.6140
13576TIP3    H262144   6.780   4.033  12.270 -0.5348  0.6622  0.4572
13577TIP3   OH262145   6.675   5.131  13.827  0.1391  0.3712  0.0751
13577TIP3    H162146   6.734   5.140  13.752  0.2009 -1.0343 -0.0697
13577TIP3    H262147   6.667   5.036  13.840 -1.2548  0.5577  0.7517
13578TIP3   OH262148   1.017   5.971   4.170  0.1067 -0.3149  0.2021
13578TIP3    H162149   1.094   6.009   4.213 -0.1466 -1.2089  1.4773
13578TIP3    H262150   0.969   5.929   4.241 -1.4321  0.0105 -0.6317
13579TIP3   OH262151   6.093   1.980   3.413  0.2622 -0.3298  0.3294
13579TIP3    H162152   6.122   2.054   3.359 -0.5317  0.6918  1.2907
13579TIP3    H262153   6.097   2.012   3.503 -0.4391 -1.3395  0.7333
13580TIP3   OH262154   4.551   0.889  14.400 -0.4990 -0.9425 -0.1651
13580TIP3    H162155   4.510   0.809  14.435  0.5520 -0.7083  1.6724
13580TIP3    H262156   4.546   0.952  14.472  0.6614 -0.0515 -0.8547
13581TIP3   OH262157   4.168   6.000   0.380  0.1159 -0.0107  0.3399
13581TIP3    H162158   4.081   6.021   0.413 -0.4762 -2.4844  0.5078
13581TIP3    H262159   4.158   6.000   0.284  0.0395  0.1171  0.3482
13582TIP3   OH262160   0.442   5.328  11.199  0.1279  0.5600  0.5376
13582TIP3    H162161   0.510   5.260  11.204  0.6025  1.0819  1.2916
13582TIP3    H262162   0.404   5.317  11.112  0.9842  0.0748  0.2155
13583TIP3   OH262163   5.592   1.072  12.974  0.1832 -0.0909 -0.1004
13583TIP3    H162164   5.640   1.114  12.903 -0.3516  1.3791  0.4037
13583TIP3    H262165   5.625   1.113  13.053 -3.5433  2.6917  0.1474
13584TIP3   OH262166   2.265   2.785   2.341 -0.0735 -0.6733  0.4211
13584TIP3    H162167   2.264   2.879   2.321  0.0995 -0.6192  0.6671
13584TIP3    H262168   2.321   2.777   2.419 -0.6174 -0.8995  0.7929
13585TIP3   OH262169   4.619   4.416  13.486 -0.6203  0.2758  0.2297
13585TIP3    H162170   4.682   4.468  13.536 -1.7946 -0.4230  2.4976
13585TIP3    H262171   4.613   4.334  13.534 -2.9614  0.1931 -0.1682
13586TIP3   OH262172   4.463   5.518  12.897 -0.0153 -0.4360  0.1117
13586TIP3    H162173   4.442   5.426  12.915  0.4723 -0.3500  1.1154
13586TIP3    H262174   4.490   5.554  12.981  1.6576  0.1370 -0.6462
13587TIP3   OH262175   1.540   5.371  16.163  0.5948 -0.2370 -0.0384
13587TIP3    H162176   1.530   5.466  16.169  1.0389 -0.1657 -0.3751
13587TIP3    H262177   1.451   5.337  16.162  0.3966 -0.0567  3.4751
13588TIP3   OH262178   2.847   0.009   1.063 -0.4473  0.6217  0.1195
13588TIP3    H162179   2.769  -0.040   1.090 -0.9578  0.6016 -1.3178
13588TIP3    H262180   2.815   0.097   1.047 -0.0435  0.7712  0.1501
13589TIP3   OH262181   4.986   0.066  16.609  0.1579  0.1113  0.8838
13589TIP3    H162182   4.969   0.109  16.525 -0.3435  0.1954  1.0264
13589TIP3    H262183   4.907   0.082  16.661  0.5788  0.3056  1.4771
13590TIP3   OH262184   3.545   2.412  12.539 -0.1496 -0.0189  0.0614
13590TIP3    H162185   3.542   2.325  12.500  0.5567 -0.1855  0.3768
13590TIP3    H262186   3.629   2.415  12.586 -0.5279  0.5412  0.7171
13591TIP3   OH262187   4.552   3.703  12.541 -0.5238 -0.7033  0.5907
13591TIP3    H162188   4.473   3.717  12.592 -2.7316 -1.1571 -2.5861
13591TIP3    H262189   4.580   3.791  12.515 -1.6715 -0.7208 -0.7289
13592TIP3   OH262190   2.176   6.776   1.330 -0.1804  0.4921  0.4252
13592TIP3    H162191   2.185   6.696   1.381 -2.1420  0.4483  0.7291
13592TIP3    H262192   2.094   6.766   1.282  0.5232  1.4769 -1.0683
13593TIP3   OH262193   5.265   4.730  14.776 -0.0977 -0.3354 -0.0455
13593TIP3    H162194   5.355   4.746  14.749 -0.3126  1.5491  0.3108
13593TIP3    H262195   5.266   4.641  14.812  1.5925 -0.3695 -0.1523
13594TIP3   OH262196   4.536   2.003   5.820  0.0978  0.3417  0.4715
13594TIP3    H162197   4.486   1.968   5.746 -0.8927  2.7195 -0.0472
13594TIP3    H262198   4.602   1.937   5.839 -0.0465 -0.5837 -2.1374
13595TIP3   OH262199   4.467   0.371  11.417  0.3940  0.1258  0.3482
13595TIP3    H162200   4.397   0.420  11.373  1.2257  0.9169 -0.1223
13595TIP3    H262201   4.517   0.333  11.345  1.6353  1.2430  0.5955
13596TIP3   OH262202   6.020   3.112  15.878 -0.2842 -0.1632 -0.5549
13596TIP3    H162203   6.093   3.170  15.901  0.0117 -0.8841  0.3474
13596TIP3    H262204   6.034   3.092  15.786  1.0516 -0.8396 -0.2195
13597TIP3   OH262205   2.620   0.374  13.787  0.3347 -0.1661 -0.8151
13597TIP3    H162206   2.683   0.345  13.852 -0.8206 -0.8893  0.0102
13597TIP3    H262207   2.668   0.372  13.704  0.7162 -3.0945 -0.5759
13598TIP3   OH262208   1.557   3.158   4.913 -0.0844  0.4847  0.0455
13598TIP3    H162209   1.515   3.082   4.953  0.6576 -0.1949 -0.4370
13598TIP3    H262210   1.533   3.231   4.969  0.9459 -0.4409  1.7286
13599TIP3   OH262211   6.768   3.347   1.164  0.2363  0.3822 -0.6931
13599TIP3    H162212   6.747   3.259   1.193 -0.2705  0.3242 -1.2171
13599TIP3    H262213   6.823   3.383   1.233  2.3711 -1.1517 -1.5347
13600TIP3   OH262214   0.067   3.582   2.103 -0.5150 -0.2322  0.6166
13600TIP3    H162215   0.022   3.592   2.187  0.9144  0.9168  1.2594
13600TIP3    H262216   0.118   3.502   2.113  0.1707  0.2577  1.0949
13601TIP3   OH262217   4.570   3.645   0.928  0.1580  0.4429 -0.1491
13601TIP3    H162218   4.652   3.615   0.888  0.8599 -1.7572  2.7611
13601TIP3    H262219   4.501   3.599   0.880  0.7881  0.1200 -0.7445
13602TIP3   OH262220   5.790   2.322   6.011  0.4202  0.2090 -0.2921
13602TIP3    H162221   5.843   2.392   5.972 -2.2914  2.2249 -0.5539
13602TIP3    H262222   5.708   2.325   5.962 -0.5848 -1.6890  1.2188
13603TIP3   OH262223   1.264   3.257   4.918 -0.5149  0.5815 -0.6227
13603TIP3    H162224   1.197   3.268   4.985 -1.1134  1.6654 -1.3862
13603TIP3    H262225   1.215   3.246   4.836  0.2005 -1.0548 -0.8523
13604TIP3   OH262226   2.615   5.356  11.824 -0.2210 -0.0121 -0.5390
13604TIP3    H162227   2.637   5.291  11.757  2.1587 -1.1126  1.2312
13604TIP3    H262228   2.534   5.323  11.863 -1.3017  0.3253 -2.4319
13605TIP3   OH262229   5.594   3.129  15.890  0.4453  0.2589 -0.3612
13605TIP3    H162230   5.535   3.056  15.869 -0.8963  1.0008  0.7209
13605TIP3    H262231   5.660   3.092  15.947  0.7961 -0.4974 -1.2499
13606TIP3   OH262232   4.575   4.407   0.947 -0.1316 -0.3306 -0.5077
13606TIP3    H162233   4.535   4.473   0.889 -1.3599 -0.0381  0.6461
13606TIP3    H262234   4.616   4.458   1.017 -4.2365 -0.7905  2.4252
13607TIP3   OH262235   0.623   1.160  13.328 -0.7836  0.0890  0.2994
13607TIP3    H162236   0.701   1.207  13.358 -1.3750  1.0345  0.3762
13607TIP3    H262237   0.657   1.082  13.284  0.2443  0.9989 -0.5449
13608TIP3   OH262238   0.291   2.122  16.115 -0.3666  0.8558 -0.1129
13608TIP3    H162239   0.247   2.204  16.140 -0.4532  0.3771  1.3599
13608TIP3    H262240   0.358   2.110  16.182  0.1959  0.1602 -0.8076
13609TIP3   OH262241   6.762   6.222  15.983 -0.4462 -0.1074  0.0103
13609TIP3    H162242   6.680   6.180  15.956  0.0497 -0.7380 -0.5425
13609TIP3    H262243   6.828   6.184  15.925  0.3432 -0.1084  0.8922
13610TIP3   OH262244   5.922   5.495   3.689 -0.2749 -0.0549  0.1281
13610TIP3    H162245   5.928   5.572   3.745  0.9191  0.2214 -0.3471
13610TIP3    H262246   5.969   5.427   3.736 -2.7163 -0.9626  1.2855
13611TIP3   OH262247   1.707   1.978   0.104 -0.0230  0.1396 -0.3661
13611TIP3    H162248   1.670   1.907   0.156 -0.5697  0.8766  0.2629
13611TIP3    H262249   1.801   1.974   0.121  0.1364 -1.3165 -1.4427
13612TIP3   OH262250   5.768   2.529  15.015 -0.3974  0.3193  0.1221
13612TIP3    H162251   5.700   2.587  14.980 -0.2168  1.5497  1.7828
13612TIP3    H262252   5.726   2.485  15.088  0.0028 -0.3835 -0.0701
13613TIP3   OH262253   0.429   6.068  11.951 -0.0516  0.0014 -0.8174
13613TIP3    H162254   0.501   6.039  12.008 -0.8509 -3.0451 -1.2442
13613TIP3    H262255   0.370   6.116  12.009  0.8507 -0.0773  0.1772
13614TIP3   OH262256   2.853   0.972   5.813  0.6112  0.2313 -0.2008
13614TIP3    H162257   2.783   0.923   5.770  0.6917 -1.6896  1.7860
13614TIP3    H262258   2.808   1.034   5.870  0.5134  2.3010 -2.4710
13615TIP3   OH262259   2.529   3.920   2.128  0.1251  0.0751 -0.2301
13615TIP3    H162260   2.532   3.888   2.038  0.7283 -1.4847  0.3247
13615TIP3    H262261   2.436   3.937   2.144 -0.0443 -0.1540 -0.9753
13616TIP3   OH262262   0.247   2.639   2.890 -0.0756  0.0137  0.5585
13616TIP3    H162263   0.281   2.714   2.841 -0.2879 -0.5869 -0.5190
13616TIP3    H262264   0.325   2.588   2.913 -0.1268 -0.7491 -0.9000
13617TIP3   OH262265   5.774   1.148  12.790 -0.5491  0.4432 -0.8801
13617TIP3    H162266   5.845   1.084  12.800 -3.4992 -2.5649  2.2204
13617TIP3    H262267   5.766   1.161  12.695  4.0355  0.8493 -1.2974
13618TIP3   OH262268   2.920   3.693  14.212 -0.1475 -0.1484  0.5142
13618TIP3    H162269   2.938   3.745  14.134  1.8459 -1.5943 -0.0359
13618TIP3    H262270   2.943   3.751  14.285  2.6093 -0.3605 -0.0987
13619TIP3   OH262271   1.021   6.258   2.740  0.1102  0.1152 -0.1678
13619TIP3    H162272   1.027   6.173   2.785 -0.7618 -0.8126 -1.7636
13619TIP3    H262273   1.109   6.272   2.705  0.1565 -0.3310 -0.2396
13620TIP3   OH262274   6.678   5.971   3.220  0.0717 -0.2851 -0.3534
13620TIP3    H162275   6.756   5.950   3.168  0.1890 -0.7025 -0.0094
13620TIP3    H262276   6.608   5.977   3.156  0.4484  0.4193 -0.7035
13621TIP3   OH262277   5.514   6.387  14.028 -0.1321  0.4616  0.7048
13621TIP3    H162278   5.448   6.322  14.054  0.3300  0.3796  1.7064
13621TIP3    H262279   5.497   6.402  13.935 -0.9922 -0.2254  0.7376
13622TIP3   OH262280   3.561   6.076   1.785 -0.2382  0.2330 -0.0940
13622TIP3    H162281   3.611   6.012   1.734  1.4500  0.5789  1.0959
13622TIP3    H262282   3.473   6.039   1.790 -0.1165 -0.4152 -2.1688
13623TIP3   OH262283   2.248   2.191  14.908  0.4075 -0.1067 -0.1063
13623TIP3    H162284   2.274   2.240  14.830 -0.8347 -0.8159 -0.9777
13623TIP3    H262285   2.201   2.255  14.962 -0.0275  0.0152 -0.6249
13624TIP3   OH262286   3.348   1.603   1.747  0.4115  0.9353  0.0725
13624TIP3    H162287   3.268   1.621   1.796  0.5365  1.0841  0.2213
13624TIP3    H262288   3.365   1.684   1.699 -0.2480  0.4705 -0.9743
13625TIP3   OH262289   1.519   6.418   0.358 -0.0145  0.2740 -0.3047
13625TIP3    H162290   1.568   6.461   0.288  0.8710 -1.2404 -0.6153
13625TIP3    H262291   1.428   6.446   0.343  0.2355  0.3644 -1.7535
13626TIP3   OH262292   3.178   4.448  15.408 -0.0572  0.3636  0.3454
13626TIP3    H162293   3.164   4.437  15.314  0.1202 -0.3090  0.3981
13626TIP3    H262294   3.238   4.377  15.432  1.4834  1.7238  0.5907
13627TIP3   OH262295   0.968   0.847  15.937  0.3986 -0.0602 -0.2708
13627TIP3    H162296   0.943   0.937  15.958  0.1756 -0.3431  0.7049
13627TIP3    H262297   1.025   0.821  16.009 -1.1909 -1.4047  0.5293
13628TIP3   OH262298   1.037   6.048  12.140 -0.1523 -0.2235 -0.1193
13628TIP3    H162299   1.023   5.968  12.189  0.1721 -1.1742 -1.5622
13628TIP3    H262300   1.118   6.032  12.091 -0.3325  0.8134 -0.7621
13629TIP3   OH262301   1.626   2.828   1.453 -0.8363  0.0626 -0.0802
13629TIP3    H162302   1.653   2.919   1.439 -0.0302 -0.6281 -3.4452
13629TIP3    H262303   1.707   2.783   1.477 -0.7639 -0.2232 -0.8535
13630TIP3   OH262304   3.914   6.580   4.652  0.2779  0.9620 -0.4198
13630TIP3    H162305   3.993   6.595   4.704  0.0584  0.7055 -0.0090
13630TIP3    H262306   3.921   6.488   4.625 -1.2152  0.1279  1.9005
13631TIP3   OH262307   3.616   0.045   1.579  0.4907  0.0613  0.3002
13631TIP3    H162308   3.562   0.073   1.653 -1.8542 -0.5671 -1.1248
13631TIP3    H262309   3.693   0.006   1.620 -0.8787 -0.5156  2.4313
13632TIP3   OH262310   1.631   5.365  13.781 -0.2242  0.7539 -0.3568
13632TIP3    H162311   1.609   5.433  13.844 -1.2459  0.7768 -0.7334
13632TIP3    H262312   1.704   5.318  13.822  0.3918  1.9700 -0.0300
13633TIP3   OH262313   0.480   4.347  11.423 -0.4655  0.0542 -0.3779
13633TIP3    H162314   0.434   4.268  11.454 -2.0854  0.9295 -0.5071
13633TIP3    H262315   0.527   4.379  11.500  0.2169 -1.0287 -0.3231
13634TIP3   OH262316   6.634   0.538  13.322  0.0070 -0.1241  0.0643
13634TIP3    H162317   6.581   0.559  13.245  0.8473 -1.4789 -0.9007
13634TIP3    H262318   6.599   0.455  13.354  0.8094 -0.4616  0.0828
13635TIP3   OH262319   5.456   0.101  14.908 -0.6748  0.4225 -0.2581
13635TIP3    H162320   5.496   0.179  14.946 -0.5077 -1.0725  2.7486
13635TIP3    H262321   5.530   0.042  14.890 -1.2083 -1.0695  2.3153
13636TIP3   OH262322   5.319   5.953  12.374  0.2397 -0.1445  0.4762
13636TIP3    H162323   5.361   5.910  12.300  1.4509 -1.4372  1.8817
13636TIP3    H262324   5.265   5.885  12.414 -1.4491  0.8936  0.0496
13637TIP3   OH262325   1.618   2.570  13.951  0.2319  0.1204  0.5608
13637TIP3    H162326   1.671   2.616  13.886  1.2555 -0.5029  0.9411
13637TIP3    H262327   1.601   2.635  14.019 -1.0721  0.8572 -0.4405
13638TIP3   OH262328   6.365   0.389  16.694 -0.0260 -0.1582  0.4225
13638TIP3    H162329   6.345   0.401  16.601 -0.6907 -3.1301  0.1600
13638TIP3    H262330   6.333   0.470  16.735 -2.1816  0.0452 -1.5479
13639TIP3   OH262331   2.848   4.593   5.733  0.1613  0.3251 -0.2880
13639TIP3    H162332   2.810   4.532   5.670 -1.1304 -0.2857  1.0433
13639TIP3    H262333   2.914   4.542   5.780  0.5121  0.5368 -0.5450
13640TIP3   OH262334   1.542   1.343   4.207  0.0725 -0.2303  0.2248
13640TIP3    H162335   1.552   1.316   4.298 -0.2244  0.5652  0.4933
13640TIP3    H262336   1.447   1.344   4.192  0.1300 -0.7072 -0.1987
13641TIP3   OH262337   4.659   4.674   4.229 -0.2522  0.2393  0.2835
13641TIP3    H162338   4.671   4.743   4.163 -0.1485 -1.3265 -1.3951
13641TIP3    H262339   4.564   4.672   4.243 -0.2513  0.7649  0.3843
13642TIP3   OH262340   4.655   2.303  12.035 -0.1638  0.9564  0.2993
13642TIP3    H162341   4.620   2.219  12.064  1.6812 -0.0363 -0.2564
13642TIP3    H262342   4.711   2.331  12.108 -0.1420  1.3018  0.1464
13643TIP3   OH262343   4.630   6.388   0.565  0.0884  0.7035  0.0777
13643TIP3    H162344   4.621   6.479   0.536 -0.8339  1.6474  3.0322
13643TIP3    H262345   4.541   6.363   0.592  0.8779 -0.0241  2.1072
13644TIP3   OH262346   3.898   3.559  15.103 -0.0517 -0.5827 -0.2677
13644TIP3    H162347   3.806   3.562  15.079 -0.4690  0.3275  1.4421
13644TIP3    H262348   3.900   3.568  15.198  1.7586 -1.2730 -0.2058
13645TIP3   OH262349   6.679   3.821  14.213 -0.1355  0.3421  0.1155
13645TIP3    H162350   6.716   3.799  14.299 -1.8392 -0.9520  0.5305
13645TIP3    H262351   6.704   3.748  14.156 -3.1179 -1.2247  0.7264
13646TIP3   OH262352   3.581   5.411  15.814 -0.3356 -0.3720  0.0123
13646TIP3    H162353   3.646   5.480  15.810 -0.9040  0.1096 -1.2930
13646TIP3    H262354   3.615   5.349  15.878  1.3925 -0.1211 -0.6437
13647TIP3   OH262355   2.566   3.112   3.237  0.1293 -0.5805 -0.0141
13647TIP3    H162356   2.561   3.062   3.156 -0.7347 -2.0283  0.9194
13647TIP3    H262357   2.501   3.182   3.226  0.3352 -0.4922 -0.7323
13648TIP3   OH262358   2.492   4.999   0.025  0.2112 -0.2593 -0.3262
13648TIP3    H162359   2.478   5.083   0.068  1.1413 -0.8210  1.0815
13648TIP3    H262360   2.405   4.959   0.022  0.0938 -0.0795  0.7190
13649TIP3   OH262361   2.977   3.484   1.029 -0.1747 -0.2362 -0.1643
13649TIP3    H162362   3.010   3.455   1.114 -1.9930 -3.0391 -0.3819
13649TIP3    H262363   3.029   3.436   0.965 -1.6925 -1.3660 -0.5653
13650TIP3   OH262364   4.541   3.498  15.189 -0.0970 -0.5280  0.4304
13650TIP3    H162365   4.445   3.501  15.182 -0.0277 -0.4927 -0.5116
13650TIP3    H262366   4.561   3.406  15.207 -0.2418 -0.7190 -0.3802
13651TIP3   OH262367   6.742   2.422  10.555 -0.2826  0.1165  0.1051
13651TIP3    H162368   6.826   2.416  10.508  0.5829 -1.5254  1.7800
13651TIP3    H262369   6.686   2.359  10.511 -0.3294  0.4823 -0.3714
13652TIP3   OH262370   0.643   6.275  14.186 -0.7731  0.3638 -0.4530
13652TIP3    H162371   0.628   6.352  14.131 -3.7496 -0.0811 -0.3508
13652TIP3    H262372   0.612   6.201  14.132 -3.2664 -0.1331  1.5587
13653TIP3   OH262373   5.446   6.556   1.066  0.1006  0.2401  0.6231
13653TIP3    H162374   5.383   6.536   1.135  0.5575 -0.4889  0.8344
13653TIP3    H262375   5.504   6.621   1.105 -0.2761  0.6169  0.5623
13654TIP3   OH262376   1.512   4.875  17.180 -0.3820 -0.0874 -0.1527
13654TIP3    H162377   1.541   4.908  17.095 -1.6594  0.9626 -0.2057
13654TIP3    H262378   1.416   4.880  17.176 -0.5338 -1.9643  0.5967
13655TIP3   OH262379   0.472   5.578   0.252 -0.0110 -0.1932 -0.1839
13655TIP3    H162380   0.438   5.625   0.176 -1.8667 -1.5982 -0.2441
13655TIP3    H262381   0.566   5.571   0.235 -0.0448  1.5547 -1.2087
13656TIP3   OH262382   4.725   6.661   0.506  0.5905  0.8472 -0.2864
13656TIP3    H162383   4.706   6.670   0.599  0.8893  0.5880 -0.2002
13656TIP3    H262384   4.694   6.743   0.467 -4.5366 -1.1316 -0.7924
13657TIP3   OH262385   4.878   4.124   0.535 -0.2838  0.2162 -0.3094
13657TIP3    H162386   4.801   4.180   0.542  1.1883  2.5014 -1.7180
13657TIP3    H262387   4.889   4.108   0.441  0.1767 -1.2364 -0.0305
13658TIP3   OH262388   2.390   4.425   3.684  0.1727  0.3048 -0.3708
13658TIP3    H162389   2.434   4.479   3.749 -1.3923  0.5904  0.4748
13658TIP3    H262390   2.342   4.487   3.629 -1.3339 -0.1641  0.3771
13659TIP3   OH262391   5.148   0.945  15.909  0.0033  0.5231  0.5900
13659TIP3    H162392   5.071   0.897  15.941 -1.6913  1.7877 -1.3982
13659TIP3    H262393   5.166   0.906  15.824 -0.2393  2.1174 -0.2197
13660TIP3   OH262394   5.759   3.338   3.855  0.0915  0.2918  0.0361
13660TIP3    H162395   5.742   3.270   3.920 -0.3518 -0.2712 -0.6629
13660TIP3    H262396   5.672   3.366   3.825  0.2934  0.2159 -0.6480
13661TIP3   OH262397   4.961   4.541   6.285  0.3475 -0.3569 -0.7222
13661TIP3    H162398   4.903   4.617   6.290 -1.2081 -1.2654 -3.7204
13661TIP3    H262399   5.048   4.578   6.275 -0.0460  1.0077  0.5979
13662TIP3   OH262400   5.611   1.491   3.228 -0.3138  0.8436  0.1198
13662TIP3    H162401   5.572   1.554   3.168  0.6821  1.3741  0.0288
13662TIP3    H262402   5.695   1.468   3.188 -1.2303 -1.5474 -0.5338
13663TIP3   OH262403   4.125   5.238  11.516  0.2466  0.1208 -0.0914
13663TIP3    H162404   4.197   5.180  11.542  0.8062  0.2616 -1.2639
13663TIP3    H262405   4.058   5.225  11.583  0.7394 -1.1808  0.1666
13664TIP3   OH262406   5.943   4.613   2.521 -0.1111  0.9784 -0.3898
13664TIP3    H162407   6.032   4.587   2.546 -0.5028  1.5794  1.7752
13664TIP3    H262408   5.950   4.640   2.430  2.1491  2.0597  0.0851
13665TIP3   OH262409   6.768   5.706  14.608 -0.0440  0.3930  0.0440
13665TIP3    H162410   6.758   5.792  14.649  1.3492  0.0848  1.0316
13665TIP3    H262411   6.820   5.723  14.529 -0.0483  0.5013  0.0651
13666TIP3   OH262412   2.365   2.478  11.900 -0.2811 -0.0944  0.9742
13666TIP3    H162413   2.412   2.400  11.870  0.5864  0.3764  1.0819
13666TIP3    H262414   2.432   2.532  11.942 -1.2145 -0.1074  2.5330
13667TIP3   OH262415   1.275   5.191  10.838  0.3931 -0.0738  1.5134
13667TIP3    H162416   1.355   5.216  10.884  0.6358 -1.0963  1.6515
13667TIP3    H262417   1.280   5.096  10.830 -1.0845 -0.2111  2.0332
13668TIP3   OH262418   1.282   2.166  13.464 -0.1503  0.2853 -0.0801
13668TIP3    H162419   1.198   2.165  13.508 -0.3617  1.7619 -0.4499
13668TIP3    H262420   1.299   2.258  13.445  0.3599 -0.2386 -2.2587
13669TIP3   OH262421   4.501   6.627   1.880  0.6702 -0.4099 -0.3005
13669TIP3    H162422   4.554   6.552   1.909  2.0770  0.8804  0.5589
13669TIP3    H262423   4.538   6.649   1.794  1.7909  0.7091  0.4528
13670TIP3   OH262424   2.118   2.234  10.726  0.3671  0.4823 -0.1925
13670TIP3    H162425   2.051   2.266  10.787  2.1887  1.9308  1.0915
13670TIP3    H262426   2.201   2.261  10.765  1.6036  0.8466 -2.9944
13671TIP3   OH262427   2.115   6.083   4.245 -0.1911 -0.0723  0.2525
13671TIP3    H162428   2.121   6.175   4.271  0.6980 -0.4824  1.5656
13671TIP3    H262429   2.061   6.083   4.166 -0.8326  1.4948  0.6808
13672TIP3   OH262430   1.332   1.220  11.344  0.1239 -0.3085 -0.1142
13672TIP3    H162431   1.309   1.132  11.313 -1.2665 -0.1363  0.3826
13672TIP3    H262432   1.278   1.279  11.292  2.0735  0.3605 -1.4215
13673TIP3   OH262433   3.347   6.721  10.286  0.4340 -0.3682 -0.5147
13673TIP3    H162434   3.427   6.746  10.331  0.1574 -2.0257  0.9379
13673TIP3    H262435   3.298   6.803  10.275  1.3189  0.3133  0.5779
13674TIP3   OH262436   2.033   1.385   5.786  0.3880 -0.1382  0.0047
13674TIP3    H162437   1.938   1.389   5.803  0.3559 -1.3408  0.1457
13674TIP3    H262438   2.069   1.346   5.865  1.1721  1.5411  0.4994
13675TIP3   OH262439   5.143   3.338  15.484  0.4081 -0.0000 -0.2885
13675TIP3    H162440   5.057   3.376  15.499  0.6269  0.8285 -1.0427
13675TIP3    H262441   5.200   3.381  15.547  0.6879  1.0691 -1.2528
13676TIP3   OH262442   3.068   1.780   5.947 -0.1959 -0.3480  0.0428
13676TIP3    H162443   3.148   1.811   5.905 -0.6760  0.0742 -0.5669
13676TIP3    H262444   3.024   1.729   5.879 -0.5816 -0.3424  0.2882
13677TIP3   OH262445   3.771   1.805  15.840  0.4832  0.2325  0.2001
13677TIP3    H162446   3.799   1.894  15.816 -1.1872  0.9635  0.8987
13677TIP3    H262447   3.718   1.776  15.766 -0.7554  0.6626  0.9063
13678TIP3   OH262448   4.958   3.539  13.221 -0.0655  0.0520 -0.1572
13678TIP3    H162449   4.973   3.450  13.252 -0.2532  0.2281  0.4503
13678TIP3    H262450   4.901   3.578  13.287  0.5185  0.8145 -0.0990
13679TIP3   OH262451   5.961   0.147  15.761  0.1568  0.0550 -0.4067
13679TIP3    H162452   5.890   0.209  15.745  0.4986  0.1077 -1.7903
13679TIP3    H262453   5.963   0.092  15.683  1.2645 -0.3233 -0.1266
13680TIP3   OH262454   3.508   1.490  15.363 -0.0394 -1.1016  0.0277
13680TIP3    H162455   3.580   1.497  15.426 -0.7675 -1.9719  0.9706
13680TIP3    H262456   3.431   1.522  15.411 -0.2765 -0.1663 -0.9760
13681TIP3   OH262457   6.646   2.213   3.114 -0.4325 -0.1874 -0.2641
13681TIP3    H162458   6.666   2.152   3.185 -0.6524 -2.0892 -1.7873
13681TIP3    H262459   6.641   2.299   3.156 -0.4454 -1.2599  1.9837
13682TIP3   OH262460   6.737   0.967  15.489 -0.5548 -0.0049 -0.4053
13682TIP3    H162461   6.700   0.883  15.458 -0.9487 -0.2591  0.7327
13682TIP3    H262462   6.761   1.013  15.409 -2.2015 -0.3683 -1.1295
13683TIP3   OH262463   5.028   0.863   4.210  0.1293 -0.3299 -0.0792
13683TIP3    H162464   4.955   0.801   4.222 -0.6156  0.2649 -1.3717
13683TIP3    H262465   5.096   0.832   4.270 -1.6959 -0.0543  2.2100
13684TIP3   OH262466   4.233   4.127  14.162  0.6320  0.0486  0.7245
13684TIP3    H162467   4.290   4.051  14.148  0.7519  0.2502  0.0764
13684TIP3    H262468   4.146   4.090  14.176  0.6424 -0.1967  0.1483
13685TIP3   OH262469   1.501   6.106  13.162  0.6449 -0.4701  0.3493
13685TIP3    H162470   1.538   6.183  13.117 -1.9417  1.3689  1.2604
13685TIP3    H262471   1.571   6.078  13.221  1.9565  0.6142 -0.6338
13686TIP3   OH262472   0.496   3.899   2.985 -0.0228 -0.6008 -0.0391
13686TIP3    H162473   0.459   3.980   3.020 -0.8388 -0.7933 -0.4552
13686TIP3    H262474   0.581   3.891   3.028 -0.9490 -0.7514  1.8012
13687TIP3   OH262475   2.891   4.446  16.936  0.3632 -0.6462 -0.1527
13687TIP3    H162476   2.813   4.391  16.942  0.3066 -0.8094 -1.9519
13687TIP3    H262477   2.894   4.474  16.844  2.3640 -0.5736 -0.1057
13688TIP3   OH262478   1.468   6.078   0.073  0.4125  0.5611  0.4536
13688TIP3    H162479   1.404   6.010   0.057  1.0575  0.2602 -0.9673
13688TIP3    H262480   1.434   6.155   0.027  1.4417  0.1737 -0.9949
13689TIP3   OH262481   2.182   1.840   6.111 -0.1180  0.9370  0.0850
13689TIP3    H162482   2.088   1.860   6.107 -0.0837  1.2494  0.8101
13689TIP3    H262483   2.194   1.800   6.196  0.8844  3.4491  1.1713
13690TIP3   OH262484   2.652   2.319   5.629 -0.2713  0.1456 -0.1882
13690TIP3    H162485   2.697   2.294   5.709 -0.2883 -0.0795 -0.2498
13690TIP3    H262486   2.721   2.334   5.565 -0.2588  0.3065 -0.1389
13691TIP3   OH262487   1.384   4.666  11.703  0.0965 -0.6503 -0.5563
13691TIP3    H162488   1.467   4.664  11.751 -0.1085 -2.5027 -0.2373
13691TIP3    H262489   1.403   4.715  11.623  0.2199  3.3649  1.7493
13692TIP3   OH262490   3.175   4.380  13.377 -0.5280  0.3857 -0.0428
13692TIP3    H162491   3.093   4.346  13.412  0.8057  0.2589  3.0793
13692TIP3    H262492   3.235   4.305  13.378  0.8378  1.4602  1.7191
13693TIP3   OH262493   6.246   1.391   0.923 -0.1963 -0.7553  0.1676
13693TIP3    H162494   6.197   1.390   0.840  1.3398  0.1805 -0.7727
13693TIP3    H262495   6.305   1.466   0.915 -0.8786  0.0789  2.6244
13694TIP3   OH262496   5.736   3.807   3.881 -0.1971 -0.4642 -0.0326
13694TIP3    H162497   5.761   3.856   3.960  0.8365 -0.2106 -0.5053
13694TIP3    H262498   5.642   3.792   3.890 -0.2344  0.2884  0.8468
13695TIP3   OH262499   1.042   4.989   2.120 -0.2377  0.2691  0.3405
13695TIP3    H162500   0.981   5.063   2.116 -0.2879  0.1785 -0.8444
13695TIP3    H262501   1.122   5.021   2.076  0.8293  0.6237  2.4996
13696TIP3   OH262502   4.596   1.520  14.423  0.3896  0.0815  0.4166
13696TIP3    H162503   4.538   1.523  14.499 -0.4968 -1.1125 -0.1890
13696TIP3    H262504   4.552   1.574  14.357 -0.1438 -0.9825 -0.1097
13697TIP3   OH262505   6.684   2.528  15.784  0.0660 -0.3839 -0.3685
13697TIP3    H162506   6.598   2.507  15.820 -0.4981 -1.7146 -2.4215
13697TIP3    H262507   6.706   2.454  15.728  2.0265  0.4834 -0.8076
13698TIP3   OH262508   1.113   0.089  15.165 -0.2921 -0.3248  0.9294
13698TIP3    H162509   1.154   0.101  15.250 -1.0740 -0.3662  1.3179
13698TIP3    H262510   1.025   0.057  15.185 -0.8390  0.6476  0.1408
13699TIP3   OH262511   4.333   6.473  12.221 -0.2591  0.4564 -0.4407
13699TIP3    H162512   4.403   6.471  12.156 -0.6718 -1.0716 -0.8500
13699TIP3    H262513   4.264   6.417  12.184 -1.0436  0.6564  0.7003
13700TIP3   OH262514   6.064   2.062  12.961 -0.2485  0.0528  0.1207
13700TIP3    H162515   6.110   2.111  13.030  1.9206 -0.9936 -0.5421
13700TIP3    H262516   6.024   1.988  13.007  0.5212 -0.1982  0.4035
13701TIP3   OH262517   5.615   0.700   1.807  0.5994 -0.0263 -0.2259
13701TIP3    H162518   5.656   0.713   1.892  0.2308 -0.0093 -0.0491
13701TIP3    H262519   5.594   0.789   1.776 -1.1413 -0.1257  0.5980
13702TIP3   OH262520   4.359   4.122  11.878  0.0146  0.1390 -0.2421
13702TIP3    H162521   4.323   4.183  11.942  3.2909  1.1697  0.6652
13702TIP3    H262522   4.386   4.177  11.804 -0.8657 -0.7012 -1.2143
13703TIP3   OH262523   3.631   2.134   2.674  0.3556  0.7854  0.1606
13703TIP3    H162524   3.624   2.229   2.661 -0.1165  0.4313 -2.4288
13703TIP3    H262525   3.718   2.122   2.710  0.3006  2.2283  0.8397
13704TIP3   OH262526   2.436   4.832  14.095  0.3818  0.1336  0.1853
13704TIP3    H162527   2.469   4.799  14.178 -0.3535  2.1709  1.3215
13704TIP3    H262528   2.466   4.768  14.030  0.8092 -1.5780  2.0162
13705TIP3   OH262529   1.344   6.361   3.052 -0.2095 -0.3443 -0.4039
13705TIP3    H162530   1.419   6.386   3.106  0.0801 -1.7287 -0.1416
13705TIP3    H262531   1.383   6.329   2.971 -0.5541 -0.3069 -0.5829
13706TIP3   OH262532   5.859   3.322   1.410 -0.0435  0.2098  0.0068
13706TIP3    H162533   5.867   3.417   1.419 -0.2954  0.2415 -0.0849
13706TIP3    H262534   5.782   3.310   1.354  0.0898 -0.0435 -0.1243
13707TIP3   OH262535   5.884   3.890  10.472  0.0081  0.1274 -0.3325
13707TIP3    H162536   5.919   3.975  10.497 -0.3909  0.0426  0.5233
13707TIP3    H262537   5.961   3.832  10.472  0.2086  0.3906 -0.5042
13708TIP3   OH262538   4.889   1.133  17.156  0.3083 -0.3860  0.2210
13708TIP3    H162539   4.864   1.200  17.092  2.6736 -1.3909 -1.8360
13708TIP3    H262540   4.950   1.178  17.215  1.2581 -0.4732 -0.6746
13709TIP3   OH262541   3.448   3.599  11.473 -0.4076  0.6757  0.4102
13709TIP3    H162542   3.467   3.551  11.392  0.5320  0.5595  0.6932
13709TIP3    H262543   3.374   3.656  11.450 -1.6167 -0.9590  0.0849
13710TIP3   OH262544   2.544   3.206   5.411  0.2561 -0.1079  0.1456
13710TIP3    H162545   2.498   3.274   5.460  0.8025 -0.4768  1.1837
13710TIP3    H262546   2.532   3.230   5.319 -0.6900  0.6446  0.4621
13711TIP3   OH262547   1.500   4.767   3.828 -0.3265 -0.5232 -0.1718
13711TIP3    H162548   1.593   4.787   3.840 -0.9640  1.6850  1.5562
13711TIP3    H262549   1.495   4.671   3.831  1.8031 -0.6394  0.3304
13712TIP3   OH262550   1.901   2.470  15.265 -0.0231 -0.1039  0.1846
13712TIP3    H162551   1.872   2.533  15.198  2.2477 -0.0404 -0.7989
13712TIP3    H262552   1.867   2.386  15.235  1.8771 -0.2592 -1.7093
13713TIP3   OH262553   2.219   6.169  11.367 -0.3325 -0.2328 -0.1462
13713TIP3    H162554   2.302   6.216  11.356 -0.8420  0.3598 -1.5905
13713TIP3    H262555   2.223   6.098  11.303 -1.4790  0.5976 -1.1773
13714TIP3   OH262556   2.847   5.090  14.774  0.1621  0.1391  0.3433
13714TIP3    H162557   2.759   5.114  14.745 -0.1617 -0.6488  0.6447
13714TIP3    H262558   2.869   5.012  14.723  0.7705  0.4469  0.1287
13715TIP3   OH262559   4.871   4.271   5.865  0.2989  0.0523 -0.9768
13715TIP3    H162560   4.903   4.246   5.952 -0.6329  0.4621 -0.5136
13715TIP3    H262561   4.842   4.188   5.826  0.4339 -0.0864 -0.7848
13716TIP3   OH262562   4.891   0.217   1.744  0.0738  0.0004  0.1285
13716TIP3    H162563   4.879   0.222   1.649 -0.6187  1.6192  0.2862
13716TIP3    H262564   4.809   0.179   1.776  0.1931 -0.2716  0.1147
13717TIP3   OH262565   1.547   4.355   5.387  0.0486 -0.3362  0.3302
13717TIP3    H162566   1.542   4.419   5.458 -0.4699 -0.0608  0.0501
13717TIP3    H262567   1.600   4.284   5.423  1.5484  0.7155  0.2873
13718TIP3   OH262568   6.724   5.533   0.030  0.4677 -0.7083 -0.5069
13718TIP3    H162569   6.648   5.564  -0.018  1.9426  1.8969 -1.2699
13718TIP3    H262570   6.695   5.528   0.121 -0.2299  1.6525 -0.5728
13719TIP3   OH262571   6.728   6.085  13.189 -0.4917 -0.6254  0.1773
13719TIP3    H162572   6.654   6.026  13.201  0.3905 -1.4518  1.7034
13719TIP3    H262573   6.743   6.124  13.275  1.0568 -0.7524 -0.0101
13720TIP3   OH262574   1.234   1.470   6.338  0.4454  0.2225  0.0379
13720TIP3    H162575   1.326   1.495   6.338  0.4543  0.2311 -1.4251
13720TIP3    H262576   1.235   1.378   6.310 -0.0656  0.5421 -1.0409
13721TIP3   OH262577   3.120   4.880   3.720 -0.1252 -0.1624  0.1465
13721TIP3    H162578   3.088   4.806   3.772 -0.6530 -0.1377 -0.1420
13721TIP3    H262579   3.040   4.923   3.688  0.1602  0.7531  0.6282
13722TIP3   OH262580   5.671   4.692  11.691  0.0798 -0.4198  0.0309
13722TIP3    H162581   5.600   4.681  11.754 -0.8574  1.9810 -0.5634
13722TIP3    H262582   5.716   4.772  11.718  0.7708 -0.3341 -1.2948
13723TIP3   OH262583   1.769   6.720  13.359  0.1643 -0.2459 -0.1721
13723TIP3    H162584   1.679   6.705  13.390 -0.4293 -1.8191 -2.5733
13723TIP3    H262585   1.761   6.793  13.298  0.2698 -1.2543 -1.4145
13724TIP3   OH262586   0.904   1.736  15.767 -0.4957  0.0281 -0.1516
13724TIP3    H162587   0.999   1.748  15.756 -0.7156  2.1934  0.1190
13724TIP3    H262588   0.867   1.762  15.683 -0.7609 -2.3522 -0.8038
13725TIP3   OH262589   5.964   4.208  16.323 -0.0695  0.0957 -0.5485
13725TIP3    H162590   6.045   4.157  16.314  0.3741  0.9702 -1.6928
13725TIP3    H262591   5.915   4.190  16.242  0.8575  2.7521 -1.7587
13726TIP3   OH262592   0.897   4.556   4.518  0.4835  0.2079 -0.0595
13726TIP3    H162593   0.951   4.505   4.458  0.7013  0.0665  0.2548
13726TIP3    H262594   0.960   4.602   4.574  0.2964  1.2161 -0.6709
13727TIP3   OH262595   3.750   4.613   0.734  0.6014 -0.0701 -0.5050
13727TIP3    H162596   3.744   4.627   0.639  2.0461  0.8919 -0.4755
13727TIP3    H262597   3.844   4.610   0.752  0.3474  0.2823  0.9671
13728TIP3   OH262598   5.379   3.524   2.056  0.2680 -0.2229  0.4729
13728TIP3    H162599   5.344   3.435   2.063 -0.6267  0.0442 -0.3592
13728TIP3    H262600   5.301   3.580   2.055  0.8225  0.5652  0.9081
13729TIP3   OH262601   6.051   6.446  12.693  0.0744  0.7081 -0.4216
13729TIP3    H162602   6.114   6.488  12.753 -1.3629  0.6943  1.1339
13729TIP3    H262603   6.024   6.367  12.740  0.7553 -0.5933 -2.1785
13730TIP3   OH262604   4.881   0.078  13.999 -0.1376 -0.0871 -0.9286
13730TIP3    H162605   4.872   0.156  13.944 -3.5650  1.4273  1.6067
13730TIP3    H262606   4.955   0.097  14.057 -0.3083  0.8468 -1.0185
13731TIP3   OH262607   5.687   0.368  14.807 -0.6160 -0.0828  0.3162
13731TIP3    H162608   5.682   0.461  14.829  1.6376 -0.3936  2.2667
13731TIP3    H262609   5.692   0.366  14.711 -0.7857  1.8045  0.2614
13732TIP3   OH262610   3.921   3.892   6.570 -0.5328  0.1783 -0.1459
13732TIP3    H162611   3.921   3.933   6.484  1.1228 -0.6265 -0.5527
13732TIP3    H262612   4.012   3.865   6.584 -0.2589  2.3924  2.8680
13733TIP3   OH262613   2.377   1.467   3.815 -0.0036  0.3012  0.5386
13733TIP3    H162614   2.294   1.509   3.794  0.1407  0.7532  0.8453
13733TIP3    H262615   2.394   1.493   3.906  0.4020  0.0993  0.5208
13734TIP3   OH262616   5.179   0.006  17.105  0.1996 -0.4665 -0.3927
13734TIP3    H162617   5.115   0.028  17.173  1.1676 -0.5644  0.5756
13734TIP3    H262618   5.162   0.069  17.035 -0.1726  0.2893  0.3562
13735TIP3   OH262619   4.415   3.082   2.710  0.2812 -0.3825  0.2021
13735TIP3    H162620   4.373   3.147   2.654 -0.8028 -2.8789 -2.0222
13735TIP3    H262621   4.357   3.072   2.785  0.0096  0.5425  0.1168
13736TIP3   OH262622   4.679   5.890   1.458 -0.5761  0.1997 -0.2507
13736TIP3    H162623   4.774   5.896   1.449 -0.5439  0.4927  0.2316
13736TIP3    H262624   4.665   5.875   1.552 -0.9824 -0.3353 -0.3928
13737TIP3   OH262625   4.374   6.710  15.866 -0.6030  0.1576  0.0523
13737TIP3    H162626   4.311   6.726  15.795  1.6123  3.9813 -1.1665
13737TIP3    H262627   4.339   6.758  15.941 -0.4999  0.0251  0.1866
13738TIP3   OH262628   5.457   4.618  13.872 -0.2539  0.2451 -0.5543
13738TIP3    H162629   5.368   4.597  13.900 -0.3556 -0.3920 -1.3351
13738TIP3    H262630   5.453   4.618  13.777  0.2343  1.7704 -0.5937
13739TIP3   OH262631   4.004   0.300   0.201  0.2207 -0.2685 -0.1742
13739TIP3    H162632   3.919   0.270   0.236 -0.2072  2.7668  1.5520
13739TIP3    H262633   3.981   0.374   0.145  1.6825  0.1311 -0.2453
13740TIP3   OH262634   6.557   3.542   4.055 -0.4497 -0.0199  0.0552
13740TIP3    H162635   6.585   3.597   4.128  3.6077 -0.7521 -0.8063
13740TIP3    H262636   6.549   3.454   4.092  1.5225 -0.3752 -0.3210
13741TIP3   OH262637   6.702   1.448   0.994 -0.1000  0.2140  0.0391
13741TIP3    H162638   6.668   1.409   0.914  3.0509 -0.5228 -1.0022
13741TIP3    H262639   6.738   1.533   0.965 -0.7039  0.8209  1.0434
13742TIP3   OH262640   4.169   1.615   2.403 -0.0725 -0.1582  0.2850
13742TIP3    H162641   4.196   1.706   2.419 -0.3650  0.3537 -1.9618
13742TIP3    H262642   4.093   1.602   2.460  1.5349  0.1451  2.5664
13743TIP3   OH262643   2.645   5.650   1.015  0.5364  0.4361  0.2172
13743TIP3    H162644   2.566   5.635   1.067  1.2838 -0.9779  0.9902
13743TIP3    H262645   2.716   5.650   1.079  1.2419  0.9718 -0.5526
13744TIP3   OH262646   1.139   3.155   3.586 -0.5541 -0.2227  0.1860
13744TIP3    H162647   1.075   3.164   3.657 -0.1592  1.7276  0.3493
13744TIP3    H262648   1.107   3.214   3.518 -0.1327 -0.9578 -0.6478
13745TIP3   OH262649   4.394   3.113  12.407  0.2914 -0.6227  0.1427
13745TIP3    H162650   4.368   3.177  12.340  4.9444  0.3774 -0.9144
13745TIP3    H262651   4.346   3.140  12.485 -0.7647  1.8487 -1.2749
13746TIP3   OH262652   0.745   3.813  14.081  0.0392  0.4130 -0.1917
13746TIP3    H162653   0.790   3.882  14.131  1.2953  0.0711 -0.8166
13746TIP3    H262654   0.815   3.770  14.032 -0.9523 -0.3154 -0.9915
13747TIP3   OH262655   3.933   6.312   1.807  0.6094  0.2522  0.1257
13747TIP3    H162656   3.961   6.301   1.716  1.3479 -0.8303  0.4783
13747TIP3    H262657   3.991   6.380   1.842  2.1960 -1.3009  0.5767
13748TIP3   OH262658   3.987   4.787  16.829  0.0086  0.6094 -0.4314
13748TIP3    H162659   3.990   4.857  16.894 -1.3279  1.7693 -1.5786
13748TIP3    H262660   3.998   4.707  16.879 -0.6437  1.5113  1.1874
13749TIP3   OH262661   2.896   0.913  10.921 -0.5072  0.3521 -0.4562
13749TIP3    H162662   2.967   0.961  10.878  0.8476 -0.3377  0.9751
13749TIP3    H262663   2.865   0.852  10.854  1.0389 -0.1417 -0.7518
13750TIP3   OH262664   4.176   1.998  14.592  0.0132 -0.2863  0.3840
13750TIP3    H162665   4.118   1.927  14.621 -0.1288 -0.1318  0.4789
13750TIP3    H262666   4.173   2.062  14.663  0.9114 -0.6292  0.7357
13751TIP3   OH262667   4.882   6.094   4.088 -0.2162 -0.1425  0.0920
13751TIP3    H162668   4.955   6.156   4.080 -0.5938  0.6028  2.1874
13751TIP3    H262669   4.924   6.008   4.087  0.3723  0.1359 -2.1237
13752TIP3   OH262670   1.751   0.655  14.149 -0.0951 -0.0598 -0.4307
13752TIP3    H162671   1.677   0.607  14.188  0.4160  0.1281  0.8027
13752TIP3    H262672   1.711   0.733  14.111 -0.5123  0.1888  0.4815
13753TIP3   OH262673   6.462   2.534  13.568 -0.4312 -0.1399 -0.6563
13753TIP3    H162674   6.438   2.449  13.531  0.3336 -1.5404  1.9190
13753TIP3    H262675   6.553   2.547  13.540 -0.9017  0.3984 -1.9923
13754TIP3   OH262676   0.942   6.658   3.110  0.0668  0.0936  0.5198
13754TIP3    H162677   0.979   6.578   3.074  1.0589  0.4969  0.6232
13754TIP3    H262678   0.920   6.711   3.034  0.2091  0.0734  0.4638
13755TIP3   OH262679   0.002   3.669   2.835 -0.6911  0.2878  0.1971
13755TIP3    H162680   0.039   3.588   2.870 -0.3946  0.6426  0.7103
13755TIP3    H262681   0.058   3.691   2.760 -1.8129 -0.9084 -1.0285
13756TIP3   OH262682   4.300   5.269  16.773 -0.0035  0.2486 -0.4915
13756TIP3    H162683   4.392   5.256  16.749  0.3435  0.7046  0.5576
13756TIP3    H262684   4.283   5.361  16.754 -0.0739  0.3144 -0.1024
13757TIP3   OH262685   1.054   1.652  14.754  0.2910  0.7665 -0.0234
13757TIP3    H162686   1.105   1.579  14.789 -0.7299 -0.4859 -1.1384
13757TIP3    H262687   1.075   1.725  14.812  1.6595 -0.2924  0.8412
13758TIP3   OH262688   1.532   3.721   5.130 -0.1516 -0.1382 -0.2464
13758TIP3    H162689   1.462   3.702   5.192 -1.4260 -0.4213 -1.7416
13758TIP3    H262690   1.522   3.655   5.061 -0.5956  1.8933 -2.2087
13759TIP3   OH262691   1.711   6.029   3.784 -0.0815  0.4539  0.6165
13759TIP3    H162692   1.666   6.077   3.715  0.8685  0.8229  0.2411
13759TIP3    H262693   1.804   6.042   3.766  0.1907  1.1736  2.3815
13760TIP3   OH262694   4.953   1.335   1.189 -0.4601 -0.3743  0.1993
13760TIP3    H162695   4.858   1.325   1.183 -0.3700 -0.7977 -0.6304
13760TIP3    H262696   4.973   1.402   1.124 -0.1328 -0.6424  0.0261
13761TIP3   OH262697   2.883   1.278   1.365 -0.0828  0.9607  0.3788
13761TIP3    H162698   2.961   1.222   1.362 -1.2666 -0.6696 -1.0877
13761TIP3    H262699   2.861   1.283   1.458  1.5730  1.1728  0.7693
13762TIP3   OH262700   6.564   2.639  11.743 -0.1916  0.1764 -0.4828
13762TIP3    H162701   6.635   2.588  11.704 -1.5926 -1.4995 -0.8963
13762TIP3    H262702   6.565   2.722  11.695  1.0759 -0.0804 -0.9039
13763TIP3   OH262703   3.079   5.813   5.195 -0.1938  0.3148  0.3169
13763TIP3    H162704   3.124   5.744   5.147 -0.2862  0.5083 -0.0524
13763TIP3    H262705   3.118   5.894   5.163 -1.2327  0.5180 -0.4561
13764TIP3   OH262706   6.090   5.417  17.232  0.2222 -0.2957 -0.1353
13764TIP3    H162707   6.120   5.497  17.188 -0.9766  0.6941  0.7722
13764TIP3    H262708   5.995   5.425  17.233  0.1400 -1.3139  0.7546
13765TIP3   OH262709   1.834   5.960   4.692 -0.1899 -0.2299  0.0645
13765TIP3    H162710   1.849   6.030   4.629 -0.9086  0.2579  0.4313
13765TIP3    H262711   1.917   5.912   4.695  0.8417  1.5612  1.0115
13766TIP3   OH262712   6.475   0.854   0.224 -0.3327 -0.5808 -0.8042
13766TIP3    H162713   6.436   0.888   0.305 -0.9802 -1.8162 -0.5831
13766TIP3    H262714   6.521   0.775   0.252  0.1775 -0.5367 -1.5109
13767TIP3   OH262715   6.299   3.152   2.848 -0.1710  0.2744 -0.1380
13767TIP3    H162716   6.322   3.114   2.763  0.7381 -0.2348  0.3352
13767TIP3    H262717   6.255   3.234   2.826  0.5661  0.4198 -1.0894
13768TIP3   OH262718   5.318   3.689   2.922 -0.2765  0.1641  0.7837
13768TIP3    H162719   5.273   3.661   2.842  0.7042 -1.3127  0.7172
13768TIP3    H262720   5.410   3.671   2.904  0.3708  3.1193  0.9205
13769TIP3   OH262721   1.557   2.222  14.990  0.3758 -0.2337 -0.2493
13769TIP3    H162722   1.566   2.164  14.913  1.0616  0.4986 -0.7206
13769TIP3    H262723   1.485   2.280  14.967  0.7803  0.1820 -0.4587
13770TIP3   OH262724   2.318   3.772  14.524 -0.3156 -0.6863 -0.1591
13770TIP3    H162725   2.249   3.813  14.576 -0.3448 -0.2874 -0.5060
13770TIP3    H262726   2.287   3.779  14.434 -0.8252 -2.4455 -0.1373
13771TIP3   OH262727   4.837   1.741   0.455  0.3231  0.2386 -0.0585
13771TIP3    H162728   4.854   1.809   0.520 -1.6831  2.1941 -1.5320
13771TIP3    H262729   4.761   1.694   0.489 -0.9811  1.5219 -1.1476
13772TIP3   OH262730   3.048   3.408   3.397  0.2884  0.1466 -0.5222
13772TIP3    H162731   2.966   3.362   3.375 -0.1200  0.5995  0.0267
13772TIP3    H262732   3.066   3.462   3.320  0.0355  0.0901 -0.6232
13773TIP3   OH262733   2.347   1.717   2.016 -0.0696 -0.7241  0.0520
13773TIP3    H162734   2.300   1.798   2.037 -0.5494 -1.0853  0.3886
13773TIP3    H262735   2.429   1.746   1.977 -1.0321 -0.0622 -1.5615
13774TIP3   OH262736   1.094   0.037  12.364  0.5729 -0.2142 -0.3666
13774TIP3    H162737   1.002   0.042  12.390  0.0733  0.4070 -2.1562
13774TIP3    H262738   1.093  -0.012  12.282  1.5844  1.6191 -1.5160
13775TIP3   OH262739   1.980   1.739  13.873 -0.3824 -0.2782 -0.1287
13775TIP3    H162740   1.911   1.754  13.808 -0.6327 -0.8531  0.0068
13775TIP3    H262741   1.935   1.700  13.948 -0.0188 -0.0380  0.2211
13776TIP3   OH262742   3.930   5.533  14.987 -0.2810  0.3761 -0.2239
13776TIP3    H162743   3.855   5.563  15.038 -0.2323  0.9034 -0.4505
13776TIP3    H262744   3.899   5.534  14.896  0.0787  0.8609 -0.3445
13777TIP3   OH262745   1.598   6.521  11.165 -0.5243 -0.5396  0.1329
13777TIP3    H162746   1.526   6.484  11.115  0.6079  1.7510 -3.3039
13777TIP3    H262747   1.560   6.598  11.209 -1.0859 -1.5726  1.5094
13778TIP3   OH262748   1.680   5.243  11.157  0.0918 -0.6506  0.0619
13778TIP3    H162749   1.607   5.287  11.113  0.9518  1.0171  0.2788
13778TIP3    H262750   1.646   5.156  11.177 -2.1505  0.3632  0.9200
13779TIP3   OH262751   1.303   0.607  16.307  0.1084  0.1772  0.3254
13779TIP3    H162752   1.302   0.660  16.227 -0.9531  0.4207  0.4919
13779TIP3    H262753   1.388   0.564  16.306  0.4232  0.8064 -0.5259
13780TIP3   OH262754   0.381   5.612   3.428  0.1513  0.1390 -0.1121
13780TIP3    H162755   0.327   5.658   3.364 -2.0322 -0.0776  1.5528
13780TIP3    H262756   0.332   5.532   3.447  1.3750 -0.3768  0.9255
13781TIP3   OH262757   1.150   0.053  14.069 -0.2803  0.8107 -0.1690
13781TIP3    H162758   1.244   0.049  14.052 -0.2625  0.0925  0.0858
13781TIP3    H262759   1.114  -0.024  14.026 -0.6252  0.5745  0.5244
13782TIP3   OH262760   3.191   2.184   5.824  0.7223  0.6321 -0.0409
13782TIP3    H162761   3.099   2.160   5.822  0.5677  1.0260  1.5197
13782TIP3    H262762   3.196   2.263   5.771 -0.0659  1.2739  0.8115
13783TIP3   OH262763   5.319   5.099   4.135 -0.0705  0.0569  0.8683
13783TIP3    H162764   5.240   5.150   4.114 -0.9719 -2.0376 -1.0703
13783TIP3    H262765   5.362   5.149   4.205 -2.4506  1.8975  1.0908
13784TIP3   OH262766   2.348   1.537  11.610  0.0962  0.7477  0.4398
13784TIP3    H162767   2.425   1.589  11.587 -0.1134  0.6417 -0.5161
13784TIP3    H262768   2.352   1.528  11.705  2.3316 -0.9179  0.2279
13785TIP3   OH262769   2.792   2.286   6.401 -0.0041  0.1277  0.3145
13785TIP3    H162770   2.857   2.218   6.383 -0.5717 -0.6939  1.2619
13785TIP3    H262771   2.743   2.251   6.476 -1.8016  0.5546 -0.6600
13786TIP3   OH262772   1.353   5.421  17.171 -0.5567 -0.3112  0.3682
13786TIP3    H162773   1.298   5.352  17.208  0.7560 -0.9081  1.2600
13786TIP3    H262774   1.381   5.387  17.086  0.2058 -0.9733  0.8672
13787TIP3   OH262775   1.219   1.284  15.606  0.9424  0.6181 -0.1891
13787TIP3    H162776   1.196   1.209  15.551  1.0638 -0.4856  1.2410
13787TIP3    H262777   1.217   1.358  15.546  0.5754 -0.4808 -1.5804
13788TIP3   OH262778   5.277   2.980   3.337 -0.8611  0.0723 -0.0644
13788TIP3    H162779   5.244   3.016   3.419 -1.0826 -0.5072  0.1031
13788TIP3    H262780   5.359   2.937   3.361 -1.1839 -0.5406 -0.0519
13789TIP3   OH262781   1.906   3.352  13.758 -0.6008 -0.4925 -0.0154
13789TIP3    H162782   1.985   3.326  13.711 -0.9347 -0.6979 -0.4686
13789TIP3    H262783   1.932   3.355  13.850  0.1246  0.1747 -0.2393
13790TIP3   OH262784   5.391   1.846  14.812 -0.3602 -0.1580 -0.7537
13790TIP3    H162785   5.316   1.898  14.839 -1.2004 -1.6282 -0.2131
13790TIP3    H262786   5.459   1.910  14.792 -1.4268  1.1397 -0.2438
13791TIP3   OH262787   5.012   1.206   2.594  0.5693  0.1287 -0.2992
13791TIP3    H162788   5.032   1.296   2.620  1.1549  0.7729 -2.8665
13791TIP3    H262789   5.097   1.162   2.590  0.6764  0.5031 -2.7099
13792TIP3   OH262790   3.069   6.198   0.183  0.0287  0.1909  0.0341
13792TIP3    H162791   3.073   6.104   0.200 -1.2709 -0.0730 -1.0798
13792TIP3    H262792   3.127   6.236   0.249  0.6428 -1.3883  0.4371
13793TIP3   OH262793   1.330   3.325   0.098  0.6254 -0.0503 -0.5472
13793TIP3    H162794   1.266   3.257   0.078 -0.9142  2.0332 -3.1030
13793TIP3    H262795   1.382   3.333   0.018  3.2500 -0.7924  1.0435
13794TIP3   OH262796   4.945   3.850  15.924  0.0568  0.5275  0.3135
13794TIP3    H162797   5.019   3.911  15.917  1.5237 -1.1333  1.1975
13794TIP3    H262798   4.897   3.880  16.001 -1.7750  3.2537 -1.7682
13795TIP3   OH262799   0.378   2.748   2.655  0.2432 -0.2313  0.2672
13795TIP3    H162800   0.394   2.723   2.564  0.9149 -1.9889  0.8526
13795TIP3    H262801   0.451   2.804   2.678  0.0738  0.2157 -0.2757
13796TIP3   OH262802   4.840   3.516   6.776  0.2110  0.1735  0.9431
13796TIP3    H162803   4.842   3.610   6.792 -0.9611  0.6382 -1.4155
13796TIP3    H262804   4.754   3.487   6.807 -0.3692  0.3179 -0.5034
13797TIP3   OH262805   6.363   0.211  11.757  0.1828  0.2423  0.0283
13797TIP3    H162806   6.378   0.273  11.686 -0.7187 -0.0069 -0.3825
13797TIP3    H262807   6.296   0.251  11.812  1.2525  0.6758  1.0486
13798TIP3   OH262808   3.191   5.877   0.679 -0.7211 -0.8807  0.5588
13798TIP3    H162809   3.109   5.838   0.712 -1.3294  0.6852  0.9317
13798TIP3    H262810   3.186   5.969   0.706  0.5444 -0.4639 -0.6122
13799TIP3   OH262811   5.438   3.137   5.236 -0.4521 -0.3885  0.1017
13799TIP3    H162812   5.419   3.054   5.279 -2.0415 -0.1051 -0.0231
13799TIP3    H262813   5.380   3.139   5.160 -0.8667  1.0974  0.4397
13800TIP3   OH262814   5.140   3.679   1.488  0.6717 -0.4624 -0.2092
13800TIP3    H162815   5.144   3.749   1.422  0.5202 -1.6345 -1.4949
13800TIP3    H262816   5.178   3.718   1.567  1.8617  0.6291 -1.2948
13801TIP3   OH262817   1.837   6.729  16.877 -0.3868  0.2838 -0.2808
13801TIP3    H162818   1.758   6.770  16.842  0.3490 -0.3730 -2.8168
13801TIP3    H262819   1.811   6.695  16.963 -2.6028  0.8919 -0.6899
13802TIP3   OH262820   4.289   2.132   5.018 -0.1631  0.0566  0.1927
13802TIP3    H162821   4.237   2.083   5.081  0.9157 -1.1615  0.1382
13802TIP3    H262822   4.357   2.175   5.071 -1.3061  1.7809  0.2870
13803TIP3   OH262823   5.022   5.890   6.332  0.3875 -0.0618  0.2561
13803TIP3    H162824   4.943   5.914   6.284  0.2646 -0.1376  0.4208
13803TIP3    H262825   5.082   5.964   6.317  0.6259 -0.4269 -0.6332
13804TIP3   OH262826   4.894   4.996  11.302  0.0843 -0.3821 -0.6055
13804TIP3    H162827   4.908   4.911  11.260 -1.0923 -0.8956  0.0406
13804TIP3    H262828   4.870   5.055  11.230 -0.0333 -0.8052 -0.9128
13805TIP3   OH262829   2.336   0.740  11.742 -0.6730 -0.5444 -0.3104
13805TIP3    H162830   2.421   0.761  11.781 -0.3680  1.2727 -1.9112
13805TIP3    H262831   2.307   0.662  11.790  0.3837  0.7090  2.4879
13806TIP3   OH262832   2.041   2.137  11.432 -0.1048 -0.4405  0.3658
13806TIP3    H162833   2.010   2.105  11.516  0.8664 -0.3276  0.7632
13806TIP3    H262834   2.135   2.148  11.442  0.1237 -1.0525 -0.9371
13807TIP3   OH262835   6.626   2.506  11.380 -0.6959  0.7162  0.4724
13807TIP3    H162836   6.591   2.520  11.292  1.3016 -1.7006 -0.7780
13807TIP3    H262837   6.583   2.425  11.410  0.8727 -0.1450  0.4637
13808TIP3   OH262838   2.224   0.545   1.372  0.1726  0.0399 -0.0055
13808TIP3    H162839   2.184   0.473   1.322  0.4835 -0.1716  0.0518
13808TIP3    H262840   2.233   0.510   1.461  0.3315  0.1486  0.0200
13809TIP3   OH262841   2.182   3.178   3.186 -0.4503  0.1226 -0.2354
13809TIP3    H162842   2.180   3.118   3.261 -1.3009  0.2569 -0.1442
13809TIP3    H262843   2.252   3.240   3.207  0.4660 -0.8465 -0.3490
13810TIP3   OH262844   0.898   4.153  12.731 -0.2830 -0.1804  0.3343
13810TIP3    H162845   0.934   4.073  12.769  0.5657  0.6003  1.2074
13810TIP3    H262846   0.813   4.164  12.773  0.6289  0.6515  1.9716
13811TIP3   OH262847   1.644   1.296  14.597 -0.1221 -0.1400  0.1079
13811TIP3    H162848   1.690   1.342  14.667  1.4351  1.0769 -1.6780
13811TIP3    H262849   1.660   1.204  14.614 -1.1225  0.0471  2.2624
13812TIP3   OH262850   5.193   3.980   5.484  0.0991 -0.5102  0.1989
13812TIP3    H162851   5.269   4.038   5.474 -1.1476  0.9708 -0.8823
13812TIP3    H262852   5.145   4.016   5.559  1.1625 -2.2668  1.7580
13813TIP3   OH262853   1.541   6.532   4.784  0.1869  0.1676 -0.1499
13813TIP3    H162854   1.590   6.464   4.739 -0.7290  1.2521 -2.8898
13813TIP3    H262855   1.495   6.486   4.854  0.4855 -1.8209 -1.2137
13814TIP3   OH262856   6.541   6.288  11.379  0.9894  0.9245  0.0293
13814TIP3    H162857   6.480   6.306  11.307  1.7578  1.0319 -0.6112
13814TIP3    H262858   6.488   6.243  11.445  0.3501  0.4947 -0.7621
13815TIP3   OH262859   1.778   5.848  14.971 -0.2604  0.6214 -0.6425
13815TIP3    H162860   1.710   5.782  14.982 -2.3425  2.7761 -0.4165
13815TIP3    H262861   1.826   5.820  14.892 -1.3241 -0.9450 -0.7464
13816TIP3   OH262862   0.394   2.613   6.090  0.5863  0.6226  0.1955
13816TIP3    H162863   0.330   2.595   6.159 -0.3592  0.7866 -0.6245
13816TIP3    H262864   0.429   2.699   6.111 -1.7715  1.9352 -1.0769
13817TIP3   OH262865   2.704   0.062  14.819 -0.4244 -0.7206 -0.0361
13817TIP3    H162866   2.621   0.110  14.822  0.7042  1.2354  2.8045
13817TIP3    H262867   2.724   0.055  14.726 -3.2717 -0.3369 -0.7295
13818TIP3   OH262868   6.484   6.118   4.276  0.4877  0.4651 -0.0651
13818TIP3    H162869   6.418   6.071   4.327  0.0965 -1.0713 -1.9162
13818TIP3    H262870   6.437   6.193   4.240  0.2035  0.3600  0.0821
13819TIP3   OH262871   5.031   1.158  14.743 -0.4940  0.6863  0.0784
13819TIP3    H162872   5.095   1.089  14.763  0.4976  1.5949  0.0775
13819TIP3    H262873   4.985   1.172  14.825 -0.6414  0.0780  0.1014
13820TIP3   OH262874   3.996   6.565  12.499  0.0499 -0.0712  0.5056
13820TIP3    H162875   4.056   6.508  12.548  1.8963 -1.1650 -2.8401
13820TIP3    H262876   4.047   6.643  12.479  0.1841 -0.7309 -1.8282
13821TIP3   OH262877   2.981   3.868  15.669 -0.6175 -0.1704  0.2818
13821TIP3    H162878   2.932   3.877  15.587  0.8451  0.2505 -0.5808
13821TIP3    H262879   3.070   3.846  15.640  0.2315  1.2874  1.7071
13822TIP3   OH262880   3.911   1.940   2.086 -0.1685 -0.4804  0.0742
13822TIP3    H162881   3.975   1.982   2.143  0.9992 -0.6888 -1.0529
13822TIP3    H262882   3.839   2.002   2.079  0.3178  0.1457  0.6365
13823TIP3   OH262883   3.494   4.478  12.671  0.3263  0.5016  0.0125
13823TIP3    H162884   3.475   4.571  12.661  1.4431  0.7702  0.2867
13823TIP3    H262885   3.410   4.434  12.658 -0.3000  1.5817  0.3818
13824TIP3   OH262886   2.724   1.380  15.151  0.3970  0.1258  0.3507
13824TIP3    H162887   2.747   1.288  15.161  0.3318  0.2451  1.5728
13824TIP3    H262888   2.693   1.408  15.237 -2.0892  0.6037 -0.6463
13825TIP3   OH262889   1.469   0.618   0.510 -0.5083  0.2467  1.0503
13825TIP3    H162890   1.382   0.579   0.501  0.0933 -0.6155 -1.4379
13825TIP3    H262891   1.499   0.630   0.420  1.7212  1.0694  1.8774
13826TIP3   OH262892   1.645   4.521  13.673  0.0159  0.5025  0.4972
13826TIP3    H162893   1.573   4.464  13.646 -0.3521  1.3361 -0.3238
13826TIP3    H262894   1.644   4.592  13.609  1.1146  0.8964  0.9118
13827TIP3   OH262895   6.184   5.098   2.105  0.3075 -0.1995 -0.6682
13827TIP3    H162896   6.260   5.087   2.049  2.5688 -0.7796  2.3480
13827TIP3    H262897   6.217   5.148   2.180 -2.1479 -0.8582  0.9286
13828TIP3   OH262898   2.334   4.910  13.337 -0.6303  0.4075  0.2023
13828TIP3    H162899   2.257   4.865  13.374 -0.7539  1.7867  1.6838
13828TIP3    H262900   2.360   4.855  13.263 -1.5371 -1.4291  1.1941
13829TIP3   OH262901   4.574   0.148   3.639  0.6987 -0.1683  0.0194
13829TIP3    H162902   4.562   0.093   3.561 -0.4738  0.3269 -0.1469
13829TIP3    H262903   4.669   0.152   3.650  0.8323 -1.6504 -0.3845
13830TIP3   OH262904   6.088   2.278   3.021  0.1006 -0.2622  0.2833
13830TIP3    H162905   6.025   2.246   2.956 -0.6327  0.4904  0.6139
13830TIP3    H262906   6.034   2.309   3.094  0.9246 -1.2684  1.3450
13831TIP3   OH262907   1.152   6.760   2.443 -0.3288 -0.0860  0.2109
13831TIP3    H162908   1.193   6.751   2.357 -3.0242 -0.3447 -1.1079
13831TIP3    H262909   1.193   6.838   2.481  1.4870 -0.4407 -0.9375
13832TIP3   OH262910   3.073   0.882   0.615 -0.1992 -0.4343 -0.0584
13832TIP3    H162911   3.002   0.911   0.671 -0.4528 -1.3660  0.1111
13832TIP3    H262912   3.029   0.843   0.539  0.1322 -0.4307 -0.2540
13833TIP3   OH262913   3.282   2.930  12.732  0.4046 -0.8084 -0.0025
13833TIP3    H162914   3.240   2.845  12.743  0.5922 -0.7331  1.3441
13833TIP3    H262915   3.214   2.993  12.757  0.4479 -0.5706 -0.4664
13834TIP3   OH262916   4.691   3.004  10.888  0.5150 -0.2108 -0.0695
13834TIP3    H162917   4.611   2.964  10.922  1.5903 -0.8398  1.8147
13834TIP3    H262918   4.760   2.972  10.946  1.9015  1.6148 -0.6561
13835TIP3   OH262919   2.944   6.049   5.822 -0.2499  0.0743  0.5338
13835TIP3    H162920   2.926   6.143   5.821  0.2504  0.1668  0.0204
13835TIP3    H262921   2.869   6.011   5.869 -0.8829  0.6338 -0.0069
13836TIP3   OH262922   1.396   4.552  14.617 -0.0849  0.5900 -0.1241
13836TIP3    H162923   1.305   4.582  14.627 -0.9279 -2.2815  1.3227
13836TIP3    H262924   1.425   4.534  14.707  0.8954 -1.3990 -0.8205
13837TIP3   OH262925   1.151   4.293  14.998  0.4198  0.3483  0.5923
13837TIP3    H162926   1.125   4.236  15.070  0.9681  1.3936  1.6300
13837TIP3    H262927   1.096   4.371  15.008 -0.5048 -0.0927 -0.9602
13838TIP3   OH262928   3.777   0.291  14.094 -0.9381 -0.4092 -0.2961
13838TIP3    H162929   3.748   0.268  14.005  0.7067 -0.8568 -0.7253
13838TIP3    H262930   3.870   0.313  14.085 -0.4470 -1.6344  1.5215
13839TIP3   OH262931   3.517   5.978   2.283  0.8549 -0.0840 -0.8134
13839TIP3    H162932   3.548   6.030   2.356 -2.2883 -1.7772  1.8998
13839TIP3    H262933   3.423   5.998   2.278  0.4987 -2.0415 -2.5867
13840TIP3   OH262934   5.305   1.198   0.012  0.4874  0.1894 -0.4455
13840TIP3    H162935   5.297   1.102   0.007  0.3400  0.1597  0.3219
13840TIP3    H262936   5.217   1.230  -0.008  1.1744  0.2826 -3.5860
13841TIP3   OH262937   0.201   6.059  16.241  0.2565 -0.2495 -0.4314
13841TIP3    H162938   0.133   6.105  16.290 -0.4079 -0.1352 -1.4714
13841TIP3    H262939   0.254   6.016  16.309  0.3451  1.2875  0.4968
13842TIP3   OH262940   2.357   3.509   3.005 -0.2332  0.2623 -0.6482
13842TIP3    H162941   2.373   3.587   2.952 -0.3433  0.3015 -0.6250
13842TIP3    H262942   2.309   3.449   2.948 -1.7004  0.9089 -0.1354
13843TIP3   OH262943   2.119   2.071   0.690 -0.1048  0.1790  0.4316
13843TIP3    H162944   2.084   1.996   0.641  0.9072  0.0176 -0.0603
13843TIP3    H262945   2.164   2.123   0.624 -0.6178  1.1114  0.8172
13844TIP3   OH262946   1.192   4.535  16.749 -0.3793  0.0558  0.0573
13844TIP3    H162947   1.260   4.489  16.700 -0.3423 -0.7518  0.8470
13844TIP3    H262948   1.161   4.603  16.690 -0.2302 -0.8076 -1.0229
13845TIP3   OH262949   3.527   4.843  11.314 -0.2234  0.2902  0.3574
13845TIP3    H162950   3.616   4.876  11.327  0.3671 -0.8118 -0.7136
13845TIP3    H262951   3.484   4.911  11.263 -0.0429  0.9034  1.0152
13846TIP3   OH262952   2.566   5.531   5.172 -0.2737 -0.6506 -0.0326
13846TIP3    H162953   2.497   5.502   5.232  0.4943 -0.2677  1.0687
13846TIP3    H262954   2.628   5.577   5.229 -0.9155  2.2019 -1.5711
13847TIP3   OH262955   3.977   1.950  13.655  0.5084 -0.1163  0.2807
13847TIP3    H162956   4.035   1.977  13.726  0.0170  0.6308  0.4015
13847TIP3    H262957   3.892   1.936  13.697  0.2097  0.3499 -0.1622
13848TIP3   OH262958   2.941   3.902   3.823 -0.2443 -0.1590  0.1701
13848TIP3    H162959   3.027   3.861   3.835 -0.6859 -1.0168  0.4006
13848TIP3    H262960   2.883   3.829   3.802 -0.6649  0.5854 -1.2632
13849TIP3   OH262961   1.596   5.608   2.729 -0.0181 -0.0185 -0.2651
13849TIP3    H162962   1.574   5.616   2.822 -0.6434  0.9071 -0.4816
13849TIP3    H262963   1.680   5.564   2.728  0.9648  1.7613  0.8285
13850TIP3   OH262964   6.744   4.041  14.060 -0.0414 -0.1255  0.1912
13850TIP3    H162965   6.733   3.964  14.115  1.1356 -0.6908 -0.3499
13850TIP3    H262966   6.809   4.015  13.995  0.6418  1.4375  0.2244
13851TIP3   OH262967   2.688   2.187  14.519  0.4824  0.1367  0.5273
13851TIP3    H162968   2.631   2.264  14.507  0.6854  0.0903 -0.7895
13851TIP3    H262969   2.733   2.204  14.601 -0.0266  1.0853  0.6229
13852TIP3   OH262970   1.999   6.201  15.006  0.2787  0.1597  0.0969
13852TIP3    H162971   1.953   6.206  15.089  1.6412  1.8039  0.7849
13852TIP3    H262972   2.085   6.166  15.028 -0.2450 -1.9454 -1.0373
13853TIP3   OH262973   1.739   1.573   5.078  0.6287  0.5612  0.2412
13853TIP3    H162974   1.797   1.565   5.154  0.6911 -0.4048  0.0927
13853TIP3    H262975   1.655   1.598   5.115  0.3246 -1.1960  0.7618
13854TIP3   OH262976   5.536   5.443  11.178 -0.0630  0.4124 -0.1604
13854TIP3    H162977   5.555   5.537  11.178 -0.0483  0.4131 -0.6872
13854TIP3    H262978   5.621   5.401  11.166  0.1742  0.2638  1.9080
13855TIP3   OH262979   0.994   2.191   3.713  0.4751 -0.6267  0.3022
13855TIP3    H162980   0.954   2.105   3.724 -1.2183 -0.2168 -2.2973
13855TIP3    H262981   1.076   2.174   3.667  0.4556 -0.9115  0.3752
13856TIP3   OH262982   6.558   4.838  17.095 -0.0641  0.1555  0.2516
13856TIP3    H162983   6.482   4.781  17.106 -1.1734  1.5575 -0.0100
13856TIP3    H262984   6.551   4.871  17.006  0.7392  0.4680  0.2959
13857TIP3   OH262985   0.044   1.001  16.207 -0.3470  0.4181  0.1215
13857TIP3    H162986  -0.015   1.062  16.251 -0.9910  0.1548 -0.3822
13857TIP3    H262987   0.087   0.954  16.279 -2.1734 -0.7585  0.4910
13858TIP3   OH262988   0.428   5.830   3.637  0.0239  0.7543  0.7265
13858TIP3    H162989   0.394   5.761   3.580 -1.4979  0.5593  1.8345
13858TIP3    H262990   0.447   5.786   3.719 -1.4592  1.7416  1.6131
13859TIP3   OH262991   4.693   3.573   3.294 -0.3431  0.7644  0.2835
13859TIP3    H162992   4.646   3.586   3.211  1.2685  0.2328 -0.7400
13859TIP3    H262993   4.635   3.519   3.347 -1.3465  1.0228 -0.5326
13860TIP3   OH262994   6.017   2.910   3.885  0.0235 -0.4474  0.6841
13860TIP3    H162995   6.029   2.914   3.980  0.4883 -0.0515  0.6131
13860TIP3    H262996   5.923   2.915   3.872 -0.1713 -2.2560  1.2090
13861TIP3   OH262997   3.695   3.058  15.567  0.3848  0.0740  0.0980
13861TIP3    H162998   3.768   3.019  15.616 -0.1970  0.0768  0.9855
13861TIP3    H262999   3.726   3.062  15.477  1.1983 -0.6278  0.3367
13862TIP3   OH263000   0.527   4.537  14.819  0.0080 -0.2794  0.1761
13862TIP3    H163001   0.590   4.576  14.880 -0.6392  0.7105  0.2333
13862TIP3    H263002   0.570   4.458  14.787  0.0744 -1.1935  2.4384
13863TIP3   OH263003   0.386   1.370  15.717 -0.0457 -0.0815 -0.1863
13863TIP3    H163004   0.301   1.369  15.673 -0.8749 -2.7210  1.3468
13863TIP3    H263005   0.365   1.390  15.808  1.4019  2.9473 -0.4653
13864TIP3   OH263006   0.799   4.443   3.297 -0.0652 -0.1255 -0.2206
13864TIP3    H163007   0.851   4.376   3.253 -0.2701 -0.2937 -0.2050
13864TIP3    H263008   0.827   4.525   3.256  1.1295 -0.0684  0.6577
13865TIP3   OH263009   4.387   5.350   6.177 -0.0531 -0.5779 -0.3336
13865TIP3    H163010   4.337   5.285   6.128 -0.5711  0.9639 -1.9282
13865TIP3    H263011   4.332   5.428   6.175  1.4273  0.4877 -0.1815
13866TIP3   OH263012   5.182   1.035  11.924 -0.8796 -0.1881 -0.2541
13866TIP3    H163013   5.231   1.081  11.993  1.5982 -3.5769  0.4134
13866TIP3    H263014   5.142   0.961  11.970 -3.9277  0.6650 -1.4729
13867TIP3   OH263015   1.788   4.583   0.631  0.5119 -0.1048  0.3146
13867TIP3    H163016   1.768   4.656   0.572  0.2365  0.1728  0.7515
13867TIP3    H263017   1.753   4.506   0.586  1.0124  0.0021 -0.2545
13868TIP3   OH263018   1.964   6.051   0.967 -0.1238 -0.2343 -0.0960
13868TIP3    H163019   1.921   6.129   0.933 -1.2189 -0.0666  1.6146
13868TIP3    H263020   2.008   6.081   1.047 -0.3535 -1.3002  0.4422
13869TIP3   OH263021   6.624   1.461   1.418 -0.1628 -0.3132 -0.4201
13869TIP3    H163022   6.633   1.366   1.430  1.5606 -0.1281 -0.0593
13869TIP3    H263023   6.691   1.498   1.476 -1.1550  1.1450 -0.1966
13870TIP3   OH263024   1.424   6.617  15.505 -0.1236 -0.6979 -0.0829
13870TIP3    H163025   1.498   6.674  15.485 -0.7874 -0.7965 -2.9815
13870TIP3    H263026   1.366   6.671  15.558  0.9319  0.1410  0.2322
13871TIP3   OH263027   4.724   5.412  12.758 -0.3414 -0.0362  0.2715
13871TIP3    H163028   4.702   5.348  12.826  1.8352  0.4941  1.5211
13871TIP3    H263029   4.812   5.386  12.729 -0.2037  1.2891 -0.5274
13872TIP3   OH263030   5.652   6.021  17.044  0.1828  0.1588 -0.7222
13872TIP3    H163031   5.665   5.950  17.106  0.0765  0.3260 -0.5058
13872TIP3    H263032   5.733   6.072  17.048 -0.0879  0.5508 -0.2233
13873TIP3   OH263033   3.563   5.102  13.985 -0.0483  0.2623 -0.8669
13873TIP3    H163034   3.482   5.054  14.002 -0.3780  0.4479 -1.8667
13873TIP3    H263035   3.606   5.109  14.070 -0.5520 -0.8003 -0.5270
13874TIP3   OH263036   4.370   2.510  12.098  0.6823 -0.2491 -0.0566
13874TIP3    H163037   4.411   2.455  12.031  1.7809 -0.5507  0.8498
13874TIP3    H263038   4.299   2.456  12.133  0.4742 -0.3112 -0.5623
13875TIP3   OH263039   6.198   2.907   4.130 -0.3469  0.6849 -0.0001
13875TIP3    H163040   6.199   2.946   4.218  1.2656  2.8837 -0.9523
13875TIP3    H263041   6.264   2.838   4.134 -0.3555  0.7008  0.5425
13876TIP3   OH263042   4.165   3.142   2.184  0.5410 -0.0738  0.3671
13876TIP3    H163043   4.155   3.058   2.139 -0.0843 -1.0619  2.2946
13876TIP3    H263044   4.171   3.206   2.114 -1.5209 -1.4442 -1.1174
13877TIP3   OH263045   0.317   0.234   4.102  0.1143  0.5280 -0.1944
13877TIP3    H163046   0.376   0.210   4.174 -1.3832  0.8663  1.1584
13877TIP3    H263047   0.369   0.291   4.046  2.4688 -2.5765 -1.3188
13878TIP3   OH263048   3.643   3.552   5.632 -0.5024  0.0648 -0.0940
13878TIP3    H163049   3.624   3.641   5.663 -0.8060  0.0899 -0.3445
13878TIP3    H263050   3.604   3.495   5.698 -1.2810  0.1172 -0.5071
13879TIP3   OH263051   0.532   3.518  14.555 -0.2751 -0.8581 -0.1886
13879TIP3    H163052   0.544   3.580  14.627 -2.5759  0.0611 -0.5385
13879TIP3    H263053   0.602   3.538  14.493  0.4922 -0.2885  0.8582
13880TIP3   OH263054   1.454   4.185  14.811  0.3766 -0.2709 -0.6649
13880TIP3    H163055   1.511   4.178  14.735  0.1628 -0.6736 -0.7906
13880TIP3    H263056   1.381   4.241  14.782  0.6982  0.2313 -0.5061
13881TIP3   OH263057   4.017   4.111   0.929  0.0888 -0.6611 -0.1639
13881TIP3    H163058   4.055   4.184   0.880 -3.4371 -0.9114 -3.4080
13881TIP3    H263059   3.950   4.151   0.985  1.7626 -0.8249  2.0504
13882TIP3   OH263060   3.812   2.606  15.772 -0.2909 -0.2254 -0.4988
13882TIP3    H163061   3.903   2.583  15.752 -0.4367 -0.0165 -1.4344
13882TIP3    H263062   3.813   2.628  15.865  0.9546  1.3641 -0.8704
13883TIP3   OH263063   3.899   3.194  14.323 -0.0018 -0.1296 -0.1811
13883TIP3    H163064   3.983   3.213  14.364  0.6389  0.3212 -1.6559
13883TIP3    H263065   3.871   3.111  14.362  0.4102  0.4463  1.3816
13884TIP3   OH263066   4.647   0.227   5.149  0.3129  0.0713  0.3955
13884TIP3    H163067   4.633   0.319   5.170 -1.0653  0.4709 -2.1134
13884TIP3    H263068   4.732   0.206   5.187  0.4897  2.2916  1.2652
13885TIP3   OH263069   4.652   4.996   0.353  0.1022  0.6927  0.3084
13885TIP3    H163070   4.700   4.991   0.270  0.4643 -0.2824  0.5771
13885TIP3    H263071   4.560   4.998   0.327  0.2598  2.3767 -0.2014
13886TIP3   OH263072   1.054   0.089   5.546 -0.7815  0.0353 -0.3585
13886TIP3    H163073   1.066   0.114   5.638  0.9441  1.8231 -1.0223
13886TIP3    H263074   1.097   0.003   5.539  1.7298  1.2113 -0.0987
13887TIP3   OH263075   0.352   0.857   2.250 -0.0940  0.5485  0.3034
13887TIP3    H163076   0.352   0.844   2.345 -0.9259 -0.2282  0.2038
13887TIP3    H263077   0.374   0.771   2.214 -0.6450  0.6249 -0.2274
13888TIP3   OH263078   0.821   0.645  11.673  0.2555 -0.1031  0.3172
13888TIP3    H163079   0.868   0.564  11.693  1.9145  0.1449 -2.4477
13888TIP3    H263080   0.837   0.701  11.749  1.0775 -1.4813  1.1758
13889TIP3   OH263081   1.181   2.500  10.506 -0.5184 -0.6319  0.0244
13889TIP3    H163082   1.223   2.525  10.588  1.6994  0.2375 -1.3251
13889TIP3    H263083   1.155   2.583  10.466  0.6138 -0.8756 -1.2594
13890TIP3   OH263084   6.593   3.976   4.575  0.4709  0.2314 -0.2375
13890TIP3    H163085   6.685   3.969   4.550  0.5598  0.2617  0.0888
13890TIP3    H263086   6.579   3.903   4.636 -0.0032 -0.4505 -1.1402
13891TIP3   OH263087   6.067   0.300  13.430 -0.0675  0.0227  0.3701
13891TIP3    H163088   6.119   0.236  13.381  0.6948  0.7981  0.1595
13891TIP3    H263089   6.047   0.369  13.367 -0.5775  0.1699  0.6920
13892TIP3   OH263090   1.098   3.455  11.774  0.2852  0.0494 -0.1195
13892TIP3    H163091   1.030   3.461  11.842  0.2053  1.6605 -0.3257
13892TIP3    H263092   1.178   3.435  11.822  0.2116  1.0859  0.4419
13893TIP3   OH263093   5.525   5.701  11.122  0.3260  0.7433 -0.0812
13893TIP3    H163094   5.450   5.751  11.091 -0.0111 -0.2998 -0.9910
13893TIP3    H263095   5.599   5.732  11.070  0.2148  0.6602 -0.2908
13894TIP3   OH263096   1.234   5.781   3.440 -0.5479  0.2374  0.2796
13894TIP3    H163097   1.263   5.723   3.510 -2.1526 -0.5560  0.3033
13894TIP3    H263098   1.276   5.865   3.459 -0.3244 -0.1922  1.7360
13895TIP3   OH263099   3.093   4.647  11.541  0.1078  0.1041 -0.1535
13895TIP3    H163100   3.073   4.598  11.461 -0.8956 -0.5008  0.4606
13895TIP3    H263101   3.139   4.725  11.510  0.3985 -0.4916 -1.2620
13896TIP3   OH263102   4.810   1.974   1.041 -0.2301 -0.2167  0.2360
13896TIP3    H163103   4.831   2.043   0.978 -0.7628  1.0597  1.4296
13896TIP3    H263104   4.741   2.012   1.095 -1.1472 -2.0171  0.3600
13897TIP3   OH263105   5.194   0.338   1.705 -0.2193  0.0344 -0.7554
13897TIP3    H163106   5.162   0.254   1.673 -1.0031 -0.8273  2.1429
13897TIP3    H263107   5.117   0.394   1.706 -0.5532 -0.4261  1.0721
13898TIP3   OH263108   2.825   3.817  15.441 -0.6932 -0.0661 -0.1913
13898TIP3    H163109   2.858   3.751  15.379 -0.1144 -0.3309  0.3939
13898TIP3    H263110   2.755   3.861  15.393  0.6266  0.6261 -1.5338
13899TIP3   OH263111   2.166   0.500   5.005 -0.3138 -1.0023  0.2033
13899TIP3    H163112   2.108   0.462   4.939 -2.7228  2.0051  0.5099
13899TIP3    H263113   2.197   0.582   4.967 -1.2329  0.4618  2.4744
13900TIP3   OH263114   1.546   5.379   0.840 -0.2356  0.1230 -0.0567
13900TIP3    H163115   1.627   5.362   0.887  0.0041 -0.6213 -0.7226
13900TIP3    H263116   1.557   5.467   0.804 -0.2537  0.5281  0.9157
13901TIP3   OH263117   3.946   0.050  12.318  0.1244  0.1404 -0.0758
13901TIP3    H163118   3.859   0.062  12.357 -0.0990 -0.5895 -0.3468
13901TIP3    H263119   3.930   0.003  12.237  0.9307 -1.5251  0.7174
13902TIP3   OH263120   5.522   4.104   2.380  0.1681  0.1880  0.7698
13902TIP3    H163121   5.501   4.091   2.288  1.6606 -0.9281  0.5587
13902TIP3    H263122   5.516   4.017   2.419  1.2878  0.3466  1.3368
13903TIP3   OH263123   3.097   4.264   5.078 -0.3482 -0.5507  0.1909
13903TIP3    H163124   3.016   4.224   5.046 -0.7899 -0.7098  1.4817
13903TIP3    H263125   3.067   4.330   5.140  0.4761  0.1644 -0.1692
13904TIP3   OH263126   0.730   0.825  15.202  0.5498 -0.4031 -0.6197
13904TIP3    H163127   0.748   0.735  15.176 -0.8786 -1.6587  2.4033
13904TIP3    H263128   0.816   0.866  15.212  1.1905 -1.2471 -2.4778
13905TIP3   OH263129   2.082   5.459  12.957  0.2497 -0.1768 -0.4233
13905TIP3    H163130   2.137   5.459  12.879  0.1243 -1.1931 -0.5198
13905TIP3    H263131   1.999   5.419  12.928  0.0617 -0.1847  0.1236
13906TIP3   OH263132   1.529   4.411   1.076  0.0640  0.0901  0.4344
13906TIP3    H163133   1.506   4.418   1.168 -2.1690 -0.8171 -0.0307
13906TIP3    H263134   1.578   4.329   1.070 -0.2240 -0.1037  0.7242
13907TIP3   OH263135   2.945   5.149   4.149  0.2844  0.8603 -0.1761
13907TIP3    H163136   2.890   5.092   4.203  0.2111  1.2934  0.2109
13907TIP3    H263137   2.993   5.202   4.212 -0.2172  1.7564 -0.5452
13908TIP3   OH263138   6.219   6.657   4.485 -0.0272 -0.1869 -0.8946
13908TIP3    H163139   6.231   6.687   4.395 -1.2497  0.1236 -0.9592
13908TIP3    H263140   6.147   6.710   4.519  1.3199  0.6706  0.7239
13909TIP3   OH263141   3.642   2.991   6.397 -0.9181  0.2354  0.2441
13909TIP3    H163142   3.641   3.065   6.337  1.7844  0.3354  0.2705
13909TIP3    H263143   3.652   2.914   6.341 -1.5019  0.0629  0.3689
13910TIP3   OH263144   3.301   0.045   1.646 -0.3511 -0.2841 -0.0709
13910TIP3    H163145   3.371   0.017   1.588  0.4305  0.6432  0.4080
13910TIP3    H263146   3.345   0.089   1.718 -1.2621 -2.0583  1.6204
13911TIP3   OH263147   5.419   4.678   5.335 -0.0695  0.6438  0.1504
13911TIP3    H163148   5.411   4.768   5.366 -1.8504  0.3526  0.6292
13911TIP3    H263149   5.370   4.626   5.400  0.3014 -0.5767 -0.5267
13912TIP3   OH263150   0.479   1.792   2.716  0.1957 -0.0412 -0.0913
13912TIP3    H163151   0.428   1.719   2.750 -1.1386  0.6001 -0.6497
13912TIP3    H263152   0.419   1.837   2.657  1.4374  0.7236 -0.7879
13913TIP3   OH263153   4.731   3.299  11.836  0.1369  0.1827  0.6335
13913TIP3    H163154   4.692   3.217  11.808 -0.1881  0.2265  0.9578
13913TIP3    H263155   4.671   3.333  11.902  0.2612  0.6872  0.4890
13914TIP3   OH263156   6.260   0.037   4.250  0.1485 -1.1687  0.6436
13914TIP3    H163157   6.202   0.088   4.193  0.5368  0.4995  1.7013
13914TIP3    H263158   6.286  -0.038   4.197  0.8156  0.5461 -1.5183
13915TIP3   OH263159   1.001   3.574   1.794 -0.0388  0.0101 -0.2669
13915TIP3    H163160   1.066   3.608   1.732 -0.3415  0.9995 -0.0511
13915TIP3    H263161   0.984   3.647   1.853 -0.1327 -0.7618  0.6835
13916TIP3   OH263162   2.228   5.352   2.647  0.2960 -0.0091  0.6643
13916TIP3    H163163   2.276   5.335   2.566  0.0197  1.2615  0.2165
13916TIP3    H263164   2.267   5.433   2.681 -0.6456  0.3215  0.9702
13917TIP3   OH263165   1.554   5.279  15.450 -0.0447 -0.3855  0.0293
13917TIP3    H163166   1.561   5.348  15.515 -0.9499  0.9316 -1.2393
13917TIP3    H263167   1.642   5.243  15.443  0.0956 -0.4625  1.8578
13918TIP3   OH263168   5.323   4.298   5.336  0.1458  0.2721 -0.3022
13918TIP3    H163169   5.244   4.262   5.294  0.2462  0.9642 -1.0940
13918TIP3    H263170   5.395   4.253   5.292  0.2413  0.7578 -0.6419
13919TIP3   OH263171   1.322   1.576  16.518  0.6559  0.2031  0.4266
13919TIP3    H163172   1.366   1.659  16.537  1.7164 -0.4156  0.7041
13919TIP3    H263173   1.232   1.590  16.549  1.2564  0.6843  2.0249
13920TIP3   OH263174   1.182   2.621  12.942 -0.0469 -0.4496 -0.9908
13920TIP3    H163175   1.118   2.671  12.891 -0.4771  0.4368  0.3810
13920TIP3    H263176   1.221   2.686  13.001  2.6271 -0.8241 -2.2671
13921TIP3   OH263177   0.187   4.441   4.197  0.2668  0.0284 -0.5996
13921TIP3    H163178   0.218   4.383   4.128 -0.6770 -0.0281 -0.9765
13921TIP3    H263179   0.267   4.483   4.230  0.6621  0.5076 -2.1205
13922TIP3   OH263180   3.480   0.893  12.579  0.2656  0.0234 -0.0016
13922TIP3    H163181   3.432   0.872  12.659  0.6922 -0.1956  0.2034
13922TIP3    H263182   3.413   0.903  12.512 -0.0375 -0.7653  0.1741
13923TIP3   OH263183   5.595   1.011   4.530  0.1149 -0.4361 -0.3653
13923TIP3    H163184   5.683   0.976   4.540 -0.1696 -0.7392  1.2132
13923TIP3    H263185   5.564   0.974   4.448  0.6470 -2.1206  0.1693
13924TIP3   OH263186   4.477   1.273  16.539 -0.4824  0.0579  0.0518
13924TIP3    H163187   4.402   1.327  16.565 -0.2268  1.0436 -1.2013
13924TIP3    H263188   4.552   1.313  16.583 -0.0652  1.6639 -2.0409
13925TIP3   OH263189   0.997   4.391  16.494  0.5555  0.8800 -1.0968
13925TIP3    H163190   0.922   4.357  16.446  2.8726 -2.9554 -2.2298
13925TIP3    H263191   0.977   4.374  16.586 -0.3008  0.6186 -1.3329
13926TIP3   OH263192   1.403   6.731  13.099 -1.0547  0.3070 -0.0524
13926TIP3    H163193   1.452   6.670  13.155 -1.5956  0.3206  0.4419
13926TIP3    H263194   1.334   6.765  13.156 -1.0037  1.0745 -0.4447
13927TIP3   OH263195   3.597   1.261  14.070 -0.3949  0.4620  0.3684
13927TIP3    H163196   3.643   1.342  14.089 -1.5780  1.3736 -0.5825
13927TIP3    H263197   3.633   1.197  14.131  3.6933  0.5746 -1.8029
13928TIP3   OH263198   0.718   3.808   4.728  0.3250  0.1994  0.1113
13928TIP3    H163199   0.657   3.808   4.801  1.5766  0.7188  1.1720
13928TIP3    H263200   0.711   3.721   4.690 -1.3308  0.3752  0.0049
13929TIP3   OH263201   0.881   5.933   4.413  0.2422 -0.1328 -0.2144
13929TIP3    H163202   0.922   6.016   4.436 -0.6611 -0.0028  0.9805
13929TIP3    H263203   0.825   5.913   4.488 -1.0378 -0.8292 -1.3389
13930TIP3   OH263204   1.964   5.385   4.855 -0.2168 -0.7202 -0.1234
13930TIP3    H163205   2.047   5.337   4.855  0.5514  0.5377  1.5375
13930TIP3    H263206   1.980   5.459   4.914 -1.9815  0.4887 -1.1158
13931TIP3   OH263207   2.476   1.631   0.308  0.4759  0.0970 -0.0023
13931TIP3    H163208   2.561   1.655   0.346  0.5316  0.3671 -0.2981
13931TIP3    H263209   2.451   1.551   0.355  0.4115  0.5894  0.8079
13932TIP3   OH263210   2.904   6.739   2.206  0.1384  0.1885 -0.1204
13932TIP3    H163211   2.885   6.812   2.264 -0.0246 -0.1054  0.1984
13932TIP3    H263212   2.957   6.679   2.259  0.6774  0.2920 -0.5284
13933TIP3   OH263213   2.431   1.415   2.871  0.3741  0.4597  0.0413
13933TIP3    H163214   2.370   1.478   2.834  0.2547  0.2297 -0.1538
13933TIP3    H263215   2.517   1.444   2.841  0.1823 -0.3641 -1.3466
13934TIP3   OH263216   3.892   3.182   1.899 -0.5716  0.0357  0.5077
13934TIP3    H163217   3.954   3.109   1.900 -0.6930 -0.0715  2.3573
13934TIP3    H263218   3.940   3.255   1.861  0.1386 -0.5054  0.3622
13935TIP3   OH263219   1.465   1.000   2.108 -0.0230 -0.4957  0.0039
13935TIP3    H163220   1.411   0.966   2.179 -2.1684 -2.7064 -2.5955
13935TIP3    H263221   1.489   0.923   2.056  1.6272  1.0446 -1.6195
13936TIP3   OH263222   4.541   0.729   5.004 -0.6348 -0.8525  0.7208
13936TIP3    H163223   4.591   0.810   5.015 -1.2901 -0.3546  0.0982
13936TIP3    H263224   4.477   0.750   4.936 -1.3919 -1.6224  1.1914
13937TIP3   OH263225   4.271   2.659  12.939 -0.7522  0.1805 -0.2967
13937TIP3    H163226   4.329   2.731  12.963 -1.7323  0.9688 -0.3041
13937TIP3    H263227   4.239   2.625  13.023 -1.0795  0.3874 -0.3419
13938TIP3   OH263228   0.544   2.163  12.628  0.1495  0.1804 -0.6809
13938TIP3    H163229   0.479   2.201  12.568 -0.8179 -0.1565  0.1272
13938TIP3    H263230   0.627   2.201  12.601 -0.7331  2.5361 -0.1933
13939TIP3   OH263231   2.847   1.866  17.022  0.2664 -0.1981  0.0318
13939TIP3    H163232   2.929   1.829  17.053 -0.5417 -0.2871  2.1026
13939TIP3    H263233   2.809   1.909  17.098 -0.9986  0.9625 -1.2260
13940TIP3   OH263234   0.405   2.853  15.295  0.3331 -0.1682  0.2205
13940TIP3    H163235   0.323   2.804  15.304  0.1236  0.0101 -0.7153
13940TIP3    H263236   0.379   2.945  15.300  0.3347 -0.0827 -1.1021
13941TIP3   OH263237   3.536   3.064  11.631  0.0726  0.0497 -0.4695
13941TIP3    H163238   3.455   3.013  11.634 -0.2460  0.6346  1.3002
13941TIP3    H263239   3.512   3.150  11.667  1.7273 -0.1147  1.0761
13942TIP3   OH263240   4.548   5.178  12.350  0.3877 -0.8127  0.3735
13942TIP3    H163241   4.527   5.270  12.359  1.5038 -0.6564  1.6810
13942TIP3    H263242   4.471   5.132  12.382  0.0058 -0.3187  0.1524
13943TIP3   OH263243   4.351   3.153  16.073 -0.2648 -0.4682 -0.1634
13943TIP3    H163244   4.427   3.179  16.022  0.1394 -0.1495  0.5852
13943TIP3    H263245   4.387   3.123  16.157 -1.0042  0.5777  0.5434
13944TIP3   OH263246   3.150   6.251   4.353  0.0202  0.0757  0.8010
13944TIP3    H163247   3.150   6.159   4.326  1.5441  0.2729  0.0314
13944TIP3    H263248   3.242   6.277   4.348 -0.5568  2.0231 -0.3356
13945TIP3   OH263249   0.598   1.767   1.782  0.0776 -0.0926 -0.0490
13945TIP3    H163250   0.612   1.861   1.767 -0.2243 -0.1606 -0.8009
13945TIP3    H263251   0.657   1.746   1.854  1.9537  0.1822 -1.4480
13946TIP3   OH263252   4.844   5.464  16.585  0.5585 -0.0437  0.2392
13946TIP3    H163253   4.789   5.493  16.658 -4.8303 -3.6760 -2.0551
13946TIP3    H263254   4.883   5.545  16.551 -3.6829  2.8309  1.8022
13947TIP3   OH263255   5.420   6.046   4.777  0.1383  0.4931  0.1171
13947TIP3    H163256   5.508   6.078   4.755  0.9894 -0.4440  2.0276
13947TIP3    H263257   5.371   6.125   4.799  1.1595  0.8361  1.2262
13948TIP3   OH263258   0.308   2.095   0.492  0.0734  0.5677  0.2224
13948TIP3    H163259   0.305   2.052   0.577  1.0463 -1.0274 -0.5232
13948TIP3    H263260   0.399   2.120   0.480  0.0885  0.1196 -0.6622
13949TIP3   OH263261   1.872   1.669  12.804  0.1464  0.5471  0.2099
13949TIP3    H163262   1.867   1.659  12.709 -1.3127  2.5111  0.0352
13949TIP3    H263263   1.783   1.648  12.834  1.3096 -2.7924  1.4563
13950TIP3   OH263264   5.276   2.894  14.440  0.1988  0.2667 -0.0667
13950TIP3    H163265   5.371   2.904  14.434  0.2759  0.0503  0.7838
13950TIP3    H263266   5.260   2.859  14.528 -0.6235 -0.2351 -0.4009
13951TIP3   OH263267   5.331   1.521   3.390 -0.0317  0.1427 -0.4040
13951TIP3    H163268   5.359   1.468   3.315  2.0815 -0.0133  0.4707
13951TIP3    H263269   5.385   1.600   3.386  0.6964 -0.2281  1.4046
13952TIP3   OH263270   2.302   2.784   2.677  0.1299 -0.0042  0.6209
13952TIP3    H163271   2.312   2.852   2.744  2.0980 -1.0118  1.3724
13952TIP3    H263272   2.367   2.718   2.699 -1.6629 -2.1157 -0.1672
13953TIP3   OH263273   3.979   3.708  17.217  0.0563 -0.3745  0.4004
13953TIP3    H163274   3.986   3.615  17.196 -0.8464 -0.2370 -0.5491
13953TIP3    H263275   3.886   3.721  17.236  0.3124  0.1806  1.3143
13954TIP3   OH263276   4.768   6.187   2.715  0.2052 -0.2195 -0.1084
13954TIP3    H163277   4.796   6.098   2.736  1.8490 -0.0731 -1.5930
13954TIP3    H263278   4.844   6.241   2.734 -0.8051  0.8994  0.8382
13955TIP3   OH263279   1.008   3.087   3.824  0.5100 -0.5254  0.4577
13955TIP3    H163280   1.076   3.068   3.889  0.5047  0.0538  0.6439
13955TIP3    H263281   0.968   3.003   3.805  0.3623 -0.6695  1.3881
13956TIP3   OH263282   1.732   6.386   1.151 -0.5247 -0.1017  0.0819
13956TIP3    H163283   1.738   6.365   1.058  0.0113  1.3665 -0.2322
13956TIP3    H263284   1.734   6.482   1.154  1.2246 -0.1579  1.7112
13957TIP3   OH263285   1.369   2.882  16.871  0.1139 -0.7122  0.2500
13957TIP3    H163286   1.341   2.973  16.877 -0.5737 -0.9136  0.1503
13957TIP3    H263287   1.448   2.878  16.924 -1.8506 -0.8558  3.3096
13958TIP3   OH263288   2.779   2.227   0.951 -0.7498 -0.1316  0.4109
13958TIP3    H163289   2.863   2.254   0.989 -1.3773  0.6882  1.2108
13958TIP3    H263290   2.726   2.307   0.949 -0.8919 -0.2479 -1.7729
13959TIP3   OH263291   4.817   1.657  14.707 -0.9404  0.1255 -0.3402
13959TIP3    H163292   4.778   1.715  14.773  0.6812  0.3281  0.4609
13959TIP3    H263293   4.749   1.592  14.690 -1.0389 -0.5404  2.2909
13960TIP3   OH263294   0.097   1.039   2.722 -0.0070  0.6022 -0.0137
13960TIP3    H163295   0.038   1.114   2.725 -1.8459 -0.8713  2.3191
13960TIP3    H263296   0.082   1.000   2.636 -0.8767  1.4343 -0.2480
13961TIP3   OH263297   6.702   1.295  15.225 -0.0344 -0.4508  0.3686
13961TIP3    H163298   6.691   1.385  15.193 -2.8924 -0.1261  2.1327
13961TIP3    H263299   6.667   1.296  15.314 -0.2923 -3.3700  0.3536
13962TIP3   OH263300   1.743   0.510   4.735 -0.0093 -0.2687  0.7406
13962TIP3    H163301   1.748   0.602   4.708  0.2069 -0.2437  0.8628
13962TIP3    H263302   1.807   0.465   4.680 -0.3964 -0.4117  0.4082
13963TIP3   OH263303   2.180   0.046   0.350  0.1668 -0.5877 -0.2469
13963TIP3    H163304   2.200   0.128   0.395 -0.8275 -0.0635 -0.7613
13963TIP3    H263305   2.266   0.008   0.330  0.6443 -0.6562  1.7455
13964TIP3   OH263306   3.189   4.223  15.102  0.2975  0.3468 -0.2221
13964TIP3    H163307   3.151   4.155  15.159  1.9117 -0.5793 -0.2221
13964TIP3    H263308   3.121   4.242  15.038 -0.3850 -0.8696  0.1352
13965TIP3   OH263309   6.240   4.338  13.599 -0.6721 -0.1052 -0.2167
13965TIP3    H163310   6.277   4.250  13.590  1.6357  0.7543  0.4224
13965TIP3    H263311   6.197   4.355  13.515 -0.0830 -1.3792 -0.7828
13966TIP3   OH263312   1.695   4.474  10.677  0.0263 -0.0138  0.1568
13966TIP3    H163313   1.646   4.441  10.753 -1.1518 -1.0905 -1.0539
13966TIP3    H263314   1.723   4.395  10.632  1.0955  0.6287 -0.3056
13967TIP3   OH263315   2.119   0.710   3.440  0.3431  0.0125  0.6082
13967TIP3    H163316   2.032   0.696   3.476  0.7212 -1.2913  1.0371
13967TIP3    H263317   2.159   0.774   3.500  0.1586 -0.4196  1.2018
13968TIP3   OH263318   6.234   3.903   6.262 -0.3202 -0.6102  0.0749
13968TIP3    H163319   6.300   3.973   6.258  1.4661 -2.2854 -0.2828
13968TIP3    H263320   6.150   3.950   6.264  0.9047  1.6226  2.4730
13969TIP3   OH263321   2.389   1.194   3.540  0.3563  0.1604  0.6282
13969TIP3    H163322   2.364   1.151   3.622  1.9531  0.0520  1.0731
13969TIP3    H263323   2.307   1.203   3.492 -0.2154 -2.1111  1.1201
13970TIP3   OH263324   5.007   1.640  14.008  0.2644 -0.3573 -0.1018
13970TIP3    H163325   5.035   1.549  14.018  1.8716  0.2076  0.6408
13970TIP3    H263326   4.959   1.659  14.088  0.6507 -0.2982  0.1171
13971TIP3   OH263327   0.428   6.595  15.070  0.2775  0.4967 -0.5149
13971TIP3    H163328   0.364   6.548  15.124  0.6824  0.6500  0.1036
13971TIP3    H263329   0.424   6.686  15.102  0.3358  0.6427 -0.9164
13972TIP3   OH263330   0.340   4.237   2.012 -0.6302 -0.9314  0.5665
13972TIP3    H163331   0.390   4.297   1.955 -0.0293 -2.4442 -0.5253
13972TIP3    H263332   0.250   4.245   1.980 -0.3908 -1.3378 -0.2204
13973TIP3   OH263333   2.951   0.801   1.036  0.2135 -0.4406  0.2107
13973TIP3    H163334   2.940   0.887   1.076  2.9375  0.1744 -0.3059
13973TIP3    H263335   3.015   0.757   1.092  0.5168 -1.3013 -0.7948
13974TIP3   OH263336   2.233   2.443  12.420 -0.4265  0.2871  0.2997
13974TIP3    H163337   2.218   2.350  12.436  0.8688  0.6117  3.6285
13974TIP3    H263338   2.146   2.478  12.399 -0.9368 -1.6175 -0.8968
13975TIP3   OH263339   4.533   0.420   6.699  0.6835 -0.4263  0.2721
13975TIP3    H163340   4.553   0.343   6.752 -0.9796 -1.2327 -0.2584
13975TIP3    H263341   4.445   0.405   6.666  0.6004  1.3970 -0.3960
13976TIP3   OH263342   3.069   1.227  11.639 -0.1816  0.2967 -0.0044
13976TIP3    H163343   3.089   1.266  11.724  1.1351  1.5184 -0.8395
13976TIP3    H263344   3.149   1.240  11.588 -0.1639 -2.3812 -0.7323
13977TIP3   OH263345   6.763   4.591  16.132 -0.2686 -0.2270  0.2540
13977TIP3    H163346   6.712   4.647  16.190 -0.0174 -1.5323  1.7569
13977TIP3    H263347   6.700   4.524  16.103 -0.2682  0.1348 -0.6049
13978TIP3   OH263348   4.359   4.132   5.640  0.7076 -0.7000 -0.4640
13978TIP3    H163349   4.314   4.165   5.562 -0.4440  1.0243  0.8771
13978TIP3    H263350   4.441   4.183   5.643 -0.3138  0.9355  0.6934
13979TIP3   OH263351   2.753   3.096  17.118 -0.0082  0.2974 -0.2802
13979TIP3    H163352   2.814   3.049  17.062 -0.9652 -0.9367 -0.3211
13979TIP3    H263353   2.770   3.189  17.101  3.6733  0.0876  1.7023
13980TIP3   OH263354   2.403   6.651   1.495 -0.0274  0.2002 -0.2781
13980TIP3    H163355   2.437   6.739   1.478  1.1501  0.0940  1.4179
13980TIP3    H263356   2.321   6.666   1.542 -0.2338  0.3981 -0.6957
13981TIP3   OH263357   3.841   6.504  16.888 -1.0985 -0.3873 -0.5085
13981TIP3    H163358   3.916   6.560  16.905 -0.5031 -1.7229  1.4689
13981TIP3    H263359   3.841   6.491  16.794 -1.5975  3.3693 -1.0881
13982TIP3   OH263360   4.708   6.086  10.491 -0.5084 -0.0952 -0.1705
13982TIP3    H163361   4.718   6.038  10.573  1.1716  2.3122  1.1014
13982TIP3    H263362   4.663   6.025  10.432  2.5939 -3.6740  0.9785
13983TIP3   OH263363   3.108   1.084   5.675 -0.5656  0.2777 -0.1370
13983TIP3    H163364   3.139   1.078   5.766 -0.2307  1.7359 -0.1401
13983TIP3    H263365   3.031   1.027   5.672  2.0709 -3.4937 -0.1264
13984TIP3   OH263366   0.372   6.670   1.056 -0.0380  0.1544  0.5431
13984TIP3    H163367   0.340   6.620   0.982 -1.4110  1.1000  0.4684
13984TIP3    H263368   0.311   6.650   1.127  1.1226 -0.5586  1.3504
13985TIP3   OH263369   3.659   1.956   5.134  0.7431  0.3638  0.0123
13985TIP3    H163370   3.571   1.925   5.113  1.1874 -0.8591 -0.0917
13985TIP3    H263371   3.656   2.050   5.119 -0.5666  0.3339  0.0677
13986TIP3   OH263372   0.494   3.017   4.425  0.0270  0.9402 -0.4214
13986TIP3    H163373   0.505   2.922   4.432 -2.8842  0.5830 -0.0129
13986TIP3    H263374   0.429   3.029   4.356  0.7764  2.6769 -0.8550
13987TIP3   OH263375   1.828   4.462  12.681 -0.6118  0.1685 -0.0466
13987TIP3    H163376   1.903   4.458  12.741  0.7626  0.1446 -1.7239
13987TIP3    H263377   1.765   4.518  12.725  0.6609  0.7043  1.1181
13988TIP3   OH263378   1.883   6.036   5.759 -0.1449 -0.2127 -0.1050
13988TIP3    H163379   1.802   5.993   5.785 -0.1939  0.2980  0.6206
13988TIP3    H263380   1.887   6.115   5.814  0.7338 -0.1281 -0.2794
13989TIP3   OH263381   2.804   6.066  12.108  0.8235 -0.5049 -0.0047
13989TIP3    H163382   2.750   6.093  12.183 -0.4383 -1.5734 -0.4980
13989TIP3    H263383   2.887   6.039  12.147  0.6228  0.1466  0.8897
13990TIP3   OH263384   6.030   4.688  14.680  0.7394 -0.4820  0.2188
13990TIP3    H163385   5.975   4.646  14.614  0.9715  1.2156 -1.1009
13990TIP3    H263386   5.968   4.722  14.745  0.3943 -0.6464 -0.0227
13991TIP3   OH263387   4.784   4.575   3.443  0.9742  0.7986 -0.4512
13991TIP3    H163388   4.844   4.535   3.506 -0.8375  0.5335  1.1138
13991TIP3    H263389   4.710   4.515   3.438  0.3322  1.6686 -1.5484
13992TIP3   OH263390   1.193   5.628   5.388  0.5381 -0.1987 -0.3462
13992TIP3    H163391   1.118   5.576   5.359  1.8914 -2.1515 -0.4570
13992TIP3    H263392   1.203   5.696   5.322 -0.1943 -0.8706 -1.1615
13993TIP3   OH263393   3.571   3.667  11.746  0.4387  0.2142  0.2941
13993TIP3    H163394   3.642   3.727  11.769  0.4844  0.1382  0.3551
13993TIP3    H263395   3.586   3.646  11.654 -1.0881  2.3413 -0.4650
13994TIP3   OH263396   5.921   2.871   0.643  0.2064  0.1669  0.2591
13994TIP3    H163397   5.882   2.828   0.720 -0.9599  1.3231  0.3343
13994TIP3    H263398   5.882   2.825   0.569 -1.5943  1.5210  0.3300
13995TIP3   OH263399   4.591   3.880   3.725  0.5310  0.1013 -0.1533
13995TIP3    H163400   4.520   3.870   3.787  0.8281 -0.4908  0.0908
13995TIP3    H263401   4.563   3.833   3.647 -0.6678  2.4216 -1.1741
13996TIP3   OH263402   5.127   6.458  11.709  0.1622 -0.5552  0.3927
13996TIP3    H163403   5.143   6.453  11.615  0.7841 -1.0442  0.5221
13996TIP3    H263404   5.210   6.488  11.746  0.4296 -1.9482  0.9479
13997TIP3   OH263405   3.589   5.727  13.970  0.3352 -0.0041  0.1686
13997TIP3    H163406   3.526   5.796  13.992 -1.0237 -1.3893  0.7219
13997TIP3    H263407   3.569   5.656  14.032 -1.2587 -2.6378 -3.2104
13998TIP3   OH263408   6.571   3.854   1.358 -0.3598 -0.5039  0.1844
13998TIP3    H163409   6.644   3.885   1.410  0.0513 -1.5807  0.2711
13998TIP3    H263410   6.547   3.928   1.302  0.1750  0.1562  0.8345
13999TIP3   OH263411   1.810   6.220  15.222  0.3024  0.5900  0.8424
13999TIP3    H163412   1.756   6.243  15.298  0.7382  2.2177  0.6861
13999TIP3    H263413   1.748   6.201  15.153 -0.0990  2.6274  0.6145
14000TIP3   OH263414   5.912   1.646   1.888 -0.0876  0.0242 -0.3286
14000TIP3    H163415   5.931   1.568   1.836 -2.0242 -0.7228  0.0512
14000TIP3    H263416   5.833   1.624   1.937 -1.5935  2.8021 -1.4020
14001TIP3   OH263417   1.250   2.391  12.822  0.6700 -0.0314  0.2986
14001TIP3    H163418   1.225   2.477  12.854  1.8421  0.8159 -1.0187
14001TIP3    H263419   1.286   2.407  12.734  0.5708 -1.8896 -0.1082
14002TIP3   OH263420   1.908   6.437   3.805  0.0720 -0.8653  0.1090
14002TIP3    H163421   1.876   6.391   3.727 -1.4748  1.1253 -0.4617
14002TIP3    H263422   1.943   6.519   3.772 -2.0933  0.7205  1.6495
14003TIP3   OH263423   5.130   6.731   1.180  0.0119 -0.0129  0.1252
14003TIP3    H163424   5.173   6.787   1.114  1.3501 -0.6992  0.3999
14003TIP3    H263425   5.191   6.658   1.192 -0.3812 -0.0541  1.8961
14004TIP3   OH263426   6.255   2.672  11.993 -1.0997  0.2877  0.2020
14004TIP3    H163427   6.180   2.701  11.941 -0.3404  1.1944 -0.4086
14004TIP3    H263428   6.288   2.595  11.948 -1.4012  0.1520  0.2190
14005TIP3   OH263429   2.610   1.992   3.432  0.2047 -0.1786  0.0500
14005TIP3    H163430   2.542   1.926   3.432 -0.7765  0.8223  0.7811
14005TIP3    H263431   2.568   2.069   3.393  1.7052 -0.3456 -2.0159
14006TIP3   OH263432   2.209   2.039  12.393  0.3223 -0.0386  0.3985
14006TIP3    H163433   2.261   2.010  12.318 -0.9949 -2.0340  0.1949
14006TIP3    H263434   2.274   2.071  12.456  1.5372  0.4854 -1.0802
14007TIP3   OH263435   3.956   0.356   2.907  0.2247 -0.3656  0.3691
14007TIP3    H163436   3.983   0.289   2.969  1.0476  1.4092  1.9617
14007TIP3    H263437   3.901   0.310   2.844 -0.6145 -2.1940  2.4045
14008TIP3   OH263438   2.612   3.936   3.630  0.0624  0.7143  0.6775
14008TIP3    H163439   2.547   3.988   3.583  0.5754  1.5097  0.8413
14008TIP3    H263440   2.619   3.978   3.716  0.8935  0.7187  0.6073
14009TIP3   OH263441   4.123   1.126   1.603  0.6970 -0.0517 -0.3068
14009TIP3    H163442   4.181   1.195   1.637  0.4738  0.2730 -0.5788
14009TIP3    H263443   4.137   1.052   1.663 -0.7562  0.9893  1.3622
14010TIP3   OH263444   3.487   1.135  12.286  0.2160 -0.0109  0.5277
14010TIP3    H163445   3.437   1.137  12.367  0.1027  2.3500  0.4515
14010TIP3    H263446   3.453   1.059  12.238 -0.2973 -0.9248  2.3020
14011TIP3   OH263447   4.651   3.874   4.200  0.6261 -0.1540 -0.1033
14011TIP3    H163448   4.560   3.901   4.208  0.1380 -1.8335 -0.0226
14011TIP3    H263449   4.687   3.931   4.132 -0.7137 -0.1051 -0.7667
14012TIP3   OH263450   6.687   6.178  14.455 -0.5029 -0.5620 -0.3084
14012TIP3    H163451   6.646   6.178  14.369 -0.7666 -0.7905 -0.1809
14012TIP3    H263452   6.615   6.194  14.517 -0.5816 -1.9925 -0.0025
14013TIP3   OH263453   5.154   4.402   1.253  0.0202  0.2586  0.1979
14013TIP3    H163454   5.113   4.404   1.166  1.5658  2.9653 -0.5142
14013TIP3    H263455   5.202   4.319   1.255  0.1939  0.2879 -1.6470
14014TIP3   OH263456   3.119   4.566   5.141  0.1698 -0.0970 -0.1993
14014TIP3    H163457   3.200   4.605   5.172  0.3693  0.0383 -0.8806
14014TIP3    H263458   3.122   4.576   5.045 -1.4149  1.3991 -0.1138
14015TIP3   OH263459   5.855   2.341   1.171  0.2054  0.5834 -0.1196
14015TIP3    H163460   5.889   2.408   1.112  1.2760  1.2703  1.2716
14015TIP3    H263461   5.762   2.364   1.182  0.6848  2.1484  0.7754
14016TIP3   OH263462   5.861   5.707  11.939 -0.0037 -0.1391 -0.6382
14016TIP3    H163463   5.870   5.654  11.860  0.5856 -0.7600 -0.1571
14016TIP3    H263464   5.929   5.774  11.932  0.2775 -0.4120 -0.4786
14017TIP3   OH263465   6.692   0.015   3.287  0.4035 -0.6771 -0.6519
14017TIP3    H163466   6.780   0.018   3.249  0.9691 -1.9510  0.5181
14017TIP3    H263467   6.700  -0.045   3.361 -0.9710  0.7284  0.6905
14018TIP3   OH263468   0.194   5.108   2.041  0.7692 -0.0801 -0.2319
14018TIP3    H163469   0.109   5.136   2.075  1.1867 -0.9482  1.5796
14018TIP3    H263470   0.183   5.015   2.020  0.5077  0.4523 -2.5611
14019TIP3   OH263471   0.714   1.832   0.533  0.3281 -0.4429 -0.3247
14019TIP3    H163472   0.658   1.807   0.460 -0.3654  1.4591 -0.4620
14019TIP3    H263473   0.794   1.779   0.522 -0.6066 -1.6813 -1.2600
14020TIP3   OH263474   1.572   6.028  16.134  0.3001  1.1013  0.0809
14020TIP3    H163475   1.533   5.964  16.075  1.3320  0.1289  0.4267
14020TIP3    H263476   1.559   6.112  16.091  1.3073  0.3714 -1.7030
14021TIP3   OH263477   3.604   5.777  11.242  0.1141  0.1077 -0.1861
14021TIP3    H163478   3.624   5.722  11.318  0.5386  0.0242 -0.3555
14021TIP3    H263479   3.615   5.719  11.166  1.9236  0.7711 -0.4505
14022TIP3   OH263480   5.936   0.449   5.733 -0.3014  0.4041 -0.6783
14022TIP3    H163481   5.871   0.442   5.802 -0.5789  1.2600 -0.8507
14022TIP3    H263482   5.976   0.535   5.746  0.6959 -0.0478 -0.6587
14023TIP3   OH263483   3.185   2.668  15.342 -0.2021 -0.0510  0.3735
14023TIP3    H163484   3.226   2.716  15.269 -0.1812 -0.7705 -0.0916
14023TIP3    H263485   3.143   2.593  15.300 -0.3559 -0.3644  1.0883
14024TIP3   OH263486   0.757   1.316  14.132 -0.4307 -0.7004  0.4387
14024TIP3    H163487   0.818   1.389  14.133 -0.1520 -0.9272  0.2974
14024TIP3    H263488   0.682   1.345  14.183 -0.0481 -0.5524  0.9091
14025TIP3   OH263489   2.214   3.727   4.112  0.2352  0.2744  0.0582
14025TIP3    H163490   2.304   3.696   4.119  0.9286  2.1528 -0.0453
14025TIP3    H263491   2.217   3.816   4.147 -1.7089  0.1551  0.5752
14026TIP3   OH263492   4.622   3.083   0.490  0.5163 -0.5276 -0.4723
14026TIP3    H163493   4.647   3.086   0.398 -0.4127  3.2098 -0.6921
14026TIP3    H263494   4.546   3.024   0.492 -0.3316  0.4417 -2.3765
14027TIP3   OH263495   0.991   0.787  14.949 -0.1975  0.5797  0.3412
14027TIP3    H163496   0.931   0.779  14.875  0.4831 -1.5193 -0.0045
14027TIP3    H263497   1.035   0.703  14.954  1.1987  1.3689  1.9234
14028TIP3   OH263498   4.233   5.996   3.039 -0.1547  0.0675 -0.5505
14028TIP3    H163499   4.260   6.030   3.124 -0.1362 -0.6212 -0.2791
14028TIP3    H263500   4.232   5.901   3.050  0.7341 -0.0650 -1.5934
14029TIP3   OH263501   4.930   3.641   2.869 -0.5230 -0.6304  0.4504
14029TIP3    H163502   4.881   3.710   2.914 -1.3908 -0.7637 -0.2722
14029TIP3    H263503   4.892   3.559   2.902 -1.0207 -0.7313 -0.3661
14030TIP3   OH263504   4.117   1.275  11.236  0.9220 -0.1647  0.4601
14030TIP3    H163505   4.124   1.184  11.263  0.6242 -0.3140  0.0392
14030TIP3    H263506   4.199   1.316  11.265 -0.0581  0.0753  3.1190
14031TIP3   OH263507   1.897   4.311  12.181 -0.6657  0.1091 -0.3194
14031TIP3    H163508   1.919   4.218  12.186  1.1779  0.5645  0.6608
14031TIP3    H263509   1.832   4.324  12.250 -0.4063 -0.3300  0.0143
14032TIP3   OH263510   6.255   5.012   0.355 -0.6905  0.0783  0.0931
14032TIP3    H163511   6.276   5.025   0.263 -0.2941 -0.7942  0.0565
14032TIP3    H263512   6.319   5.065   0.402 -1.3135  1.0627 -0.1408
14033TIP3   OH263513   2.295   0.073  13.879  0.1532 -0.3153  0.1113
14033TIP3    H163514   2.381   0.116  13.884  0.5590 -1.1259  0.2825
14033TIP3    H263515   2.258   0.084  13.967  0.9070 -1.6132  0.6102
14034TIP3   OH263516   5.444   5.003   1.480 -0.4325 -0.1706  0.1798
14034TIP3    H163517   5.469   4.911   1.488  1.9820  0.6289  2.6021
14034TIP3    H263518   5.473   5.029   1.393  0.7030 -1.2023  0.2416
14035TIP3   OH263519   0.780   2.473   0.042  0.1616  0.4916 -0.7146
14035TIP3    H163520   0.740   2.481   0.128  1.2769  3.2533 -0.3880
14035TIP3    H263521   0.714   2.508  -0.018 -1.6155 -3.7285 -1.3430
14036TIP3   OH263522   6.603   0.686   3.955 -0.3512  0.4599 -0.3071
14036TIP3    H163523   6.644   0.746   4.018 -2.7548  1.1574  0.6597
14036TIP3    H263524   6.578   0.741   3.881 -1.6786  0.4766  0.1485
14037TIP3   OH263525   4.064   6.564   3.185  0.6042 -0.3331  0.3091
14037TIP3    H163526   4.052   6.650   3.145  0.0102 -0.4331  0.2740
14037TIP3    H263527   4.074   6.582   3.278 -2.4594 -0.4442  0.7051
14038TIP3   OH263528   3.167   3.892   6.102  0.3224 -0.7876  0.1362
14038TIP3    H163529   3.105   3.932   6.041  0.6225 -0.8742 -0.2232
14038TIP3    H263530   3.195   3.964   6.159  1.4096 -0.3274 -0.9635
14039TIP3   OH263531   0.418   3.473  16.780 -0.2088  0.2688 -0.4951
14039TIP3    H163532   0.460   3.417  16.845 -0.3149 -0.1483 -0.7810
14039TIP3    H263533   0.325   3.470  16.802 -0.4659 -1.2161 -1.6565
14040TIP3   OH263534   4.763   1.105   1.944  0.2764 -0.1436 -0.5683
14040TIP3    H163535   4.685   1.062   1.979  0.4715 -0.0947 -0.0705
14040TIP3    H263536   4.834   1.076   2.000  0.4730  0.5251 -0.4584
14041TIP3   OH263537   4.884   2.588  11.915  0.0480  0.4410 -0.3239
14041TIP3    H163538   4.910   2.502  11.882  4.7015  1.5380  0.0807
14041TIP3    H263539   4.904   2.585  12.009  1.8024  2.4118 -0.5867
14042TIP3   OH263540   1.966   3.493   3.176 -0.0222  0.2362  0.4875
14042TIP3    H163541   1.992   3.568   3.230 -1.5123 -0.1295  1.7379
14042TIP3    H263542   2.036   3.429   3.190 -0.0979  0.3705  1.5108
14043TIP3   OH263543   2.983   1.370  16.922 -0.0014 -0.0444  0.1702
14043TIP3    H163544   3.028   1.286  16.934 -1.3402 -0.7502  0.2712
14043TIP3    H263545   2.951   1.393  17.009 -0.5863  0.0308 -0.0668
14044TIP3   OH263546   4.246   1.013   5.000 -0.2434  0.2085 -0.4660
14044TIP3    H163547   4.180   0.946   4.978 -1.6588  2.2684 -2.7645
14044TIP3    H263548   4.204   1.067   5.067 -0.2979  0.6014 -0.8156
14045TIP3   OH263549   4.018   1.333   1.148  0.3185  0.2897  0.3177
14045TIP3    H163550   4.050   1.244   1.152  0.0841  0.1663 -0.6023
14045TIP3    H263551   3.990   1.352   1.238  1.3106 -0.1990  0.7377
14046TIP3   OH263552   2.224   1.864   3.811 -0.5452 -0.1139  0.2068
14046TIP3    H163553   2.314   1.846   3.838 -0.3401  0.3180 -0.1752
14046TIP3    H263554   2.170   1.822   3.877 -0.0547  1.3004  1.5376
14047TIP3   OH263555   3.375   2.969  16.413  0.2505 -0.3999  0.5319
14047TIP3    H163556   3.375   2.908  16.339  2.5789 -0.2829  0.4035
14047TIP3    H263557   3.284   2.972  16.442 -0.2745 -2.2413 -0.8570
14048TIP3   OH263558   2.290   1.727   4.440 -0.2279 -0.2049 -0.1963
14048TIP3    H163559   2.210   1.779   4.448  0.4053  1.1251 -2.0586
14048TIP3    H263560   2.261   1.636   4.449 -1.9933  0.2443 -1.1161
14049TIP3   OH263561   2.857   1.780  12.168 -0.4335 -0.1256 -0.0776
14049TIP3    H163562   2.794   1.745  12.106 -1.2645 -0.1870  0.7902
14049TIP3    H263563   2.815   1.771  12.254  1.5403 -2.0104  0.7520
14050TIP3   OH263564   5.649   4.782  13.258 -0.2586 -0.5301  0.1960
14050TIP3    H163565   5.618   4.710  13.313  0.0957 -0.3549  0.6285
14050TIP3    H263566   5.703   4.739  13.191 -0.2908 -0.6956  0.2741
14051TIP3   OH263567   5.122   4.752  12.768  0.2081  0.0788  0.2755
14051TIP3    H163568   5.211   4.720  12.749 -0.2877  0.2175 -2.4277
14051TIP3    H263569   5.068   4.673  12.767  0.4562 -0.2299  3.4650
14052TIP3   OH263570   3.529   2.278  14.026  0.0953  0.0888 -0.4272
14052TIP3    H163571   3.465   2.349  14.036  1.6611  1.6565 -1.1889
14052TIP3    H263572   3.539   2.268  13.932  0.0981 -0.9589 -0.3202
14053TIP3   OH263573   1.068   4.497   3.763 -0.4907  0.7749  0.4800
14053TIP3    H163574   1.106   4.447   3.835 -0.6606  2.0685  1.5003
14053TIP3    H263575   1.024   4.571   3.806  0.1405  2.0395 -1.0096
14054TIP3   OH263576   4.870   1.419  11.824  0.3516 -0.3850  0.6736
14054TIP3    H163577   4.834   1.343  11.780  0.6496 -0.2163  0.1365
14054TIP3    H263578   4.884   1.390  11.914  2.5583 -1.6427 -0.0592
14055TIP3   OH263579   2.761   2.657   5.538  0.4142  0.5073 -0.5670
14055TIP3    H163580   2.721   2.630   5.455  1.6755 -0.0679 -1.0074
14055TIP3    H263581   2.773   2.751   5.529  2.2102  0.1861 -1.7982
14056TIP3   OH263582   4.534   1.525  10.770  0.0755  0.2367  0.5128
14056TIP3    H163583   4.440   1.533  10.785 -0.0449 -0.9516  0.4480
14056TIP3    H263584   4.568   1.613  10.782 -0.8376  0.4029  1.9929
14057TIP3   OH263585   2.722   6.250  11.922 -0.0876 -0.2770 -0.1719
14057TIP3    H163586   2.695   6.189  11.852  0.6329 -1.3907  0.4993
14057TIP3    H263587   2.762   6.193  11.988 -0.1516  0.8507  0.8414
14058TIP3   OH263588   5.423   2.554   3.275 -0.0927 -0.2021 -0.0054
14058TIP3    H163589   5.341   2.522   3.239  0.1798 -0.7850 -0.1204
14058TIP3    H263590   5.461   2.478   3.320 -0.2093  0.3930  1.1121
14059TIP3   OH263591   6.614   1.528   1.891  0.3350  0.1385  0.2196
14059TIP3    H163592   6.546   1.506   1.955  0.4123 -0.1936  0.1893
14059TIP3    H263593   6.687   1.470   1.912 -0.0231 -0.7223 -0.8252
14060TIP3   OH263594   2.273   0.875   4.608 -0.3521  0.3939 -0.0403
14060TIP3    H163595   2.227   0.813   4.551  0.9275 -0.2829 -0.3596
14060TIP3    H263596   2.338   0.916   4.551 -0.1659  0.9250  0.5444
14061TIP3   OH263597   0.755   2.670  12.552  0.2145  0.2131  0.1332
14061TIP3    H163598   0.801   2.694  12.632 -1.4200  0.7419  0.9294
14061TIP3    H263599   0.807   2.597  12.515  0.8013 -0.2346  1.8142
14062TIP3   OH263600   5.432   3.459   2.400  0.1794  0.1687 -0.1134
14062TIP3    H163601   5.413   3.408   2.479 -2.5176  0.4466 -0.5384
14062TIP3    H263602   5.415   3.398   2.328  3.0256 -0.2125 -0.5143
14063TIP3   OH263603   3.813   5.569   0.598 -0.1757 -0.3489 -0.2023
14063TIP3    H163604   3.749   5.511   0.639 -0.3185  0.2607  0.4350
14063TIP3    H263605   3.858   5.513   0.535 -0.1173 -1.2381  0.6169
14064TIP3   OH263606   1.183   5.940  16.220  0.2337 -0.1595  0.3107
14064TIP3    H163607   1.181   6.030  16.188  0.8542  0.0961  0.9622
14064TIP3    H263608   1.132   5.891  16.157 -1.4067  0.9030  0.7784
14065TIP3   OH263609   3.732   3.679   2.866  0.2902  0.0372  0.2707
14065TIP3    H163610   3.708   3.623   2.940 -0.3603  0.8629  0.6785
14065TIP3    H263611   3.820   3.648   2.842  0.1497 -0.8242  0.8135
14066TIP3   OH263612   1.234   0.943   3.640 -0.1814 -0.2524  0.5898
14066TIP3    H163613   1.190   0.960   3.723 -0.0325 -0.0142  0.6215
14066TIP3    H263614   1.199   1.008   3.580  1.3111  1.0043  1.0432
14067TIP3   OH263615   2.777   3.251   6.377 -0.7050  0.1635  0.7796
14067TIP3    H163616   2.717   3.305   6.429  1.6940  3.1184  0.6588
14067TIP3    H263617   2.834   3.209   6.441 -0.7320  0.1097  0.7674
14068TIP3   OH263618   4.313   0.895  14.805  0.0394  0.6638  0.1935
14068TIP3    H163619   4.277   0.807  14.802  0.0849  0.6240  0.7135
14068TIP3    H263620   4.244   0.951  14.769  0.5885  0.2445 -1.5553
14069TIP3   OH263621   2.477   3.633  14.256  0.5008 -0.8160  0.1208
14069TIP3    H163622   2.549   3.686  14.292  0.2144 -0.1192 -0.3218
14069TIP3    H263623   2.437   3.689  14.189 -0.9985 -0.8689  0.9476
14070TIP3   OH263624   4.981   1.718  16.540 -0.4857 -0.2143 -0.4847
14070TIP3    H163625   4.945   1.636  16.505 -2.0022  0.8029 -1.3540
14070TIP3    H263626   4.924   1.786  16.505  0.8333  1.2341  0.1427
14071TIP3   OH263627   6.480   1.153   2.778  0.1314  0.9431 -0.5800
14071TIP3    H163628   6.566   1.190   2.794 -0.2096  2.1231 -1.4115
14071TIP3    H263629   6.450   1.123   2.864  1.5329  0.1329 -0.3514
14072TIP3   OH263630   1.502   6.162   3.672  0.0179  0.8367  0.0104
14072TIP3    H163631   1.428   6.121   3.625  0.0782  0.6143  0.1073
14072TIP3    H263632   1.528   6.235   3.616 -0.2467  0.8869 -0.0479
14073TIP3   OH263633   4.149   0.855  14.009  0.2036 -0.1018 -0.1453
14073TIP3    H163634   4.097   0.816  13.939 -2.3795  1.3141  0.8865
14073TIP3    H263635   4.188   0.933  13.970  0.1441 -0.2421 -0.4834
14074TIP3   OH263636   1.748   4.181  11.490 -0.2546  0.5765 -0.2042
14074TIP3    H163637   1.830   4.132  11.477 -1.6163 -1.6296 -0.8334
14074TIP3    H263638   1.720   4.203  11.401 -2.3068 -2.1328 -0.3062
14075TIP3   OH263639   2.694   0.920  11.096 -0.2895 -0.2732  0.1357
14075TIP3    H163640   2.695   0.834  11.138 -0.8605 -0.1411  0.4216
14075TIP3    H263641   2.763   0.915  11.030 -2.3129 -1.9925 -1.9276
14076TIP3   OH263642   4.086   6.299  11.656  0.1353 -0.6308  0.2614
14076TIP3    H163643   4.036   6.250  11.721 -0.0462  0.9713  1.3869
14076TIP3    H263644   4.023   6.359  11.617  1.3161  2.1761  2.4763
14077TIP3   OH263645   2.755   5.790   3.503 -1.0288 -0.0302 -0.0357
14077TIP3    H163646   2.801   5.853   3.446 -1.7397  1.4213  0.9730
14077TIP3    H263647   2.780   5.815   3.592 -1.1165 -1.3593  0.3793
14078TIP3   OH263648   5.088   3.150  15.789 -0.4074 -0.2366 -0.6783
14078TIP3    H163649   5.165   3.192  15.827 -0.3760  1.1459 -2.1936
14078TIP3    H263650   5.084   3.184  15.700 -0.9813 -2.7167 -1.6486
14079TIP3   OH263651   0.764   1.037   0.071 -0.3128  0.3844  0.0317
14079TIP3    H163652   0.777   1.051  -0.023  0.5578  1.3642  0.2871
14079TIP3    H263653   0.838   0.982   0.097  1.6040  3.2614  0.8600
14080TIP3   OH263654   5.365   3.995  14.689  0.3908  0.0932 -0.2300
14080TIP3    H163655   5.335   4.083  14.671  1.0769 -0.0452 -2.2236
14080TIP3    H263656   5.328   3.973  14.774 -0.5278  1.9542 -0.1375
14081TIP3   OH263657   1.130   6.490   2.271  0.6723  0.1927  0.5773
14081TIP3    H163658   1.124   6.402   2.233 -1.7804 -0.2968  2.0079
14081TIP3    H263659   1.133   6.548   2.195 -3.0270 -0.8520 -0.4922
14082TIP3   OH263660   2.775   5.307   5.528 -0.1896  0.4405 -0.2607
14082TIP3    H163661   2.826   5.252   5.469 -0.4126  0.2450 -0.2715
14082TIP3    H263662   2.757   5.386   5.478  1.8901  1.4071  0.4559
14083TIP3   OH263663   0.679   5.142   4.875 -0.3242  0.3430  0.3865
14083TIP3    H163664   0.706   5.170   4.788 -0.5957  1.3248  0.6098
14083TIP3    H263665   0.695   5.048   4.876 -1.8065  0.0517 -1.2558
14084TIP3   OH263666   0.532   3.696  15.271  0.4239  0.1834  0.2099
14084TIP3    H163667   0.555   3.683  15.179  0.5105 -2.0014  0.5231
14084TIP3    H263668   0.449   3.745  15.268  0.3364 -0.0263 -1.0260
14085TIP3   OH263669   1.252   3.211  12.540 -0.3191  0.0184 -0.0321
14085TIP3    H163670   1.331   3.229  12.593  0.1399 -0.8245 -0.4236
14085TIP3    H263671   1.269   3.254  12.457  0.1565 -0.9940 -0.4627
14086TIP3   OH263672   4.284   6.258  14.955 -0.3076  0.1828  0.6714
14086TIP3    H163673   4.269   6.352  14.953  0.6499  0.3363  0.8660
14086TIP3    H263674   4.285   6.231  14.863 -0.0629  0.4404  0.5996
14087TIP3   OH263675   1.578   1.956   0.805  0.0599  0.0347  0.5457
14087TIP3    H163676   1.501   1.978   0.752 -0.8426 -0.8681  1.4575
14087TIP3    H263677   1.589   2.031   0.864 -0.7107 -0.2436  1.0570
14088TIP3   OH263678   2.243   1.701   0.662  0.1575  0.0674  0.0112
14088TIP3    H163679   2.162   1.742   0.631  0.3695  0.5245  0.0539
14088TIP3    H263680   2.302   1.774   0.679  0.4847 -0.2489  0.2558
14089TIP3   OH263681   0.789   6.147  14.699 -0.6393 -0.4459 -0.6647
14089TIP3    H163682   0.813   6.221  14.642 -0.9972 -0.5842 -0.9992
14089TIP3    H263683   0.871   6.120  14.739 -0.3197 -0.5948 -1.4111
14090TIP3   OH263684   3.106   5.981  10.826  0.3351  0.1555 -0.5340
14090TIP3    H163685   3.030   6.038  10.814 -0.0296 -0.4721 -1.3262
14090TIP3    H263686   3.072   5.907  10.878  0.1947 -0.5094 -1.5479
14091TIP3   OH263687   2.191   4.806   1.325 -0.4904  0.3039  0.4189
14091TIP3    H163688   2.111   4.855   1.344 -0.8654 -0.7547  1.6202
14091TIP3    H263689   2.164   4.735   1.267 -0.5867 -0.5800  1.5396
14092TIP3   OH263690   0.058   1.150   4.586 -0.5472 -0.5744 -0.0360
14092TIP3    H163691   0.094   1.202   4.658 -1.4530 -0.0944  0.0816
14092TIP3    H263692   0.060   1.060   4.617 -2.9153 -0.1531  1.4450
14093TIP3   OH263693   6.659   0.872  14.521 -0.0462 -0.2293 -0.4307
14093TIP3    H163694   6.613   0.955  14.530  0.3680  0.0590 -0.9041
14093TIP3    H263695   6.646   0.847  14.429  1.1536  0.1203 -0.7188
14094TIP3   OH263696   1.767   4.751  13.532 -0.3477 -0.0960 -0.2296
14094TIP3    H163697   1.755   4.840  13.501 -0.4225 -0.1491 -0.3534
14094TIP3    H263698   1.801   4.703  13.456  3.0270  0.6080  0.7342
14095TIP3   OH263699   1.328   4.310   4.491 -0.5302  0.6058  0.6676
14095TIP3    H163700   1.295   4.387   4.537  1.6487  1.4824  0.7995
14095TIP3    H263701   1.398   4.276   4.547  0.2212  0.0059 -0.6165
14096TIP3   OH263702   4.263   3.516  15.191  0.3008  0.2011  0.5814
14096TIP3    H163703   4.214   3.493  15.112  0.7113 -0.4619  0.5151
14096TIP3    H263704   4.226   3.459  15.259  2.1576 -1.5942  0.1511
14097TIP3   OH263705   6.761   2.309   1.431  0.1916 -0.3650 -0.3883
14097TIP3    H163706   6.677   2.271   1.455 -0.8956  2.9809  1.3894
14097TIP3    H263707   6.808   2.238   1.387 -3.4975 -2.3284 -1.3490
14098TIP3   OH263708   5.602   4.545  13.413  0.1883 -0.0875  0.1191
14098TIP3    H163709   5.590   4.462  13.366  0.9266 -0.9584  1.4392
14098TIP3    H263710   5.661   4.523  13.485 -1.4709  1.0856  1.8522
14099TIP3   OH263711   5.139   4.699   2.986  0.5046 -0.0785 -0.2482
14099TIP3    H163712   5.152   4.793   2.993 -1.8265  0.3351 -1.0442
14099TIP3    H263713   5.098   4.686   2.901  0.8982 -1.8344 -0.2017
14100TIP3   OH263714   1.650   6.038  16.922  0.7476 -0.1498 -0.1921
14100TIP3    H163715   1.645   5.972  16.991 -2.1333 -1.0754 -1.2302
14100TIP3    H263716   1.564   6.081  16.924  1.3424  1.1617 -1.9061
14101TIP3   OH263717   5.034   4.841  16.043  0.2340  0.1823  0.0130
14101TIP3    H163718   5.033   4.908  16.111  0.8667 -0.5772  0.7762
14101TIP3    H263719   5.114   4.792  16.059  1.1989  0.9716 -2.2362
14102TIP3   OH263720   5.790   3.526   0.800  0.2069 -0.1129  0.1514
14102TIP3    H163721   5.802   3.615   0.766  0.0941 -0.5607 -1.0456
14102TIP3    H263722   5.879   3.493   0.812  0.2487  0.1281  0.5293
14103TIP3   OH263723   5.516   1.439  12.598  0.0627  0.4251  0.0183
14103TIP3    H163724   5.518   1.454  12.693 -0.5837 -1.4377  0.3429
14103TIP3    H263725   5.531   1.525  12.560  0.1173  1.2305  1.8198
14104TIP3   OH263726   5.388   3.496   5.493  0.4292  0.1088  0.7028
14104TIP3    H163727   5.480   3.518   5.500  0.4522  0.2449  0.0676
14104TIP3    H263728   5.345   3.578   5.468  0.2388 -0.1035  0.3155
14105TIP3   OH263729   0.973   3.064   5.395  0.4872  0.0146 -0.4654
14105TIP3    H163730   0.902   2.999   5.391 -0.1913  0.7271 -0.0666
14105TIP3    H263731   0.996   3.081   5.304 -0.4793  0.4616 -0.6286
14106TIP3   OH263732   2.055   0.924  13.653 -0.1809 -0.3374 -0.1518
14106TIP3    H163733   1.987   0.856  13.651 -1.2567  0.7418 -1.7357
14106TIP3    H263734   2.137   0.876  13.639 -0.8541 -1.4030 -0.5357
14107TIP3   OH263735   3.769   1.300  16.002  0.2747 -0.4487 -0.2161
14107TIP3    H163736   3.812   1.317  16.086  0.3191 -0.9725 -0.1269
14107TIP3    H263737   3.733   1.384  15.975 -3.1013 -1.0294  2.2071
14108TIP3   OH263738   1.848   5.745  16.173 -0.1651 -0.0215 -0.1584
14108TIP3    H163739   1.868   5.837  16.188  0.7603 -0.2844  0.2651
14108TIP3    H263740   1.845   5.736  16.077 -1.3541  0.6687 -0.1943
14109TIP3   OH263741   5.146   6.293  10.691 -0.4498 -0.0708 -0.1571
14109TIP3    H163742   5.151   6.274  10.598  1.8055 -1.7514  0.2754
14109TIP3    H263743   5.132   6.208  10.733  0.0081  0.4677  1.1329
14110TIP3   OH263744   2.398   1.153   5.113 -0.0621 -1.0000 -0.0657
14110TIP3    H163745   2.479   1.137   5.065  0.2585 -2.9442  1.1176
14110TIP3    H263746   2.423   1.213   5.183  0.0344 -0.4376 -0.5695
14111TIP3   OH263747   0.597   5.802   2.707 -0.1065  0.3268 -0.7102
14111TIP3    H163748   0.574   5.710   2.693  0.1280  0.5416 -2.6931
14111TIP3    H263749   0.678   5.799   2.757  0.8592 -0.6035 -2.2706
14112TIP3   OH263750   2.935   4.689  16.765 -0.1520  0.7510 -0.4290
14112TIP3    H163751   3.023   4.706  16.799 -0.1547  1.9675 -1.0157
14112TIP3    H263752   2.943   4.700  16.670 -0.5694 -0.7797 -0.6612
14113TIP3   OH263753   1.945   1.961   1.879 -0.1084  0.1639  0.5979
14113TIP3    H163754   1.997   1.892   1.838  0.1707  1.4381 -1.2306
14113TIP3    H263755   1.861   1.919   1.899  0.5824 -1.1013  0.8870
14114TIP3   OH263756   6.092   0.438  13.674 -0.2421  0.0658 -0.1322
14114TIP3    H163757   6.094   0.391  13.591  1.3759  0.4200 -0.3109
14114TIP3    H263758   6.150   0.387  13.732 -1.1311 -0.0238  0.6962
14115TIP3   OH263759   4.757   0.443   5.451 -0.4065  0.1100  0.4287
14115TIP3    H163760   4.669   0.451   5.416 -0.9148 -3.4491  0.7056
14115TIP3    H263761   4.814   0.475   5.381 -1.6305 -3.2773 -2.2506
14116TIP3   OH263762   0.687   6.052  15.881 -0.1174  0.2159 -0.4117
14116TIP3    H163763   0.740   6.131  15.868 -0.5040  0.3480 -1.2393
14116TIP3    H263764   0.597   6.084  15.889 -0.2421 -0.1187 -0.4535
14117TIP3   OH263765   6.731   0.010   5.070  0.0530  0.3892 -0.5370
14117TIP3    H163766   6.722   0.105   5.056  0.5740  0.2621 -1.7952
14117TIP3    H263767   6.643  -0.020   5.088 -0.4509  0.8033 -2.1907
14118TIP3   OH263768   3.111   2.687   3.181  0.2541 -0.4848  0.1088
14118TIP3    H163769   3.097   2.612   3.123 -0.9762 -0.0637 -0.1534
14118TIP3    H263770   3.109   2.650   3.270 -1.5444 -0.6092  0.0362
14119TIP3   OH263771   5.271   5.571  17.073  0.5473  0.2481  0.3397
14119TIP3    H163772   5.200   5.626  17.041  0.7505  0.3413  0.0494
14119TIP3    H263773   5.230   5.485  17.086  0.8319 -0.2478 -1.8187
14120TIP3   OH263774   3.450   6.256   3.405  0.0970 -0.4551  0.4351
14120TIP3    H163775   3.526   6.200   3.414  0.7623 -0.0662 -2.4178
14120TIP3    H263776   3.377   6.196   3.387  1.1022 -0.4474 -4.3647
14121TIP3   OH263777   1.070   5.056  16.184  0.1085 -0.6804 -0.1184
14121TIP3    H163778   1.031   5.072  16.098 -0.3661  0.6619  0.3286
14121TIP3    H263779   1.002   5.084  16.246  1.3081  0.5275  0.6791
14122TIP3   OH263780   6.405   2.750  13.791  0.6110 -0.4107  0.2743
14122TIP3    H163781   6.408   2.672  13.736 -0.9028 -0.0613 -0.3438
14122TIP3    H263782   6.313   2.757  13.818  0.7410  1.1239  0.3711
14123TIP3   OH263783   0.007   1.119  12.716  0.6307  0.3468 -0.0425
14123TIP3    H163784   0.064   1.108  12.640  0.9290 -3.7287  0.6336
14123TIP3    H263785  -0.073   1.158  12.681  1.9084  1.3695 -1.8971
14124TIP3   OH263786   1.452   4.821  11.473 -0.0224 -0.3935  0.4643
14124TIP3    H163787   1.522   4.809  11.410 -0.9596 -1.1103 -0.4616
14124TIP3    H263788   1.372   4.825  11.420 -0.5793  1.6339  1.3857
14125TIP3   OH263789   2.318   1.943  12.983  0.0050 -0.1151  0.1726
14125TIP3    H163790   2.303   1.855  12.948  0.4026 -0.6867  1.4186
14125TIP3    H263791   2.236   1.990  12.967  0.0755 -0.4491 -1.2552
14126TIP3   OH263792   4.525   3.422  11.984 -0.2765 -0.2453  0.4298
14126TIP3    H163793   4.440   3.380  11.997 -1.2125  1.8892  1.4086
14126TIP3    H263794   4.505   3.502  11.935  1.3582 -0.4503 -0.6128
14127TIP3   OH263795   1.758   1.107  11.149  0.1252 -0.6461  0.0830
14127TIP3    H163796   1.677   1.141  11.112 -1.0580 -1.6076  1.7430
14127TIP3    H263797   1.795   1.181  11.198  0.2327 -0.2329 -0.6113
14128TIP3   OH263798   3.125   5.623   4.760  0.0445  0.4997  0.1936
14128TIP3    H163799   3.064   5.550   4.745  0.5174  0.2197 -0.3855
14128TIP3    H263800   3.090   5.695   4.707 -0.1448  0.5444  0.3768
14129TIP3   OH263801   3.837   4.898  13.153  0.0949 -0.2865  0.6550
14129TIP3    H163802   3.890   4.968  13.192  0.5256  0.2823 -0.9090
14129TIP3    H263803   3.776   4.944  13.096  1.8668 -1.3002 -2.1292
14130TIP3   OH263804   3.426   2.676  11.391  0.4050 -0.0716 -0.4754
14130TIP3    H163805   3.453   2.753  11.442  0.4628 -0.2863 -0.1834
14130TIP3    H263806   3.477   2.604  11.428  0.7419 -0.1586 -1.0970
14131TIP3   OH263807   1.345   1.956  16.926 -0.5171  0.5825 -0.0538
14131TIP3    H163808   1.366   2.044  16.894 -1.2601  0.4981 -0.7911
14131TIP3    H263809   1.303   1.970  17.010 -1.0075  0.9605 -0.3606
14132TIP3   OH263810   5.819   0.482  13.984  0.2206  0.4572  0.0455
14132TIP3    H163811   5.804   0.460  14.076  0.9885  0.6244  0.2061
14132TIP3    H263812   5.908   0.515  13.981  1.0007 -1.6270 -1.1204
14133TIP3   OH263813   2.169   3.795   5.363  0.5974 -0.0979  0.2061
14133TIP3    H163814   2.259   3.775   5.340  0.4811 -0.1153 -0.2340
14133TIP3    H263815   2.175   3.876   5.415  1.1672 -1.8454  2.9536
14134TIP3   OH263816   1.312   5.555   0.665  0.7119 -0.5873 -0.2012
14134TIP3    H163817   1.401   5.576   0.637  0.1617  1.3833 -0.5647
14134TIP3    H263818   1.295   5.614   0.739 -0.1006 -1.3136  0.2011
14135TIP3   OH263819   3.010   0.881  10.554  0.0953  0.1188  0.0091
14135TIP3    H163820   2.945   0.828  10.601 -2.1132 -0.6717 -3.7578
14135TIP3    H263821   2.966   0.964  10.539  0.7940  0.3610 -0.6513
14136TIP3   OH263822   2.336   1.452  16.569 -0.0967 -0.3563 -0.1449
14136TIP3    H163823   2.414   1.505  16.583  1.7172 -3.0150  0.1534
14136TIP3    H263824   2.284   1.502  16.506  2.0422  1.2601 -0.6824
14137TIP3   OH263825   6.237   2.447   2.513  0.1602  0.2486 -0.0196
14137TIP3    H163826   6.243   2.511   2.584 -0.0950 -0.5301  0.7171
14137TIP3    H263827   6.239   2.362   2.558 -0.0528 -0.2462 -0.9444
14138TIP3   OH263828   2.996   2.561   5.607 -0.7530  0.2196 -0.1637
14138TIP3    H163829   2.990   2.487   5.548  0.0196  1.0372 -1.2919
14138TIP3    H263830   2.916   2.611   5.592 -0.3837  0.6294 -0.8234
14139TIP3   OH263831   2.220   0.399   2.422  0.1674  0.3999  0.3518
14139TIP3    H163832   2.183   0.375   2.337  0.3909  0.1091  0.3334
14139TIP3    H263833   2.167   0.473   2.452 -0.3009  0.1100  0.2389
14140TIP3   OH263834   4.023   2.713  14.190  0.0478 -0.0255 -0.5278
14140TIP3    H163835   3.939   2.728  14.146  0.6310 -1.0005 -2.0238
14140TIP3    H263836   4.087   2.760  14.136  0.6567 -0.4721 -0.1957
14141TIP3   OH263837   4.974   5.886  16.771 -0.4017 -0.3924 -0.4404
14141TIP3    H163838   4.934   5.954  16.825 -0.2080  0.8804 -1.8931
14141TIP3    H263839   5.008   5.823  16.835 -1.8820  0.1107  0.8863
14142TIP3   OH263840   2.384   2.042   2.617  0.0570 -0.2959  0.2820
14142TIP3    H163841   2.363   1.983   2.690 -0.6517 -1.2972 -0.7247
14142TIP3    H263842   2.435   2.112   2.658  0.9153 -1.5927  1.5065
14143TIP3   OH263843   3.288   0.387  14.918 -0.1205 -0.2424  0.1662
14143TIP3    H163844   3.362   0.423  14.870 -0.4219  0.1098 -0.0339
14143TIP3    H263845   3.219   0.378  14.852  0.4171 -2.6080 -0.1334
14144TIP3   OH263846   6.501   1.075   1.825 -0.1045 -0.3984  0.2623
14144TIP3    H163847   6.576   1.131   1.805  1.0992 -1.5222  1.5082
14144TIP3    H263848   6.478   1.097   1.915 -0.7997 -0.5911  0.1331
14145TIP3   OH263849   2.661   6.012   4.036  0.3752  0.0670  0.3383
14145TIP3    H163850   2.592   6.044   4.094 -0.3020 -1.5763  0.4750
14145TIP3    H263851   2.741   6.013   4.089  0.2825  1.1450  0.4540
14146TIP3   OH263852   5.379   4.839  12.897 -0.2465 -0.3277 -0.1695
14146TIP3    H163853   5.464   4.854  12.937 -0.9894 -0.6245  1.5890
14146TIP3    H263854   5.318   4.892  12.949 -1.3162 -1.1002 -0.5974
14147TIP3   OH263855   4.364   4.178   2.818 -0.3196  0.2715 -0.2029
14147TIP3    H163856   4.306   4.104   2.841 -0.0112  0.5275  1.4392
14147TIP3    H263857   4.432   4.139   2.763 -0.6874 -0.4959 -0.1203
14148TIP3   OH263858   3.372   3.467  14.125 -0.8585 -0.1557 -0.0428
14148TIP3    H163859   3.280   3.450  14.144 -0.8635  0.6346  0.6966
14148TIP3    H263860   3.391   3.550  14.170  0.0150  0.0710 -0.8068
14149TIP3   OH263861   1.057   1.222   0.369  0.0608 -0.4123 -0.0767
14149TIP3    H163862   1.133   1.177   0.406  1.7090  2.3344 -0.0292
14149TIP3    H263863   1.058   1.309   0.409 -3.5645 -0.5262  0.4837
14150TIP3   OH263864   6.497   5.276   1.388 -0.0479 -0.1854 -0.2365
14150TIP3    H163865   6.574   5.240   1.345  0.1907 -0.3802  0.3441
14150TIP3    H263866   6.531   5.320   1.466 -0.6169 -1.2222  0.6178
14151TIP3   OH263867   4.857   0.104   2.766  0.2491  0.3179  0.7728
14151TIP3    H163868   4.761   0.112   2.766  0.3580  1.6880  0.6987
14151TIP3    H263869   4.873   0.009   2.762 -1.0958  0.1216 -0.2569
14152TIP3   OH263870   1.177   6.607   5.604  0.4463  0.7369 -0.0459
14152TIP3    H163871   1.220   6.526   5.577  0.7092  0.9562 -0.2985
14152TIP3    H263872   1.225   6.634   5.682  1.4020  1.4821 -0.8720
14153TIP3   OH263873   5.653   3.304   3.494  0.0779 -0.4079  0.0642
14153TIP3    H163874   5.735   3.336   3.532 -0.8071  0.4741  1.2649
14153TIP3    H263875   5.607   3.383   3.467 -0.0978 -0.9377 -1.2219
14154TIP3   OH263876   4.423   3.451   3.376  0.0759  0.1724  0.5860
14154TIP3    H163877   4.361   3.397   3.424 -1.5773 -0.0534 -1.7163
14154TIP3    H263878   4.372   3.525   3.344  1.5106  1.2063  0.6043
14155TIP3   OH263879   5.217   2.540  12.571 -0.7382  0.0010 -0.0605
14155TIP3    H163880   5.226   2.445  12.565 -0.3007  0.0998 -1.2177
14155TIP3    H263881   5.305   2.573  12.550 -0.6317  0.6305  1.3615
14156TIP3   OH263882   5.933   5.711  12.605 -0.2822  0.0519 -0.2694
14156TIP3    H163883   5.850   5.731  12.561  0.1830 -2.1644 -2.2738
14156TIP3    H263884   5.955   5.623  12.574  2.8324  0.6257  0.2014
14157TIP3   OH263885   0.971   2.839   4.239 -0.0781  0.5543 -0.2693
14157TIP3    H163886   1.055   2.798   4.219 -0.2399  0.4073 -0.6494
14157TIP3    H263887   0.907   2.786   4.192 -0.3543  0.8444 -0.2189
14158TIP3   OH263888   4.943   4.769  15.026  0.4926 -0.2745  0.1727
14158TIP3    H163889   4.868   4.777  14.966 -0.8163 -0.7063  1.7083
14158TIP3    H263890   4.955   4.675  15.036  0.2302 -0.2016  1.1620
14159TIP3   OH263891   0.314   5.082   3.047 -0.1016  0.6408  0.4621
14159TIP3    H163892   0.300   5.147   3.116 -0.8647  1.2429 -0.2509
14159TIP3    H263893   0.352   5.130   2.974  0.8571 -0.0283  0.5154
14160TIP3   OH263894   4.928   5.424   5.527  0.1681  0.1139  0.3503
14160TIP3    H163895   4.862   5.381   5.473 -0.4117  1.3328  0.0680
14160TIP3    H263896   4.956   5.357   5.589  0.2618 -1.0778 -0.9359
14161TIP3   OH263897   6.357   0.230   5.149  0.2698  0.0351 -0.2381
14161TIP3    H163898   6.372   0.141   5.181  2.4917 -0.0215 -1.3158
14161TIP3    H263899   6.263   0.234   5.130  0.0055 -1.8042  0.6144
14162TIP3   OH263900   4.217   2.310  12.182  0.0108  0.0112 -0.3921
14162TIP3    H163901   4.254   2.227  12.151  0.5081 -0.2044  0.7490
14162TIP3    H263902   4.145   2.284  12.239  0.1283  0.3694 -0.0817
14163TIP3   OH263903   2.798   1.740   4.708  0.0423 -0.4121  0.0220
14163TIP3    H163904   2.784   1.797   4.632  1.1261 -0.0614  0.0809
14163TIP3    H263905   2.807   1.800   4.782 -1.0905 -0.7574  0.4431
14164TIP3   OH263906   3.338   3.773  11.849 -0.0113  0.0029  0.0850
14164TIP3    H163907   3.421   3.732  11.823 -0.5845 -1.4623  0.4890
14164TIP3    H263908   3.289   3.782  11.767 -0.3119 -1.1631  0.1141
14165TIP3   OH263909   0.266   6.767   0.210 -0.0005  0.1047 -0.1220
14165TIP3    H163910   0.351   6.777   0.166 -0.3174  1.2257 -0.4907
14165TIP3    H263911   0.279   6.806   0.296 -0.4614  1.3257 -0.5914
14166TIP3   OH263912   4.434   6.058  13.613  0.5329  0.3588  0.2118
14166TIP3    H163913   4.410   5.985  13.671  1.7954  0.0871  0.4115
14166TIP3    H263914   4.484   6.117  13.669  3.2179 -0.7077 -0.9591
14167TIP3   OH263915   3.555   2.266  16.649 -0.2892 -0.0694  0.1001
14167TIP3    H163916   3.474   2.313  16.632 -0.9027 -0.6522  1.3349
14167TIP3    H263917   3.591   2.309  16.727  1.6291  1.5126 -1.6086
14168TIP3   OH263918   1.673   1.177   2.135 -0.1723 -0.4317  0.1015
14168TIP3    H163919   1.617   1.100   2.122  0.4211 -1.0083  0.9312
14168TIP3    H263920   1.759   1.141   2.155  0.7725  0.4468 -2.1982
14169TIP3   OH263921   4.678   5.028  14.729 -0.3367 -0.0642  0.4514
14169TIP3    H163922   4.590   5.044  14.762 -1.6759  0.7932 -3.2138
14169TIP3    H263923   4.664   4.984  14.645  2.7613 -0.9643  0.3455
14170TIP3   OH263924   6.158   3.843   5.502 -0.2568 -0.0692 -0.4145
14170TIP3    H163925   6.219   3.888   5.444 -0.8110  0.0077 -0.9456
14170TIP3    H263926   6.103   3.790   5.444 -2.0245  1.4177 -0.1797
14171TIP3   OH263927   0.912   1.538  16.779  0.2730  0.1041  0.1391
14171TIP3    H163928   0.969   1.607  16.746 -3.6179  2.7480 -1.4382
14171TIP3    H263929   0.844   1.585  16.827 -0.8118 -2.8973  1.6459
14172TIP3   OH263930   4.620   4.293   0.517  0.3651 -0.0061 -0.2313
14172TIP3    H163931   4.677   4.370   0.510 -0.1096  0.5579  1.7579
14172TIP3    H263932   4.576   4.288   0.432  1.6549  0.9155 -0.9690
14173TIP3   OH263933   2.042   3.565   6.001 -0.1685 -0.7904 -0.0993
14173TIP3    H163934   2.116   3.555   6.062 -0.0973  0.5674  0.0497
14173TIP3    H263935   2.083   3.590   5.918 -0.5701  2.2302  0.5437
14174TIP3   OH263936   4.428   1.103  11.074  0.2940  0.0285  0.1834
14174TIP3    H163937   4.469   1.167  11.017  0.2770  0.4031  0.5920
14174TIP3    H263938   4.349   1.076  11.027  0.0858  0.6102  0.2007
14175TIP3   OH263939   2.144   6.676   1.604  0.4288 -0.3778  0.2157
14175TIP3    H163940   2.086   6.600   1.600  0.6703 -0.5621  0.1784
14175TIP3    H263941   2.087   6.751   1.588  0.0729 -0.4966  0.9277
14176TIP3   OH263942   6.356   6.512   1.826 -0.3427 -0.3584 -0.6880
14176TIP3    H163943   6.441   6.472   1.809 -0.8526 -2.3752  1.1971
14176TIP3    H263944   6.294   6.457   1.778 -0.8656 -0.7472  0.4158
14177TIP3   OH263945   0.463   6.412  16.911 -0.2810 -0.4758 -0.0310
14177TIP3    H163946   0.433   6.366  16.833  0.0152 -2.1629  0.8095
14177TIP3    H263947   0.550   6.445  16.888  0.6633 -2.7135  0.2275
14178TIP3   OH263948   2.072   0.709  14.670 -0.0877 -0.3854  0.5773
14178TIP3    H163949   2.017   0.639  14.705 -0.0912 -0.9045 -0.4623
14178TIP3    H263950   2.011   0.768  14.627  0.0269 -0.2523  0.5971
14179TIP3   OH263951   3.413   6.400  12.289 -0.2635  0.3735 -0.1082
14179TIP3    H163952   3.434   6.339  12.217  0.7138  1.9204 -1.1616
14179TIP3    H263953   3.446   6.356  12.367  3.4937  0.9764 -1.2491
14180TIP3   OH263954   2.393   1.943  17.221  0.3459 -0.6206  0.2736
14180TIP3    H163955   2.460   1.884  17.256  0.6516 -1.1064 -1.0709
14180TIP3    H263956   2.393   1.925  17.127  0.1163  1.2071 -0.0853
14181TIP3   OH263957   1.869   0.296   2.577 -0.8221 -0.2403 -0.0785
14181TIP3    H163958   1.848   0.388   2.559 -1.3230 -0.6145 -1.4611
14181TIP3    H263959   1.933   0.300   2.648  2.7148  1.4416 -3.1611
14182TIP3   OH263960   6.762   4.499   1.604 -0.4059  0.2002  0.3261
14182TIP3    H163961   6.681   4.451   1.586 -0.2215  0.1568 -0.3751
14182TIP3    H263962   6.762   4.510   1.699 -0.8349 -0.5078  0.4089
14183TIP3   OH263963   2.574   1.121  16.537 -0.3891  0.1337  0.0875
14183TIP3    H163964   2.552   1.103  16.446 -1.7337  1.6301  0.0947
14183TIP3    H263965   2.613   1.209  16.536 -0.2627  0.0933  0.9200
14184TIP3   OH263966   2.458   6.533   0.967  0.0203 -0.2545 -0.2063
14184TIP3    H163967   2.448   6.504   0.876 -1.1098  4.2414 -1.6314
14184TIP3    H263968   2.376   6.579   0.986  0.6749 -0.2556  2.7996
14185TIP3   OH263969   0.708   3.443   6.177 -0.6725 -0.5286  0.0002
14185TIP3    H163970   0.742   3.532   6.188 -0.7452 -0.6921  1.7994
14185TIP3    H263971   0.617   3.448   6.209 -0.8632 -1.1087 -0.4509
14186TIP3   OH263972   6.659   3.708  16.567 -0.4482  0.7925 -0.1982
14186TIP3    H163973   6.630   3.787  16.612  1.2805  1.2083  0.2127
14186TIP3    H263974   6.684   3.738  16.480 -2.7397  0.1687 -1.1043
14187TIP3   OH263975   1.482   1.133  15.406  0.4639 -0.4319 -0.2888
14187TIP3    H163976   1.409   1.122  15.465 -0.4079  4.9113 -0.1126
14187TIP3    H263977   1.462   1.077  15.331 -2.0363 -1.7013  1.2976
14188TIP3   OH263978   4.719   5.235  13.388 -0.2628 -0.5670 -0.1476
14188TIP3    H163979   4.776   5.222  13.463 -0.5724  0.6374  0.3043
14188TIP3    H263980   4.747   5.169  13.325  0.6437 -0.9454  0.6411
14189TIP3   OH263981   1.244   5.375  12.112 -0.0696 -0.7381  0.2985
14189TIP3    H163982   1.204   5.319  12.179  1.1258 -1.3265  0.5319
14189TIP3    H263983   1.254   5.460  12.154 -0.8651 -0.6433  0.3087
14190TIP3   OH263984   3.359   6.037  16.804  0.1658 -0.4067  0.1955
14190TIP3    H163985   3.330   5.947  16.821  2.1580 -0.7367  2.2151
14190TIP3    H263986   3.290   6.076  16.751 -0.1104 -3.5270 -1.8512
14191TIP3   OH263987   6.685   3.768   0.603 -0.2053  0.2246 -0.3434
14191TIP3    H163988   6.749   3.832   0.573  0.1986 -0.6641 -1.4175
14191TIP3    H263989   6.727   3.683   0.591 -0.1757 -0.2155  2.4277
14192TIP3   OH263990   4.724   6.772   2.101  0.1090 -0.3011 -0.2133
14192TIP3    H163991   4.695   6.863   2.089 -1.1029 -0.4455  1.3956
14192TIP3    H263992   4.656   6.733   2.156  1.2275 -1.8620  0.0875
14193TIP3   OH263993   6.769   6.061  12.048  0.5565 -0.6064  0.1109
14193TIP3    H163994   6.829   6.000  12.090 -0.0579 -0.9293  0.5308
14193TIP3    H263995   6.713   6.093  12.119  2.1779  2.0120  0.2810
14194TIP3   OH263996   6.414   2.579  13.131 -0.2686 -0.3561 -0.2788
14194TIP3    H163997   6.446   2.570  13.221 -0.2997 -0.3496 -0.2685
14194TIP3    H263998   6.396   2.489  13.104  0.0234 -0.3826 -0.3813
14195TIP3   OH263999   4.428   2.255  17.093  0.1256  0.1403 -0.0488
14195TIP3    H164000   4.339   2.219  17.091 -0.9086  2.5871 -0.2986
14195TIP3    H264001   4.474   2.201  17.157 -1.9169 -0.3274  1.0830
14196TIP3   OH264002   0.490   5.225   2.861 -0.2022 -0.2365 -0.8804
14196TIP3    H164003   0.409   5.271   2.843 -0.8609 -1.1210 -0.2420
14196TIP3    H264004   0.534   5.217   2.776  0.1002  1.8727 -0.9378
14197TIP3   OH264005   6.660   6.056  10.925 -0.5122  0.5367  0.1497
14197TIP3    H164006   6.647   6.056  10.830  1.1963 -0.1297 -0.0995
14197TIP3    H264007   6.698   6.142  10.944  1.3841 -0.2195 -0.1158
14198TIP3   OH264008   2.943   2.685  17.101 -0.2384  0.4889 -0.5187
14198TIP3    H164009   2.884   2.734  17.158 -1.8531  0.0339 -1.7402
14198TIP3    H264010   2.885   2.650  17.033  1.4681  0.0540 -1.7617
14199TIP3   OH264011   2.073   4.000  16.840  0.0243 -0.2178  0.6041
14199TIP3    H164012   2.032   3.935  16.784 -0.2469 -0.7833  1.4512
14199TIP3    H264013   2.032   3.988  16.926  0.9567  0.1442  1.1129
14200TIP3   OH264014   6.200   1.124   3.506  0.3895 -0.0066 -0.2674
14200TIP3    H164015   6.164   1.169   3.582 -0.7647  0.0801 -0.8493
14200TIP3    H264016   6.124   1.108   3.449  0.9050 -1.8856 -0.4806
14201TIP3   OH264017   0.246   5.386   3.812  0.3722  0.1502  0.1200
14201TIP3    H164018   0.334   5.393   3.850 -0.1867  1.6660  1.1905
14201TIP3    H264019   0.229   5.473   3.775 -0.1558 -0.5330 -1.2890
14202TIP3   OH264020   5.850   1.721  14.201 -0.0291  1.2085  0.1018
14202TIP3    H164021   5.769   1.760  14.168 -1.4481 -0.0827  1.9454
14202TIP3    H264022   5.870   1.650  14.139 -0.3760  1.4594 -0.2974
14203TIP3   OH264023   2.667   5.410  12.157  0.1672 -0.3823 -0.0469
14203TIP3    H164024   2.623   5.325  12.164  1.7178 -1.1952  0.0806
14203TIP3    H264025   2.599   5.469  12.123 -0.8643 -1.7219 -0.3895
14204TIP3   OH264026   2.276   1.221   4.466  0.3126 -0.3645  0.2110
14204TIP3    H164027   2.366   1.232   4.496  0.2012 -0.3639  0.5508
14204TIP3    H264028   2.265   1.126   4.458 -0.0751 -0.4492  1.5008
14205TIP3   OH264029   6.294   0.827  14.691 -0.4093 -0.4111  0.0641
14205TIP3    H164030   6.360   0.758  14.689  0.1507  0.1226 -0.2020
14205TIP3    H264031   6.239   0.811  14.615  1.4231  1.0701 -1.6556
14206TIP3   OH264032   1.373   4.005   5.564 -0.3611 -0.3894 -0.3111
14206TIP3    H164033   1.388   4.003   5.470  0.9300 -2.2541 -0.0808
14206TIP3    H264034   1.378   4.098   5.587 -0.8101  0.0854 -2.0795
14207TIP3   OH264035   5.040   2.302   6.126 -0.7534  0.1287 -0.4199
14207TIP3    H164036   5.118   2.303   6.182 -0.2845  1.6210 -1.0787
14207TIP3    H264037   5.053   2.227   6.068  0.2101  0.3995 -0.5569
14208TIP3   OH264038   6.229   0.939   3.253  0.3498  0.1557 -0.0592
14208TIP3    H164039   6.310   0.899   3.284 -0.8520 -1.6702  0.8430
14208TIP3    H264040   6.171   0.937   3.329 -0.4235  1.8050 -0.5782
14209TIP3   OH264041   3.021   0.746   5.745  0.0046 -0.7051  0.1420
14209TIP3    H164042   3.104   0.773   5.784  0.0817  0.3374 -0.7330
14209TIP3    H264043   2.957   0.806   5.782 -0.3404 -1.3995  0.6838
14210TIP3   OH264044   5.886   3.723   1.147 -0.4502  0.2525  0.1045
14210TIP3    H164045   5.800   3.722   1.106 -0.8437  1.1391  0.8877
14210TIP3    H264046   5.870   3.698   1.238 -0.0483  1.4678  0.5254
14211TIP3   OH264047   1.001   2.129  11.773 -0.3707  0.2739 -0.2161
14211TIP3    H164048   0.929   2.183  11.741 -1.2176 -0.1863  0.8882
14211TIP3    H264049   1.025   2.074  11.698  0.4006  2.0455 -1.3060
14212TIP3   OH264050   4.639   6.435   6.005 -0.7889 -0.4401 -0.2715
14212TIP3    H164051   4.546   6.457   6.015 -0.5710 -0.1418  1.2005
14212TIP3    H264052   4.656   6.369   6.072  0.0926 -0.4007 -0.4457
14213TIP3   OH264053   0.643   5.893  12.086 -0.4695  0.2693 -0.0467
14213TIP3    H164054   0.713   5.912  12.148 -0.9786 -0.9686  0.9320
14213TIP3    H264055   0.668   5.808  12.048 -0.8140  0.4100 -0.5883
14214TIP3   OH264056   2.535   4.231   1.481 -0.0878 -0.6778  0.3888
14214TIP3    H164057   2.618   4.221   1.528  0.8872 -1.1168 -1.3440
14214TIP3    H264058   2.558   4.213   1.389 -1.5847  1.6750 -0.5052
14215TIP3   OH264059   4.502   2.109  12.119  0.0320  0.1118 -0.2614
14215TIP3    H164060   4.418   2.082  12.081 -0.8210  2.0195  0.1973
14215TIP3    H264061   4.492   2.093  12.213  0.4890 -0.4232 -0.3041
14216TIP3   OH264062   1.138   3.660  15.454 -0.2714 -0.1460  0.0259
14216TIP3    H164063   1.204   3.599  15.422 -1.9279 -2.2829  0.5518
14216TIP3    H264064   1.155   3.667  15.548 -0.3372 -0.1363  0.0377
14217TIP3   OH264065   5.346   6.627  16.566 -0.2810  0.1288 -0.0960
14217TIP3    H164066   5.421   6.631  16.506 -0.0559 -1.9454  0.0020
14217TIP3    H264067   5.382   6.589  16.646 -1.2492 -0.0100  0.2725
14218TIP3   OH264068   2.821   2.979  12.097 -0.3805  0.2720 -0.0223
14218TIP3    H164069   2.893   2.945  12.044 -0.9255 -0.6528 -0.1829
14218TIP3    H264070   2.825   2.928  12.178 -0.7452  0.3415  0.0384
14219TIP3   OH264071   2.096   1.312  12.331  0.1948  0.1126 -0.2253
14219TIP3    H164072   2.105   1.380  12.397  0.6496  0.2967 -0.4784
14219TIP3    H264073   2.001   1.300  12.321  0.1126 -1.0370  1.6209
14220TIP3   OH264074   0.504   4.478  16.550 -0.4969 -0.3101  0.5222
14220TIP3    H164075   0.581   4.518  16.592 -2.4731  1.6752  2.4110
14220TIP3    H264076   0.498   4.520  16.465  1.6034 -1.9122 -0.4654
14221TIP3   OH264077   3.880   1.246  14.609 -0.4598  0.3422  0.4656
14221TIP3    H164078   3.863   1.335  14.578 -1.5245 -0.6024 -1.7949
14221TIP3    H264079   3.830   1.190  14.549  2.3499 -1.9584  0.1646
14222TIP3   OH264080   3.617   4.149   5.155 -0.3312  0.6369  0.4450
14222TIP3    H164081   3.602   4.076   5.096  0.6014  1.4259 -0.7953
14222TIP3    H264082   3.663   4.214   5.102  0.6283  1.3175  2.0619
14223TIP3   OH264083   6.690   0.439   3.046  0.6693 -0.0117 -0.5833
14223TIP3    H164084   6.609   0.469   3.087  0.2135 -0.4803 -1.1245
14223TIP3    H264085   6.741   0.401   3.117 -0.2304 -1.0701 -0.4953
14224TIP3   OH264086   5.541   6.484  14.301 -0.1082 -0.5820  0.2644
14224TIP3    H164087   5.518   6.473  14.209 -0.8032  0.6912  0.2814
14224TIP3    H264088   5.458   6.497  14.345  0.4377  1.6157  0.6670
14225TIP3   OH264089   4.609   5.841   0.980 -0.2070  0.7323 -0.5345
14225TIP3    H164090   4.542   5.891   1.026 -0.5297  0.0342 -0.2482
14225TIP3    H264091   4.604   5.753   1.017  1.1358  0.7655 -0.2208
14226TIP3   OH264092   2.067   4.258   3.156  0.0308  0.1886 -0.5750
14226TIP3    H164093   2.075   4.351   3.135  1.4179  0.1451 -0.2972
14226TIP3    H264094   2.017   4.221   3.083 -1.6937  1.3799 -0.0173
14227TIP3   OH264095   3.041   6.645  14.822  0.1842  0.2376  0.2722
14227TIP3    H164096   2.982   6.569  14.832 -0.5888  0.4183 -2.5768
14227TIP3    H264097   3.019   6.681  14.736  0.9715  3.3587  1.3225
14228TIP3   OH264098   0.797   0.443   2.038  0.0140  0.1224  0.3590
14228TIP3    H164099   0.854   0.461   1.964  0.1233  1.4886  0.7669
14228TIP3    H264100   0.840   0.487   2.112 -1.2408  0.6280  0.7899
14229TIP3   OH264101   6.394   6.719  11.463 -0.5154 -0.4726 -0.3178
14229TIP3    H164102   6.301   6.705  11.482 -0.3956 -0.2813  0.4461
14229TIP3    H264103   6.440   6.672  11.533 -0.0320 -0.8321 -0.8758
14230TIP3   OH264104   5.740   0.106  13.254 -0.4841 -0.1669 -0.2366
14230TIP3    H164105   5.724   0.013  13.236 -1.2270  0.2100 -1.5432
14230TIP3    H264106   5.821   0.126  13.207  0.0381 -0.3212  0.5984
14231TIP3   OH264107   3.380   4.357  12.982 -0.4061 -0.5153 -0.1345
14231TIP3    H164108   3.410   4.297  12.914  0.1543 -1.4564  0.9086
14231TIP3    H264109   3.448   4.425  12.986  0.4827 -1.4399  0.7063
14232TIP3   OH264110   6.636   4.912   1.599 -0.2485  0.0295  0.0519
14232TIP3    H164111   6.575   4.839   1.605  2.0240 -1.9066  0.3198
14232TIP3    H264112   6.630   4.956   1.684 -1.6351  0.1882 -0.1196
14233TIP3   OH264113   5.617   3.691   2.865  0.2557 -0.9013  0.1234
14233TIP3    H164114   5.632   3.607   2.908  2.8728  0.0261  1.1213
14233TIP3    H264115   5.637   3.756   2.931  0.1060  0.5309 -1.2127
14234TIP3   OH264116   3.515   0.956  16.410 -0.0869 -0.1473  1.0281
14234TIP3    H164117   3.594   0.902  16.416 -1.3706 -2.0250  1.3468
14234TIP3    H264118   3.541   1.040  16.448  2.0123 -0.4312  0.2865
14235TIP3   OH264119   0.397   2.696   1.922  0.2145  0.0466  0.2074
14235TIP3    H164120   0.485   2.705   1.957  0.1692 -0.5701  0.4713
14235TIP3    H264121   0.348   2.650   1.990 -0.3283  0.4515  0.0920
14236TIP3   OH264122   2.686   6.420  10.555  0.1964 -0.1341 -0.3052
14236TIP3    H164123   2.740   6.388  10.627 -0.3855  1.8177  1.0434
14236TIP3    H264124   2.634   6.490  10.593 -0.5802  0.5296 -2.4867
14237TIP3   OH264125   3.161   3.371   2.094  0.1402  0.5716 -0.5782
14237TIP3    H164126   3.080   3.422   2.095  1.6918  3.1124 -0.0824
14237TIP3    H264127   3.166   3.336   2.005 -0.3972  2.2581 -1.2908
14238TIP3   OH264128   4.411   3.252  14.540  0.2278  0.1599  0.5031
14238TIP3    H164129   4.355   3.251  14.463 -1.4960  0.2711  1.7247
14238TIP3    H264130   4.491   3.297  14.512 -1.9514  3.7880 -0.1509
14239TIP3   OH264131   1.863   0.879   0.854  0.1840 -0.1956 -0.0838
14239TIP3    H164132   1.835   0.953   0.908  1.5264  0.7079 -0.5942
14239TIP3    H264133   1.788   0.859   0.799 -0.5917  0.0103  0.8903
14240TIP3   OH264134   4.872   0.233   5.327  0.0161 -0.7979 -0.2132
14240TIP3    H164135   4.849   0.296   5.395  3.4702  0.2791  0.0956
14240TIP3    H264136   4.835   0.150   5.356 -1.3182  0.3118  1.3209
14241TIP3   OH264137   0.245   5.844   4.002 -1.2971  0.1706  0.4013
14241TIP3    H164138   0.287   5.928   4.021 -2.7655  1.0262 -0.0106
14241TIP3    H264139   0.212   5.853   3.913 -1.6081 -0.7926  0.4140
14242TIP3   OH264140   4.259   5.866   3.693 -0.3698 -0.4532 -0.0104
14242TIP3    H164141   4.327   5.844   3.630 -0.4576  1.3411 -0.7579
14242TIP3    H264142   4.187   5.900   3.640  0.1575  2.5889  1.1092
14243TIP3   OH264143   4.999   5.242  13.455 -0.3112  0.4990  0.6951
14243TIP3    H164144   5.035   5.331  13.461  0.1476  0.3197  0.6058
14243TIP3    H264145   5.032   5.209  13.371  0.6761 -0.2715  1.3804
14244TIP3   OH264146   0.722   5.891  14.037  0.1707 -0.1716  0.2271
14244TIP3    H164147   0.735   5.867  14.129 -1.3660 -1.2791  0.1686
14244TIP3    H264148   0.809   5.880  13.997  0.5284 -1.0724  1.2333
14245TIP3   OH264149   6.030   5.347  13.082  0.5335 -0.2631 -0.2258
14245TIP3    H164150   6.116   5.305  13.083  0.4845 -0.3634  0.0657
14245TIP3    H264151   5.973   5.284  13.126  0.6208  0.4469  0.9340
14246TIP3   OH264152   6.138   4.243  12.348  0.0595 -0.4248 -0.3798
14246TIP3    H164153   6.120   4.230  12.255  1.8876 -0.6535 -0.7279
14246TIP3    H264154   6.098   4.328  12.369 -1.0764 -0.7573 -1.1560
14247TIP3   OH264155   2.971   1.298   3.715  0.5090 -0.3431 -0.1695
14247TIP3    H164156   3.034   1.346   3.662 -0.5011  0.9929 -0.1729
14247TIP3    H264157   3.019   1.277   3.795  0.9864  0.5837 -0.2076
14248TIP3   OH264158   0.490   4.596  11.984  0.5632 -0.2004  0.0722
14248TIP3    H164159   0.426   4.559  12.044 -0.0138  1.5442  0.5679
14248TIP3    H264160   0.439   4.653  11.926  1.5496  0.6157 -0.0236
14249TIP3   OH264161   1.899   5.740   5.226  0.0403  0.3792 -0.5537
14249TIP3    H164162   1.869   5.797   5.155  2.6201  0.2532 -1.8032
14249TIP3    H264163   1.950   5.798   5.283  0.0775 -0.0424 -0.1550
14250TIP3   OH264164   5.328   3.082   0.507 -0.3956  0.1868 -0.5268
14250TIP3    H164165   5.261   3.097   0.574 -0.9342 -1.9483 -0.5441
14250TIP3    H264166   5.411   3.098   0.552 -0.8727  2.1094 -0.2979
14251TIP3   OH264167   0.633   5.407   2.225  0.1403 -0.3256 -0.1104
14251TIP3    H164168   0.622   5.322   2.268 -1.6415  0.1004  0.3148
14251TIP3    H264169   0.697   5.453   2.280  1.2225 -1.4300 -0.4274
14252TIP3   OH264170   0.155   1.672  11.444 -0.6428  0.3704  0.2216
14252TIP3    H164171   0.168   1.600  11.382 -0.7641  2.2569 -2.0715
14252TIP3    H264172   0.146   1.629  11.529  2.1484 -2.1304 -0.6649
14253TIP3   OH264173   1.457   2.160   5.309  0.6727 -0.1126 -0.4048
14253TIP3    H164174   1.538   2.159   5.360  0.1958  0.9234  0.3893
14253TIP3    H264175   1.458   2.244   5.264 -1.1731  1.0360  1.6137
14254TIP3   OH264176   0.188   0.987  15.164  0.4562  0.0033 -0.4560
14254TIP3    H164177   0.227   0.921  15.222  0.4803  0.8230  0.4633
14254TIP3    H264178   0.102   0.950  15.141  0.3978 -0.2737  0.1879
14255TIP3   OH264179   2.937   5.450   3.379  0.7413 -0.2682 -0.3953
14255TIP3    H164180   3.003   5.381   3.370  1.2159  0.1504 -0.1403
14255TIP3    H264181   2.973   5.524   3.331  0.0431 -0.3241 -1.0137
14256TIP3   OH264182   5.197   3.611   6.305  0.2357 -0.2018 -0.2640
14256TIP3    H164183   5.182   3.699   6.339 -2.0537 -0.4289 -0.6027
14256TIP3    H264184   5.219   3.559   6.383  2.6379  0.8296 -0.1887
14257TIP3   OH264185   3.524   1.033   5.608 -0.1618  0.1509 -0.3751
14257TIP3    H164186   3.432   1.049   5.587 -0.7583 -0.7290  1.4281
14257TIP3    H264187   3.523   1.007   5.701  1.8130 -0.5984 -0.5436
14258TIP3   OH264188   5.973   0.205  15.196  0.4554  0.1070  0.2679
14258TIP3    H164189   5.931   0.147  15.133 -1.3527  0.3546  1.1917
14258TIP3    H264190   6.018   0.270  15.143 -1.6842  0.7683 -0.7989
14259TIP3   OH264191   5.290   0.505   5.239  0.7743 -0.1930  0.6011
14259TIP3    H164192   5.336   0.433   5.282  0.7014 -0.3789  0.3712
14259TIP3    H264193   5.203   0.471   5.220  0.8235 -0.1357  0.2545
14260TIP3   OH264194   4.413   5.481  15.932  0.1730 -0.7454  0.6710
14260TIP3    H164195   4.359   5.556  15.908  1.6285 -0.1620 -0.8478
14260TIP3    H264196   4.428   5.491  16.026  0.9211  1.2575  0.3551
14261TIP3   OH264197   3.283   5.089   5.406  0.2401  0.1920  0.4805
14261TIP3    H164198   3.331   5.172   5.409 -1.8901  1.5756 -1.7762
14261TIP3    H264199   3.241   5.082   5.491  0.0353  1.7035  0.5167
14262TIP3   OH264200   3.892   0.984  11.855 -0.1262 -0.0852  0.2439
14262TIP3    H164201   3.963   0.973  11.792  0.5474  2.4319  0.4909
14262TIP3    H264202   3.936   0.993  11.939 -0.8987 -1.2582  0.7784
14263TIP3   OH264203   4.950   6.749   0.306  0.3317 -0.6449 -0.0544
14263TIP3    H164204   4.867   6.704   0.290 -0.8837  0.0720  3.7738
14263TIP3    H264205   4.937   6.837   0.273  0.3599 -1.1585 -1.4572
14264TIP3   OH264206   2.850   0.735  11.893 -0.0343  0.0217 -0.4500
14264TIP3    H164207   2.926   0.779  11.931  0.7827 -0.8479 -1.0492
14264TIP3    H264208   2.885   0.688  11.818 -1.1464 -0.5187 -0.6398
14265TIP3   OH264209   3.171   2.446   1.291 -0.1874  0.0434  0.4711
14265TIP3    H164210   3.162   2.363   1.244 -0.7598  0.1916  0.3221
14265TIP3    H264211   3.151   2.425   1.382  2.7233 -0.6400  1.0153
14266TIP3   OH264212   2.413   3.075   0.708  0.2535 -0.6722  0.0242
14266TIP3    H164213   2.458   3.159   0.720 -0.6149 -0.1284 -0.3974
14266TIP3    H264214   2.406   3.038   0.796 -1.2238  0.7073  0.5271
14267TIP3   OH264215   0.047   1.418  16.990  0.2960 -0.2457  0.1646
14267TIP3    H164216  -0.013   1.415  17.065  0.1345 -0.5467  0.0227
14267TIP3    H264217   0.124   1.465  17.023  0.4902 -0.9323  0.7158
14268TIP3   OH264218   1.063   5.256   1.213 -0.0651 -0.4447 -0.2737
14268TIP3    H164219   1.048   5.302   1.295 -0.7028 -2.2174  0.6344
14268TIP3    H264220   1.137   5.302   1.173 -1.4431  2.1071 -0.0037
14269TIP3   OH264221   5.914   4.248  12.119  0.1139 -0.0068  0.0039
14269TIP3    H164222   5.832   4.235  12.168  0.1899  1.5143  0.5628
14269TIP3    H264223   5.899   4.327  12.068  1.4684  0.6646  0.6164
14270TIP3   OH264224   5.130   1.743   2.015  0.2096  0.2346  0.2881
14270TIP3    H164225   5.063   1.803   1.980 -0.0626 -0.7784 -0.9484
14270TIP3    H264226   5.213   1.787   1.996  0.0576 -0.2512 -1.5555
14271TIP3   OH264227   6.368   3.669   0.876 -0.3067  0.2277 -0.2498
14271TIP3    H164228   6.418   3.749   0.862  1.1055 -0.4864  0.5987
14271TIP3    H264229   6.366   3.626   0.791  0.9808  0.0139 -0.1843
14272TIP3   OH264230   1.110   1.155   3.483  0.4860 -0.1841  0.2370
14272TIP3    H164231   1.120   1.241   3.523 -0.2142  0.9646 -1.9594
14272TIP3    H264232   1.161   1.160   3.402 -0.8445 -1.2745 -0.6995
14273TIP3   OH264233   3.211   4.980  11.128  0.4704  0.3781 -0.4183
14273TIP3    H164234   3.135   5.007  11.076 -1.0289 -0.5910  1.2078
14273TIP3    H264235   3.282   5.034  11.096 -1.0879  1.8741 -1.4506
14274TIP3   OH264236   3.484   2.968   3.216 -0.1853 -0.0976  0.8430
14274TIP3    H164237   3.495   2.981   3.310 -1.0808 -1.4370  1.1308
14274TIP3    H264238   3.533   3.041   3.177 -0.6640  1.0669  2.3477
14275TIP3   OH264239   3.383   1.904   3.793 -0.1034 -0.7670 -0.4079
14275TIP3    H164240   3.356   1.984   3.837  2.0107  0.6744 -1.6323
14275TIP3    H264241   3.344   1.909   3.706  0.5840 -0.7253 -0.7213
14276TIP3   OH264242   2.645   4.428  13.915  0.6014  0.3216 -0.0057
14276TIP3    H164243   2.737   4.436  13.890  0.2867 -0.6327 -1.5333
14276TIP3    H264244   2.622   4.337  13.894 -0.1660 -0.0113  2.1624
14277TIP3   OH264245   5.953   5.465   0.384 -0.2316 -0.7923 -0.1328
14277TIP3    H164246   6.003   5.394   0.345 -0.5113 -0.7299 -0.5997
14277TIP3    H264247   5.862   5.448   0.359 -0.1988  0.1935 -0.9556
14278TIP3   OH264248   5.331   4.705   4.856  0.3196 -0.7358 -0.2139
14278TIP3    H164249   5.246   4.749   4.850  0.0001 -1.1190  1.2671
14278TIP3    H264250   5.385   4.764   4.907  0.9230 -0.5307 -1.0867
14279TIP3   OH264251   3.379   4.699  12.456  0.4165 -0.0493 -0.2513
14279TIP3    H164252   3.461   4.688  12.408  0.1768  1.3233 -1.0128
14279TIP3    H264253   3.329   4.620  12.437  1.8905 -1.2668  0.8862
14280TIP3   OH264254   5.705   0.328   5.844  0.3439  0.6287  0.0021
14280TIP3    H164255   5.729   0.300   5.932  1.2247  0.5989 -0.2392
14280TIP3    H264256   5.635   0.392   5.857  0.2045  0.3427  0.6951
14281TIP3   OH264257   5.642   4.722   0.602 -0.3265  0.4132  0.1195
14281TIP3    H164258   5.580   4.751   0.535 -1.1763  0.2521  0.8271
14281TIP3    H264259   5.633   4.786   0.672 -1.7555 -1.1384  1.4179
14282TIP3   OH264260   1.745   4.130   5.474  0.0652 -0.1996  0.1431
14282TIP3    H164261   1.828   4.150   5.431  0.3682 -1.0558  0.3129
14282TIP3    H264262   1.752   4.171   5.560  0.6639 -0.9806  0.4733
14283TIP3   OH264263   5.155   0.416  11.450  0.0253  0.1367 -0.0152
14283TIP3    H164264   5.226   0.458  11.402 -0.9291 -0.9741 -2.5331
14283TIP3    H264265   5.126   0.346  11.392 -1.1672 -1.3062  2.2709
14284TIP3   OH264266   4.405   3.437  12.822  0.3163  0.6395 -0.3989
14284TIP3    H164267   4.441   3.493  12.890  1.5595 -0.1381 -0.3989
14284TIP3    H264268   4.326   3.483  12.792  0.9883  2.0834  0.0015
14285TIP3   OH264269   6.104   0.938  13.264  0.0545  0.2163  0.1948
14285TIP3    H164270   6.091   0.855  13.310 -1.6445  1.2715  1.6921
14285TIP3    H264271   6.184   0.974  13.304  1.3228 -1.0903 -1.1058
14286TIP3   OH264272   3.194   4.307   3.076 -0.2836  0.1191 -0.0153
14286TIP3    H164273   3.128   4.240   3.061  1.3799 -1.4962 -0.2800
14286TIP3    H264274   3.176   4.338   3.165 -1.6408 -0.0022 -0.2365
14287TIP3   OH264275   4.835   0.258   0.217 -0.0736 -0.2236  0.1827
14287TIP3    H164276   4.928   0.262   0.193  0.6197 -0.6703  2.6464
14287TIP3    H264277   4.801   0.184   0.166  1.0289 -0.3188 -0.4356
14288TIP3   OH264278   4.874   5.651  11.628  0.2299 -0.4225  0.1819
14288TIP3    H164279   4.807   5.637  11.695  0.2288  1.6492  0.6420
14288TIP3    H264280   4.944   5.590  11.652 -0.5187 -0.9548  1.0416
14289TIP3   OH264281   3.490   5.305  13.304 -0.2320 -0.1296  0.3564
14289TIP3    H164282   3.584   5.315  13.289  0.3232 -1.2296  2.8128
14289TIP3    H264283   3.473   5.212  13.285 -1.1446  0.3938 -1.5321
14290TIP3   OH264284   5.738   1.780   4.297 -0.1599  0.3848 -0.0545
14290TIP3    H164285   5.746   1.767   4.392 -1.8394  0.4020  0.0998
14290TIP3    H264286   5.756   1.694   4.259 -2.5352 -0.3817  0.4718
14291TIP3   OH264287   3.295   3.120   1.577  0.0016 -0.0849  0.0767
14291TIP3    H164288   3.358   3.049   1.593  0.7013  0.0390 -1.9638
14291TIP3    H264289   3.210   3.080   1.593  0.4185 -1.2331 -0.4810
14292TIP3   OH264290   4.178   2.579  16.493  0.6245 -0.1121  0.2487
14292TIP3    H164291   4.169   2.612  16.582  1.3211 -0.6369  0.5207
14292TIP3    H264292   4.092   2.590  16.454  0.3698  0.3018  0.9247
14293TIP3   OH264293   3.326   5.090  13.773  0.2655 -0.2459  0.0319
14293TIP3    H164294   3.383   5.069  13.700 -0.1241 -1.5801  0.0887
14293TIP3    H264295   3.332   5.014  13.831  0.3886  0.6849  1.2800
14294TIP3   OH264296   2.503   2.655   3.115 -0.5287 -0.0312 -0.3951
14294TIP3    H164297   2.507   2.586   3.049 -0.7532  1.2691 -1.8160
14294TIP3    H264298   2.594   2.672   3.138 -0.4869 -0.9747  0.1612
14295TIP3   OH264299   3.941   2.202  14.226  0.6948 -0.6908 -0.0123
14295TIP3    H164300   3.915   2.265  14.159 -0.9400  0.1126  1.3642
14295TIP3    H264301   3.928   2.247  14.309  3.5398 -1.3793  0.8669
14296TIP3   OH264302   1.454   5.746  13.507 -0.8277 -0.2710 -0.0367
14296TIP3    H164303   1.426   5.655  13.499 -1.4576 -0.0291 -0.6112
14296TIP3    H264304   1.420   5.775  13.592 -1.0126 -0.4391 -0.0548
14297TIP3   OH264305   4.378   6.297  15.549 -0.1590 -0.2605  0.1331
14297TIP3    H164306   4.287   6.315  15.526 -0.4614  0.1036  1.5210
14297TIP3    H264307   4.411   6.380  15.584  0.4744 -0.5978  0.3465
14298TIP3   OH264308   0.893   0.402  13.505  0.0965  0.4586  0.1489
14298TIP3    H164309   0.965   0.397  13.443  0.0164  0.7703  0.0254
14298TIP3    H264310   0.900   0.491  13.542  0.2587  0.2093  0.7219
14299TIP3   OH264311   1.704   4.758  12.532  0.0183  0.2894  0.4264
14299TIP3    H164312   1.789   4.782  12.569 -0.2569  0.6821  0.7994
14299TIP3    H264313   1.642   4.773  12.603 -0.2046 -1.1872  0.5438
14300TIP3   OH264314   1.503   5.211  12.896 -0.1536 -1.0128 -0.3146
14300TIP3    H164315   1.439   5.217  12.825 -0.5272 -1.0977  0.0161
14300TIP3    H264316   1.515   5.301  12.926 -0.5090 -1.0594 -0.0296
14301TIP3   OH264317   2.013   5.970  13.874  0.1037 -0.0617 -0.0915
14301TIP3    H164318   2.061   6.001  13.797  0.4265 -0.5352 -0.0821
14301TIP3    H264319   1.947   5.911  13.838  0.0951 -0.0905 -0.0268
14302TIP3   OH264320   0.498   4.691   0.131 -0.0385 -0.2339  0.4453
14302TIP3    H164321   0.408   4.687   0.096 -0.3217 -1.5937  1.3154
14302TIP3    H264322   0.551   4.649   0.064 -0.0909  0.2373  0.1007
14303TIP3   OH264323   5.325   0.997   3.347 -0.0430 -0.0133 -0.1476
14303TIP3    H164324   5.360   1.054   3.279  2.2538 -0.4121  0.6336
14303TIP3    H264325   5.330   0.909   3.310  0.9327 -0.1986  0.4075
14304TIP3   OH264326   1.702   1.614  13.895  0.5030  0.1217 -0.5083
14304TIP3    H164327   1.697   1.698  13.940  0.0466  0.2728 -0.8383
14304TIP3    H264328   1.634   1.560  13.935 -1.1091  0.8331 -2.1909
14305TIP3   OH264329   2.247   5.785   6.287 -1.2364 -0.0439 -0.3185
14305TIP3    H164330   2.232   5.806   6.380 -0.0350 -0.6998  0.0309
14305TIP3    H264331   2.188   5.844   6.240 -1.0052  1.1234  0.8174
14306TIP3   OH264332   5.322   6.218   0.512 -0.2240 -0.1120 -0.2649
14306TIP3    H164333   5.397   6.228   0.569 -0.1440 -0.8174 -0.2327
14306TIP3    H264334   5.247   6.246   0.565 -0.1216 -0.5264  0.1045
14307TIP3   OH264335   3.330   4.962  12.420  0.1713  0.3863  0.5753
14307TIP3    H164336   3.405   4.990  12.368 -1.0810  1.5855 -0.6052
14307TIP3    H264337   3.327   4.866  12.410  0.3189  0.5444 -1.0438
14308TIP3   OH264338   6.292   5.994  16.017 -0.3353  0.3569 -0.5335
14308TIP3    H164339   6.251   6.064  16.068 -0.8614  0.9432 -1.7402
14308TIP3    H264340   6.235   5.984  15.940 -0.6416 -1.8481 -0.0557
14309TIP3   OH264341   6.410   4.910  13.251  0.0518 -0.4267 -0.4578
14309TIP3    H164342   6.482   4.847  13.237 -0.6829 -1.5458  0.6887
14309TIP3    H264343   6.332   4.864  13.220 -0.3070  0.4447 -0.8574
14310TIP3   OH264344   5.227   1.987   0.126  0.1682  0.7809 -0.0410
14310TIP3    H164345   5.165   2.024   0.189  0.0442  0.3290  0.1086
14310TIP3    H264346   5.234   2.053   0.057 -2.3464 -0.1498 -1.2763
14311TIP3   OH264347   4.214   6.694  15.625 -0.4287 -0.8082  0.2606
14311TIP3    H164348   4.243   6.677  15.536 -1.0933 -0.6795  0.0132
14311TIP3    H264349   4.118   6.694  15.619 -0.4758  2.2269  0.4158
14312TIP3   OH264350   1.203   3.238  14.002  0.5796  0.0435 -0.0564
14312TIP3    H164351   1.180   3.326  13.972 -1.6647 -0.2573  0.7132
14312TIP3    H264352   1.138   3.181  13.961  0.0163 -0.8557  2.0628
14313TIP3   OH264353   5.471   4.435   0.091 -0.4825 -0.0372 -0.3118
14313TIP3    H164354   5.486   4.372   0.021 -1.8519 -0.8024  0.0652
14313TIP3    H264355   5.462   4.519   0.047 -0.9820 -0.4611 -1.0163
14314TIP3   OH264356   1.620   2.813   4.812 -0.5166 -0.0041 -0.0738
14314TIP3    H164357   1.559   2.875   4.854  1.2079  1.1538  0.7946
14314TIP3    H264358   1.653   2.860   4.735 -2.0337 -1.3068 -1.5635
14315TIP3   OH264359   3.150   6.702  16.762 -0.3997 -0.0683  0.1033
14315TIP3    H164360   3.163   6.647  16.839 -1.2938 -1.0647 -0.4268
14315TIP3    H264361   3.148   6.791  16.795 -0.8670 -0.4976  1.2512
14316TIP3   OH264362   1.866   1.881   2.852  0.2056  0.1807  0.3716
14316TIP3    H164363   1.937   1.867   2.789 -1.0745 -1.0489 -0.8296
14316TIP3    H264364   1.905   1.864   2.938  0.6996 -3.1607 -0.4699
14317TIP3   OH264365   1.278   4.582  17.089 -0.2306  0.7166 -0.1040
14317TIP3    H164366   1.316   4.590  17.001 -1.3373  0.9121 -0.5768
14317TIP3    H264367   1.216   4.510  17.081 -0.7525  1.1128  0.3753
14318TIP3   OH264368   6.444   2.278   0.747  0.6402  0.4011  0.3246
14318TIP3    H164369   6.393   2.306   0.671  1.0610  0.8021  0.1843
14318TIP3    H264370   6.411   2.330   0.820 -0.0580 -0.2895  0.5115
14319TIP3   OH264371   1.746   6.061   5.451  0.2643 -0.4632  0.0588
14319TIP3    H164372   1.701   6.110   5.521  0.9955 -0.6853  0.6893
14319TIP3    H264373   1.743   6.119   5.376  0.0145  0.0363  0.4482
14320TIP3   OH264374   2.868   0.093   1.661  0.2470  0.1267  0.1490
14320TIP3    H164375   2.809   0.042   1.606  1.1216 -1.8545  0.9985
14320TIP3    H264376   2.822   0.100   1.745 -0.2427  1.4950 -0.2193
14321TIP3   OH264377   6.690   5.028  15.141  0.6392  0.6667 -0.3971
14321TIP3    H164378   6.682   5.123  15.151 -3.3234  0.6356 -2.1819
14321TIP3    H264379   6.653   5.010  15.054 -1.8576 -2.8029  1.2651
14322TIP3   OH264380   3.262   1.220   2.643 -0.2458 -0.0619 -0.5077
14322TIP3    H164381   3.335   1.276   2.668  1.3754 -2.3513  0.0277
14322TIP3    H264382   3.187   1.280   2.637  1.8143  2.4548 -1.8846
14323TIP3   OH264383   0.831   6.178  15.039 -0.0711 -0.1700  0.2325
14323TIP3    H164384   0.826   6.083  15.029  0.7673 -0.3806  1.6727
14323TIP3    H264385   0.916   6.202  15.002  0.1796 -0.1184  0.8398
14324TIP3   OH264386   4.847   1.696   2.305 -0.1624 -0.1574  0.1168
14324TIP3    H164387   4.886   1.770   2.258  0.0878 -1.1538 -1.2824
14324TIP3    H264388   4.818   1.637   2.236 -2.0153 -0.5302  1.1929
14325TIP3   OH264389   6.096   6.192  12.184  0.5817 -0.0684 -0.2778
14325TIP3    H164390   6.177   6.194  12.133  1.4116 -0.5444  1.0222
14325TIP3    H264391   6.122   6.159  12.270 -1.2479 -1.7487 -0.3406
14326TIP3   OH264392   0.949   0.973  12.124 -0.5268 -0.0161  0.7840
14326TIP3    H164393   1.019   1.036  12.140  0.8830 -1.2038 -0.5070
14326TIP3    H264394   0.889   0.983  12.199  0.4670  1.7474  1.3601
14327TIP3   OH264395   6.263   5.256  16.379  0.2301 -0.0684  0.1541
14327TIP3    H164396   6.303   5.224  16.298  1.5194  0.1457  0.6966
14327TIP3    H264397   6.174   5.221  16.377  0.1624  0.1570 -1.4786
14328TIP3   OH264398   6.203   1.906  17.043 -0.4418  0.0644  0.2170
14328TIP3    H164399   6.269   1.843  17.073 -1.9170 -0.3857  2.6226
14328TIP3    H264400   6.232   1.930  16.954  2.3124 -0.9757  0.7688
14329TIP3   OH264401   1.621   0.645  16.037  0.1070 -0.2139 -0.1547
14329TIP3    H164402   1.544   0.695  16.063  0.7939 -0.5376  2.5622
14329TIP3    H264403   1.691   0.710  16.026 -0.0225 -0.1522 -0.6579
14330TIP3   OH264404   1.159   3.026  16.174  0.1383 -0.7331 -0.3830
14330TIP3    H164405   1.099   2.953  16.158  0.0647 -0.6155 -0.6451
14330TIP3    H264406   1.133   3.093  16.110 -2.7009  1.2698  2.6578
14331TIP3   OH264407   1.895   5.128   2.900 -0.1557  0.2281  0.1424
14331TIP3    H164408   1.988   5.148   2.887 -0.2023 -0.9604 -2.1970
14331TIP3    H264409   1.874   5.067   2.830 -1.8539 -2.2395  2.7128
14332TIP3   OH264410   2.975   1.614   0.089  0.3393  0.2630  0.3773
14332TIP3    H164411   2.946   1.560   0.162 -1.4758  1.8599  0.8619
14332TIP3    H264412   2.995   1.699   0.127 -0.7123  1.1423 -0.9823
14333TIP3   OH264413   4.021   5.556   2.786 -0.4284  0.4125 -0.3332
14333TIP3    H164414   4.001   5.619   2.855 -2.5746 -1.0022  0.3794
14333TIP3    H264415   4.013   5.605   2.705 -0.2109  1.5112  0.2978
14334TIP3   OH264416   3.344   4.905   2.447  0.3065 -0.1218  0.1944
14334TIP3    H164417   3.292   4.828   2.421 -0.4469  0.1320  0.9284
14334TIP3    H264418   3.309   4.929   2.533  0.2985  1.2572 -0.1826
14335TIP3   OH264419   3.772   5.451   0.135 -0.4320 -0.1875  0.0563
14335TIP3    H164420   3.743   5.422   0.048 -2.2310 -0.6842  0.8039
14335TIP3    H264421   3.701   5.424   0.194  1.8595 -2.0356  2.0481
14336TIP3   OH264422   6.691   5.496  16.982 -0.0610 -0.1135  0.8069
14336TIP3    H164423   6.728   5.459  17.062  1.2247  0.8476  0.6844
14336TIP3    H264424   6.723   5.586  16.980 -0.0800 -0.1212 -0.7767
14337TIP3   OH264425   3.704   5.649  14.501  0.3928 -0.0069  0.6345
14337TIP3    H164426   3.716   5.569  14.449  0.4675  0.3695  0.0730
14337TIP3    H264427   3.670   5.713  14.439 -0.1549  0.2576  1.1977
14338TIP3   OH264428   1.277   0.554  11.012 -0.4929  0.2859  0.0621
14338TIP3    H164429   1.243   0.564  10.923 -1.0010  0.6181  0.2900
14338TIP3    H264430   1.229   0.620  11.063 -0.5056 -0.1882  0.6641
14339TIP3   OH264431   1.774   4.928  14.415 -0.0859  0.1624 -0.1029
14339TIP3    H164432   1.758   5.018  14.385 -0.1544  0.3812  0.5774
14339TIP3    H264433   1.702   4.877  14.379 -1.6041  0.9002  1.8484
14340TIP3   OH264434   2.062   6.684  16.182 -0.7572 -0.0589 -0.3602
14340TIP3    H164435   2.029   6.614  16.239 -1.3094  0.9404  0.5676
14340TIP3    H264436   2.156   6.666  16.175 -0.3712  0.6759  2.1954
14341TIP3   OH264437   5.220   5.856   4.401  0.3219 -0.3605 -0.1898
14341TIP3    H164438   5.132   5.832   4.373  0.1198  1.1813 -0.9222
14341TIP3    H264439   5.278   5.802   4.347 -0.1635 -1.4415  0.3583
14342TIP3   OH264440   3.160   0.406   5.412 -0.5874  0.2052  0.0227
14342TIP3    H164441   3.184   0.339   5.348 -2.0054  0.2148 -0.5375
14342TIP3    H264442   3.074   0.437   5.383 -0.1316  1.9779  0.5090
14343TIP3   OH264443   3.207   5.075   6.325  0.1364  0.0785 -0.2231
14343TIP3    H164444   3.142   5.009   6.348  0.2235  0.4129  1.0005
14343TIP3    H264445   3.290   5.041   6.358  0.2195  0.6973  0.2124
14344TIP3   OH264446   3.137   5.146  12.390 -0.2191 -0.7284 -0.2515
14344TIP3    H164447   3.211   5.088  12.404 -0.4901 -0.5616  2.0423
14344TIP3    H264448   3.153   5.220  12.448  0.0407  1.4603 -3.0112
14345TIP3   OH264449   0.987   5.062  11.997 -0.2800 -0.0025  0.3109
14345TIP3    H164450   1.000   5.157  11.999  0.9618 -0.1537  0.0960
14345TIP3    H264451   0.966   5.043  11.906 -0.4459  0.0617  0.3374
14346TIP3   OH264452   1.015   5.123   5.400  0.3745 -0.1066 -0.6837
14346TIP3    H164453   1.001   5.036   5.364  0.0210 -0.3303  0.0028
14346TIP3    H264454   1.055   5.108   5.485 -1.4855  0.3459  0.2794
14347TIP3   OH264455   4.597   4.406  12.932  0.0775 -0.3530 -0.4862
14347TIP3    H164456   4.532   4.360  12.986  0.1673  1.4071  1.1435
14347TIP3    H264457   4.635   4.337  12.878 -0.9092 -1.9441  0.7909
14348TIP3   OH264458   3.508   0.666   1.920 -0.4469  0.3711  0.2708
14348TIP3    H164459   3.541   0.623   1.999  0.7052 -0.2090 -0.5203
14348TIP3    H264460   3.570   0.737   1.904  0.7432 -1.0412 -1.5194
14349TIP3   OH264461   6.503   6.748   4.709 -0.2590  0.3099  0.3705
14349TIP3    H164462   6.591   6.750   4.670 -1.1344  2.0619 -1.6394
14349TIP3    H264463   6.506   6.677   4.773  0.9216 -3.4744 -3.7043
14350TIP3   OH264464   4.779   1.296  16.224 -0.1319 -0.3110  0.1448
14350TIP3    H164465   4.865   1.330  16.201 -0.0695 -0.5899 -0.0430
14350TIP3    H264466   4.795   1.240  16.300 -0.1248 -0.4653  0.0337
14351TIP3   OH264467   1.542   6.635  12.097 -0.3315 -0.1060  0.3330
14351TIP3    H164468   1.503   6.621  12.010  1.2686  0.9399 -0.5885
14351TIP3    H264469   1.595   6.714  12.086  0.8611 -0.6783  1.9388
14352TIP3   OH264470   6.475   3.676  14.770  0.1476 -0.0161 -0.0221
14352TIP3    H164471   6.452   3.759  14.728 -2.1057  0.7126  2.5327
14352TIP3    H264472   6.556   3.696  14.818  1.1172 -0.0691 -1.6054
14353TIP3   OH264473   5.355   1.754  15.631  0.0121  0.6288 -0.0687
14353TIP3    H164474   5.402   1.702  15.566 -1.6393  0.4293 -1.1239
14353TIP3    H264475   5.334   1.692  15.701  0.7474  0.5794  0.1132
14354TIP3   OH264476   1.084   2.805  16.494 -0.1788  0.7019  0.0620
14354TIP3    H164477   1.000   2.809  16.448  0.8423 -0.0546 -1.9417
14354TIP3    H264478   1.127   2.888  16.472  0.8424 -0.2091 -1.4262
14355TIP3   OH264479   5.545   4.281  14.737  1.0734 -0.2618 -0.2035
14355TIP3    H164480   5.510   4.270  14.648 -2.1423 -0.9828  1.0840
14355TIP3    H264481   5.624   4.226  14.738  1.0064 -0.4787 -2.4998
14356TIP3   OH264482   2.634   2.850   1.429 -0.0847 -0.5011  0.6236
14356TIP3    H164483   2.696   2.784   1.399 -1.4555 -0.5821 -2.2206
14356TIP3    H264484   2.689   2.919   1.465  1.6063 -1.2764 -0.3950
14357TIP3   OH264485   3.472   2.913   1.674 -0.3637 -0.5223  0.4543
14357TIP3    H164486   3.444   2.891   1.585  0.3662 -0.8054  0.2827
14357TIP3    H264487   3.557   2.955   1.662  1.4825 -3.8197  1.2212
14358TIP3   OH264488   4.131   0.315   6.037  0.3858 -0.3994  0.2456
14358TIP3    H164489   4.057   0.263   6.069 -0.6709  2.0139  1.8666
14358TIP3    H264490   4.095   0.364   5.963  0.2160  1.0876  1.2927
14359TIP3   OH264491   4.389   5.666  11.701  0.6225  0.3353 -0.2883
14359TIP3    H164492   4.324   5.633  11.638 -0.7240 -0.9135  1.6843
14359TIP3    H264493   4.398   5.759  11.679  0.2848 -0.0941 -2.3865
14360TIP3   OH264494   4.304   1.220   2.747 -0.1745  0.1257 -0.3552
14360TIP3    H164495   4.380   1.247   2.695  0.2891  0.7059  0.6196
14360TIP3    H264496   4.269   1.144   2.700  0.9779 -0.1216 -0.8342
14361TIP3   OH264497   1.140   3.707   6.131  0.4075 -0.2005 -0.2412
14361TIP3    H164498   1.165   3.648   6.061  1.6114  0.7600 -0.6354
14361TIP3    H264499   1.197   3.684   6.204 -2.0903 -2.4476  1.0836
14362TIP3   OH264500   1.290   2.312   4.355 -0.0824 -0.4920  0.0150
14362TIP3    H164501   1.240   2.358   4.286  0.9469 -0.5836 -0.8098
14362TIP3    H264502   1.327   2.236   4.310 -0.0822 -1.0052  0.8853
14363TIP3   OH264503   4.379   2.838  16.521  0.1390 -0.5123 -0.6499
14363TIP3    H164504   4.374   2.768  16.456 -1.4052  0.7829 -1.9518
14363TIP3    H264505   4.431   2.800  16.592  1.2106 -2.2125 -2.2804
14364TIP3   OH264506   4.632   6.514  14.105  0.6057  0.4744 -0.3674
14364TIP3    H164507   4.602   6.438  14.155  1.1993  0.4901  0.0195
14364TIP3    H264508   4.711   6.543  14.150  0.8019  0.8676 -0.9506
14365TIP3   OH264509   6.426   4.070  15.939 -0.2968  0.1312 -0.5286
14365TIP3    H164510   6.434   4.114  15.854 -1.4554  0.3710 -0.5172
14365TIP3    H264511   6.371   3.994  15.922 -2.2268  1.2833  0.4009
14366TIP3   OH264512   0.916   3.469  16.172 -0.3865  1.5727  0.1633
14366TIP3    H164513   1.011   3.464  16.158 -0.5372  1.9887 -1.0735
14366TIP3    H264514   0.885   3.380  16.159 -0.2691  1.5909 -0.2444
14367TIP3   OH264515   5.167   6.101   6.257 -0.2501 -0.5893  0.0208
14367TIP3    H164516   5.094   6.160   6.273  0.0484 -0.6142  1.5419
14367TIP3    H264517   5.197   6.122   6.169 -1.7120 -0.1789 -0.3806
14368TIP3   OH264518   1.661   5.495  14.742 -0.6505 -0.0720 -0.3215
14368TIP3    H164519   1.680   5.402  14.731 -1.1032 -0.0257 -1.5696
14368TIP3    H264520   1.604   5.499  14.818 -0.4851 -0.7996 -0.1543
14369TIP3   OH264521   1.422   4.730  16.429 -0.2233  0.7400  0.5844
14369TIP3    H164522   1.387   4.815  16.456 -0.5251  1.4305 -1.8586
14369TIP3    H264523   1.345   4.676  16.412 -0.0752  0.9171 -0.6885
14370TIP3   OH264524   5.933   1.954   4.587  0.3997  0.1153  0.1155
14370TIP3    H164525   5.879   1.875   4.580 -0.6320  0.8921 -0.8291
14370TIP3    H264526   5.898   2.001   4.663 -0.7976  1.0149 -0.9777
14371TIP3   OH264527   2.719   2.890   2.518  0.0544 -0.4893  0.8806
14371TIP3    H164528   2.712   2.845   2.602 -0.3785 -1.6925  0.2028
14371TIP3    H264529   2.677   2.831   2.455 -0.4333  0.8158 -0.0291
14372TIP3   OH264530   2.243   4.642  12.484 -0.0514  0.2454  0.3559
14372TIP3    H164531   2.196   4.683  12.411 -1.1820 -0.0993  0.8667
14372TIP3    H264532   2.321   4.696  12.496  1.3817 -1.0529 -2.6254
14373TIP3   OH264533   6.366   1.393  13.251 -0.0456  0.2566 -0.6583
14373TIP3    H164534   6.356   1.435  13.337  1.5022  3.6218 -2.0016
14373TIP3    H264535   6.378   1.300  13.270 -2.5079  0.5447  2.5848
14374TIP3   OH264536   1.477   1.550   5.181  0.7095 -0.0483  0.1311
14374TIP3    H164537   1.430   1.617   5.132  0.5044  0.8147  1.4836
14374TIP3    H264538   1.458   1.569   5.273  1.4177 -1.3870  0.5754
14375TIP3   OH264539   0.352   2.565  13.392 -0.4246 -0.2125 -0.0626
14375TIP3    H164540   0.383   2.563  13.301  1.1614  2.1460  0.3712
14375TIP3    H264541   0.414   2.509  13.439  1.3041  1.8651  0.2302
14376TIP3   OH264542   5.185   2.060   3.037  0.2148 -0.1753  0.6619
14376TIP3    H164543   5.265   2.038   2.989 -0.5759 -0.8345 -0.3637
14376TIP3    H264544   5.211   2.131   3.095  1.0736  0.9173 -1.0370
14377TIP3   OH264545   5.058   6.527   1.891 -0.7318  0.1093  0.2378
14377TIP3    H164546   5.001   6.476   1.950  0.1423 -0.3935  0.6623
14377TIP3    H264547   5.087   6.464   1.825 -0.0471  0.1729  0.4735
14378TIP3   OH264548   1.762   2.176   4.111  0.3586  0.3194  0.4406
14378TIP3    H164549   1.777   2.153   4.202  0.9613 -2.2807 -0.2795
14378TIP3    H264550   1.849   2.187   4.074  0.1531 -0.1314 -0.1850
14379TIP3   OH264551   6.514   4.092   1.199 -0.1898  0.4432  0.0082
14379TIP3    H164552   6.553   4.060   1.118 -1.1519 -1.2208  0.1700
14379TIP3    H264553   6.423   4.064   1.194  0.2749 -1.8104  2.6718
14380TIP3   OH264554   0.281   2.979  16.909 -0.3014  0.2694 -0.1309
14380TIP3    H164555   0.190   2.998  16.885 -0.9688  0.5934  2.5077
14380TIP3    H264556   0.304   2.901  16.859 -1.5705  0.9898 -1.8720
14381TIP3   OH264557   4.369   1.936  15.754 -0.2691 -0.2216  0.1629
14381TIP3    H164558   4.312   1.890  15.816 -1.4840  0.3570 -0.4998
14381TIP3    H264559   4.444   1.877  15.742 -1.2264 -1.4804  0.2613
14382TIP3   OH264560   1.977   2.061  15.241 -0.6057  0.6898  0.0502
14382TIP3    H164561   1.963   2.039  15.148  1.4575 -0.6582  0.0360
14382TIP3    H264562   1.898   2.110  15.265 -1.3112  0.8299 -2.3374
14383TIP3   OH264563   4.070   0.236  15.286  0.3444  0.3619 -0.0513
14383TIP3    H164564   4.151   0.228  15.337  1.5397  0.5740 -1.8405
14383TIP3    H264565   4.066   0.328  15.262 -1.2799  0.6735  1.3287
14384TIP3   OH264566   1.971   0.266   1.986  0.0559 -1.3442 -0.2007
14384TIP3    H164567   2.040   0.204   1.963  2.4983  1.4604 -0.7087
14384TIP3    H264568   1.974   0.272   2.082  1.5224 -0.1338 -0.3158
14385TIP3   OH264569   3.570   0.224  16.601 -0.1497 -0.4554  0.0093
14385TIP3    H164570   3.609   0.151  16.553  1.5914 -0.3921  1.2869
14385TIP3    H264571   3.621   0.300  16.574 -0.1271 -0.1826  0.8070
14386TIP3   OH264572   1.988   2.521   2.077  0.3276 -1.1598  0.1764
14386TIP3    H164573   1.996   2.565   2.162 -0.6215 -1.6154  0.5005
14386TIP3    H264574   1.898   2.537   2.050  0.5892 -1.1308 -0.6905
14387TIP3   OH264575   4.008   6.080  10.547  0.0630  0.3990 -0.8276
14387TIP3    H164576   4.063   6.089  10.624 -1.2844 -0.8405  0.3001
14387TIP3    H264577   4.027   5.992  10.514 -0.7831  0.1940 -0.7764
14388TIP3   OH264578   0.673   5.893   1.859 -0.0908  0.4224  0.0874
14388TIP3    H164579   0.678   5.987   1.847 -1.4336  0.3647 -1.1222
14388TIP3    H264580   0.597   5.866   1.808 -1.7200 -0.8824  3.0687
14389TIP3   OH264581   0.976   1.891  10.997  0.3656  0.3487 -0.3065
14389TIP3    H164582   0.920   1.814  10.983  1.8756 -0.6878 -0.8678
14389TIP3    H264583   0.934   1.960  10.946 -0.3820 -0.4175 -0.7570
14390TIP3   OH264584   1.923   3.368   3.891 -1.0573  0.1478  0.6471
14390TIP3    H164585   1.896   3.455   3.921 -2.0007  0.3548 -0.7167
14390TIP3    H264586   1.991   3.341   3.952 -1.3054  1.5176  1.5506
14391TIP3   OH264587   5.874   1.523   5.190  0.2290  0.5970 -0.2092
14391TIP3    H164588   5.780   1.515   5.209  0.0855 -0.2732 -1.2504
14391TIP3    H264589   5.894   1.615   5.206 -0.8193  0.7985 -0.0317
14392TIP3   OH264590   5.701   4.290   3.255  0.0442  0.2921 -0.1749
14392TIP3    H164591   5.688   4.364   3.315 -0.1189  0.7737 -0.8035
14392TIP3    H264592   5.796   4.289   3.241  0.1172 -0.0033  0.3164
14393TIP3   OH264593   2.138   2.941  16.486 -0.2908  0.3649 -0.9680
14393TIP3    H164594   2.135   2.934  16.391  0.9936  0.1401 -1.0008
14393TIP3    H264595   2.130   3.035  16.503  0.0426  0.4619 -1.3284
14394TIP3   OH264596   4.693   1.462   3.822  0.2210  0.5566 -0.4386
14394TIP3    H164597   4.673   1.522   3.751 -1.9538  0.0779 -0.2635
14394TIP3    H264598   4.615   1.407   3.830  2.5860 -3.1686 -1.4457
14395TIP3   OH264599   2.449   5.644  12.352  0.1905  0.3478  0.3494
14395TIP3    H164600   2.427   5.734  12.326 -3.3502 -1.2412 -2.7244
14395TIP3    H264601   2.520   5.618  12.293 -0.2511  0.4535 -0.2367
14396TIP3   OH264602   0.989   5.970   2.012 -0.2638  0.1305 -0.5305
14396TIP3    H164603   0.976   6.010   2.098 -0.7343  1.0934 -1.0296
14396TIP3    H264604   1.039   5.891   2.029  0.3184  0.7145  0.5431
14397TIP3   OH264605   3.926   6.524  12.865 -0.0402 -0.6049  0.0718
14397TIP3    H164606   3.888   6.603  12.827 -0.7249 -0.6626  0.6172
14397TIP3    H264607   3.998   6.501  12.807 -1.0068 -0.6327 -1.1155
14398TIP3   OH264608   2.306   2.485  16.695  0.0597 -0.0904  0.0363
14398TIP3    H164609   2.329   2.415  16.634 -0.0019 -0.5407  0.5251
14398TIP3    H264610   2.293   2.562  16.639  0.4095 -0.3981 -0.4771
14399TIP3   OH264611   0.985   3.279  15.083 -0.3498 -0.1828 -0.1459
14399TIP3    H164612   1.026   3.269  14.997  0.9046  1.6035  0.2187
14399TIP3    H264613   1.042   3.229  15.142 -0.3258 -0.1008 -0.1004
14400TIP3   OH264614   4.031   0.392   1.387 -0.0922 -0.7062 -0.1743
14400TIP3    H164615   3.988   0.458   1.333  0.5238 -0.6692 -0.6316
14400TIP3    H264616   3.992   0.309   1.358  0.1058 -0.6691 -0.5603
14401TIP3   OH264617   3.090   0.587  12.156 -0.2175  0.6734  0.1209
14401TIP3    H164618   3.035   0.528  12.105 -1.2544  0.7389  1.1599
14401TIP3    H264619   3.086   0.671  12.109  0.5379  0.1726 -0.8523
14402TIP3   OH264620   0.959   4.589  14.089 -0.6872 -0.4160  0.2758
14402TIP3    H164621   1.000   4.596  14.002 -0.9681 -1.6103  0.0472
14402TIP3    H264622   1.014   4.643  14.145  0.1109 -0.4839 -0.4291
14403TIP3   OH264623   0.962   2.436  15.992  0.1953 -0.5462  0.0729
14403TIP3    H164624   0.916   2.520  15.992  0.6909 -0.2384  2.1897
14403TIP3    H264625   1.054   2.460  15.981  0.3164 -0.8166  0.4787
14404TIP3   OH264626   0.415   0.748  11.706  0.4323 -0.2127  0.4559
14404TIP3    H164627   0.355   0.822  11.713 -2.6282 -2.7079  1.3170
14404TIP3    H264628   0.463   0.749  11.788  1.6503  1.7621 -0.2183
14405TIP3   OH264629   4.729   5.116  14.026 -0.1704  0.6464 -0.6852
14405TIP3    H164630   4.757   5.207  14.015  1.6153  0.6917  3.1934
14405TIP3    H264631   4.660   5.121  14.093 -1.5072 -0.6653 -1.9490
14406TIP3   OH264632   3.522   5.753  16.097  0.1394 -0.3857  0.4523
14406TIP3    H164633   3.517   5.802  16.179  1.2969  3.2066 -1.4837
14406TIP3    H264634   3.616   5.752  16.076  0.0689 -2.9384  0.0820
14407TIP3   OH264635   1.851   0.528   5.810  0.1391 -0.4867 -0.5747
14407TIP3    H164636   1.929   0.574   5.778  0.9618 -0.5835  1.2195
14407TIP3    H264637   1.785   0.596   5.819  0.0613 -0.3791 -1.9780
14408TIP3   OH264638   0.209   0.818  16.381  0.1239  0.1836 -0.3725
14408TIP3    H164639   0.292   0.844  16.420 -0.1315  0.8073 -0.2503
14408TIP3    H264640   0.233   0.751  16.316  0.7542  0.6114 -0.5796
14409TIP3   OH264641   0.370   6.045   2.371  0.1004  0.7992 -0.0195
14409TIP3    H164642   0.439   5.988   2.404 -0.7294 -0.1962  0.0420
14409TIP3    H264643   0.415   6.112   2.320  1.0530 -0.2133 -0.5207
14410TIP3   OH264644   6.563   5.385  12.266  0.0599  0.0741  0.2649
14410TIP3    H164645   6.497   5.399  12.198  0.6937  1.3647 -0.1011
14410TIP3    H264646   6.646   5.402  12.222  0.5366  0.0665  1.1531
14411TIP3   OH264647   0.254   0.475  11.648 -0.5625 -0.2905 -0.0106
14411TIP3    H164648   0.267   0.428  11.730 -1.5295  0.4084  0.5461
14411TIP3    H264649   0.331   0.533  11.641 -1.1332  0.6204  1.0736
14412TIP3   OH264650   0.282   2.753  11.711 -0.0613 -0.2633 -0.0388
14412TIP3    H164651   0.370   2.737  11.745 -0.1002 -0.8239 -0.1846
14412TIP3    H264652   0.293   2.750  11.616  0.4929  3.7297 -0.1652
14413TIP3   OH264653   6.057   2.719   6.191 -0.5409  0.0160 -0.4419
14413TIP3    H164654   6.091   2.662   6.261  0.8327  0.4740 -0.7212
14413TIP3    H264655   6.035   2.658   6.120  1.5219 -0.1349 -0.9779
14414TIP3   OH264656   5.506   2.514  11.557 -0.3229  0.1612  0.3565
14414TIP3    H164657   5.574   2.519  11.490 -0.7255 -0.2256 -0.0817
14414TIP3    H264658   5.427   2.547  11.515 -0.5102  0.1965  0.7273
14415TIP3   OH264659   2.376   0.413   6.814 -0.6004 -0.2013 -0.2046
14415TIP3    H164660   2.303   0.388   6.871  1.2663 -1.8319  1.5540
14415TIP3    H264661   2.404   0.499   6.847 -0.7404 -0.2820  0.1340
14416TIP3   OH264662   3.040   1.381   2.621  0.5269  0.2674  0.4502
14416TIP3    H164663   3.007   1.314   2.681  0.2862  0.6399  0.7355
14416TIP3    H264664   3.014   1.464   2.661 -0.6652  0.4957 -0.7755
14417TIP3   OH264665   1.800   0.799  15.723  0.3947  0.0767 -0.0514
14417TIP3    H164666   1.797   0.845  15.639 -2.1093  1.8669  0.9623
14417TIP3    H264667   1.751   0.718  15.708 -0.1956  0.4737 -0.2921
14418TIP3   OH264668   3.843   2.323  13.122  0.3273  0.1378  0.2783
14418TIP3    H164669   3.860   2.300  13.030 -0.1262 -0.9702  0.4700
14418TIP3    H264670   3.766   2.380  13.118  1.0479  1.1190 -0.1289
14419TIP3   OH264671   0.618   0.681   4.599 -0.7597  0.2099 -0.0092
14419TIP3    H164672   0.638   0.677   4.692  2.0746 -3.6243 -0.6327
14419TIP3    H264673   0.683   0.742   4.563 -1.5587  1.3310  0.4309
14420TIP3   OH264674   1.988   2.259   1.339  0.3409  1.0061  0.3200
14420TIP3    H164675   1.970   2.231   1.428 -1.5568 -0.6615 -0.5473
14420TIP3    H264676   2.074   2.300   1.343  1.0175 -0.5634  2.5850
14421TIP3   OH264677   0.627   4.144   3.811  0.2480  0.5703 -0.0263
14421TIP3    H164678   0.603   4.211   3.747 -1.1091  0.4646  0.3596
14421TIP3    H264679   0.692   4.187   3.867 -1.5733  2.0362  1.0250
14422TIP3   OH264680   0.519   2.163  13.876 -0.3471 -0.3434 -0.2093
14422TIP3    H164681   0.505   2.078  13.916  1.0595 -0.3786  0.2313
14422TIP3    H264682   0.436   2.210  13.889 -2.4979 -2.8903 -3.6890
14423TIP3   OH264683   4.341   0.974   3.175 -0.3045  0.2120 -0.5226
14423TIP3    H164684   4.334   0.954   3.269 -1.2710 -3.1748 -1.2747
14423TIP3    H264685   4.336   1.070   3.171 -0.6444  0.3966  2.8478
14424TIP3   OH264686   3.904   2.458   4.826  0.5565 -0.1927  0.2482
14424TIP3    H164687   3.841   2.399   4.784  0.1729  0.0800  0.4432
14424TIP3    H264688   3.872   2.467   4.916 -0.3120  1.6265 -0.2256
14425TIP3   OH264689   6.511   1.732  12.585  0.5207  0.0021  0.3076
14425TIP3    H164690   6.438   1.780  12.624  1.3921  0.9371  0.8107
14425TIP3    H264691   6.523   1.655  12.641 -0.4149 -0.4254 -0.0796
14426TIP3   OH264692   6.697   0.280  16.396  0.2490  0.8939 -0.1290
14426TIP3    H164693   6.643   0.359  16.408 -0.5998  0.4659 -1.0177
14426TIP3    H264694   6.772   0.310  16.345 -0.3494  1.0320 -0.9428
14427TIP3   OH264695   4.870   2.302   3.661  0.1890  0.2542  0.2883
14427TIP3    H164696   4.901   2.343   3.580 -1.0286 -0.7747 -0.7165
14427TIP3    H264697   4.948   2.298   3.716  2.0393 -2.6853 -2.3333
14428TIP3   OH264698   3.142   1.084  14.429  0.3279 -0.2328 -0.2972
14428TIP3    H164699   3.070   1.035  14.390 -0.6516  2.0396 -1.4466
14428TIP3    H264700   3.133   1.069  14.523  0.0823 -2.2427 -0.6150
14429TIP3   OH264701   3.128   6.245   5.256 -0.1106  0.0849  0.2474
14429TIP3    H164702   3.117   6.244   5.351  0.9931  0.0581  0.3918
14429TIP3    H264703   3.164   6.332   5.237 -0.9399  0.3225 -0.2210
14430TIP3   OH264704   4.827   1.260  12.871 -0.3563 -0.6178 -0.8065
14430TIP3    H164705   4.918   1.261  12.901 -0.4254  2.3893 -0.5917
14430TIP3    H264706   4.824   1.190  12.806  1.9019 -1.2957 -0.2337
14431TIP3   OH264707   0.382   6.218  15.338  0.1972  0.6904 -0.7667
14431TIP3    H164708   0.381   6.127  15.308  1.9688  0.3042  0.2923
14431TIP3    H264709   0.302   6.225  15.391  0.5396 -0.5286 -0.0597
14432TIP3   OH264710   4.930   6.095   1.269 -0.0438 -0.3926  0.3485
14432TIP3    H164711   4.888   6.089   1.183  0.7510 -0.8219 -0.0164
14432TIP3    H264712   4.919   6.008   1.307  1.4320 -0.8377 -0.1929
14433TIP3   OH264713   5.318   0.666   1.003 -0.3447 -0.4093 -0.0044
14433TIP3    H164714   5.386   0.672   0.936 -2.0152  3.3460 -1.4932
14433TIP3    H264715   5.351   0.718   1.077  0.1565 -1.9779  0.8886
14434TIP3   OH264716   5.913   6.697  16.360  0.0222  0.2225 -0.2676
14434TIP3    H164717   5.876   6.729  16.443  1.5891  0.1424  0.4754
14434TIP3    H264718   5.937   6.606  16.379 -0.7197 -0.1661 -1.1785
14435TIP3   OH264719   2.128   5.145   5.730 -0.3262  0.3700  0.4542
14435TIP3    H164720   2.057   5.210   5.738 -0.3340  0.3107  0.8364
14435TIP3    H264721   2.168   5.166   5.645 -0.4290  0.7757  0.5006
14436TIP3   OH264722   0.694   4.659  14.056 -0.1655  0.4995 -0.1573
14436TIP3    H164723   0.705   4.747  14.019  1.7603 -0.0558 -0.9511
14436TIP3    H264724   0.782   4.624  14.062 -1.0238 -1.9559 -1.2358
14437TIP3   OH264725   5.196   5.351  11.920  0.0422  0.2397 -0.0920
14437TIP3    H164726   5.216   5.427  11.866  0.4669 -0.8263 -1.4622
14437TIP3    H264727   5.273   5.294  11.910 -0.2725 -0.3698  0.9196
14438TIP3   OH264728   4.050   3.041  15.531  0.3883  0.7067 -0.7336
14438TIP3    H164729   3.988   2.987  15.580  0.5072 -0.3410 -1.7038
14438TIP3    H264730   4.089   3.098  15.596 -0.6851  0.5051  0.1028
14439TIP3   OH264731   2.477   0.078  12.244  0.0329  0.1065  0.1444
14439TIP3    H164732   2.386   0.054  12.224  0.1772 -0.9634  0.7160
14439TIP3    H264733   2.529   0.010  12.202  0.6280  1.3463 -1.1262
14440TIP3   OH264734   3.473   4.040  12.425 -0.2698  0.5715  0.8151
14440TIP3    H164735   3.557   4.083  12.410  0.2544  0.2247  2.6174
14440TIP3    H264736   3.442   4.075  12.509 -2.0807  0.9219  0.0299
14441TIP3   OH264737   6.692   1.339   5.471 -0.0700  0.0055  0.7167
14441TIP3    H164738   6.747   1.265   5.497  1.3967  1.5108  2.0261
14441TIP3    H264739   6.648   1.366   5.552 -0.0089  1.0441  0.4130
14442TIP3   OH264740   6.236   0.051   2.178  0.0161  0.3112 -0.1918
14442TIP3    H164741   6.263   0.139   2.202  0.2826  0.1741  0.0167
14442TIP3    H264742   6.296  -0.006   2.225 -0.4483  0.0076  0.0399
14443TIP3   OH264743   4.468   3.643   3.652 -0.0736 -0.0642  0.4650
14443TIP3    H164744   4.522   3.640   3.731  0.8697  0.7697 -0.1249
14443TIP3    H264745   4.474   3.555   3.616 -0.6522 -0.4930  1.4238
14444TIP3   OH264746   1.311   2.231  13.843  0.3785  0.1840  0.6215
14444TIP3    H164747   1.277   2.289  13.775  2.0523 -0.9967 -1.2933
14444TIP3    H264748   1.370   2.286  13.895 -3.6759  2.0346  3.4771
14445TIP3   OH264749   4.279   0.917   5.733 -0.3358  0.5057  0.5587
14445TIP3    H164750   4.358   0.903   5.680  0.1956  2.4673  0.8061
14445TIP3    H264751   4.241   0.998   5.699 -1.5077  0.3018  1.3547
14446TIP3   OH264752   0.252   1.633  12.465 -0.4921 -0.3434 -0.2176
14446TIP3    H164753   0.235   1.545  12.498  1.8228  0.2488  2.8057
14446TIP3    H264754   0.346   1.633  12.445 -0.2908  1.6508  0.5995
14447TIP3   OH264755   0.034   1.775  14.108 -0.5740 -0.4213 -0.5482
14447TIP3    H164756   0.082   1.819  14.038 -0.1013  0.8706  0.5672
14447TIP3    H264757   0.079   1.800  14.188 -1.8815 -0.8431  0.3434
14448TIP3   OH264758   2.390   5.003   2.434 -0.1436 -0.4651 -0.0806
14448TIP3    H164759   2.451   5.067   2.396  1.4388 -0.6212  2.1496
14448TIP3    H264760   2.309   5.014   2.383  0.9393  1.4962 -1.4209
14449TIP3   OH264761   6.144   0.977   4.542 -0.0485 -0.4949 -0.6983
14449TIP3    H164762   6.178   0.946   4.626 -1.8804 -0.7532 -0.0262
14449TIP3    H264763   6.157   1.072   4.545 -0.4610 -0.4582  0.0450
14450TIP3   OH264764   3.947   6.582   0.299 -0.0994 -0.0256 -0.7433
14450TIP3    H164765   4.030   6.538   0.317 -0.1373 -0.0721 -0.6864
14450TIP3    H264766   3.900   6.580   0.382 -0.5123 -0.7538 -0.9947
14451TIP3   OH264767   5.845   2.799   5.271  0.2433 -0.1092  0.0296
14451TIP3    H164768   5.775   2.814   5.334  0.0682 -2.2165  0.3952
14451TIP3    H264769   5.888   2.884   5.261 -0.5979  0.5643  1.9217
14452TIP3   OH264770   0.499   0.379   3.938 -0.4274  0.3989 -0.2850
14452TIP3    H164771   0.562   0.442   3.974  0.6783  0.5644 -2.4488
14452TIP3    H264772   0.428   0.434   3.903 -0.7726  0.3031  0.2527
14453TIP3   OH264773   3.337   6.009  14.318  0.3509 -0.1021 -0.3782
14453TIP3    H164774   3.400   6.080  14.307  0.1513  0.2575  0.6895
14453TIP3    H264775   3.283   6.013  14.239  0.6533  0.6219 -0.5606
14454TIP3   OH264776   5.006   5.863   3.938  0.0444 -0.3646 -0.0738
14454TIP3    H164777   4.928   5.809   3.952 -1.3808  1.6472 -0.0766
14454TIP3    H264778   4.985   5.916   3.862  1.7261 -0.3291 -0.5285
14455TIP3   OH264779   4.312   2.298   3.993 -0.7887  0.3756  0.1558
14455TIP3    H164780   4.269   2.235   4.053 -0.9679  0.4190  0.0741
14455TIP3    H264781   4.243   2.321   3.931 -0.3879 -0.2358 -0.5143
14456TIP3   OH264782   5.497   4.161   0.958 -0.2699  0.3088  0.2262
14456TIP3    H164783   5.498   4.136   0.866 -1.0664  1.7747 -0.1901
14456TIP3    H264784   5.439   4.237   0.962  1.0918  1.3061  1.6626
14457TIP3   OH264785   0.403   3.625   4.580 -0.0909  0.0499 -0.3576
14457TIP3    H164786   0.472   3.562   4.559  2.4725  2.5434  0.2900
14457TIP3    H264787   0.408   3.635   4.675 -0.1988  1.4754 -0.4912
14458TIP3   OH264788   5.011   0.840  14.607  0.4074 -0.4181  0.2229
14458TIP3    H164789   5.029   0.831  14.701 -0.5209 -1.2171  0.3319
14458TIP3    H264790   4.946   0.911  14.602  0.2606 -0.5539  0.2072
14459TIP3   OH264791   6.538   3.589  12.326 -0.1528  0.6071 -0.0224
14459TIP3    H164792   6.514   3.539  12.248  1.2395 -0.7893  0.4290
14459TIP3    H264793   6.533   3.526  12.397  1.9808  1.0083  0.5103
14460TIP3   OH264794   4.317   0.100   3.831 -0.8477 -0.0340  0.2355
14460TIP3    H164795   4.273   0.174   3.873 -0.5773  0.2331  0.0536
14460TIP3    H264796   4.404   0.133   3.808 -1.5906  0.3919 -2.1334
14461TIP3   OH264797   6.580   4.045  14.337  0.1018 -0.1286 -0.1046
14461TIP3    H164798   6.619   3.979  14.281 -0.4572 -0.7614  0.2480
14461TIP3    H264799   6.525   4.097  14.279 -1.2936 -1.4209  0.0228
14462TIP3   OH264800   2.276   5.350   1.977 -0.6034 -0.2322  0.1100
14462TIP3    H164801   2.206   5.365   2.041  1.7864  0.5470  2.6702
14462TIP3    H264802   2.306   5.438   1.953  1.2880 -0.5407  1.1760
14463TIP3   OH264803   0.023   0.172  15.395  0.0083 -0.0609 -0.0654
14463TIP3    H164804   0.087   0.117  15.349 -0.7101 -0.3099 -0.7728
14463TIP3    H264805  -0.062   0.133  15.374 -0.2446 -1.2185  2.8589
14464TIP3   OH264806   1.814   6.034   3.447  0.1573 -0.6599  0.4694
14464TIP3    H164807   1.772   6.108   3.403  0.6952 -0.4264  0.3541
14464TIP3    H264808   1.899   6.067   3.474 -0.6743 -0.3698  2.8951
14465TIP3   OH264809   0.709   1.351   4.762 -0.6395 -0.0369 -0.0931
14465TIP3    H164810   0.795   1.378   4.727 -0.5566 -0.5708 -0.3013
14465TIP3    H264811   0.650   1.358   4.687 -1.0504  1.5461  0.3451
14466TIP3   OH264812   5.967   6.422   1.097 -0.0255  0.0832  0.4173
14466TIP3    H164813   5.941   6.333   1.072  1.4043 -0.1040 -0.4485
14466TIP3    H264814   5.899   6.478   1.059  0.2188 -0.4858 -0.8963
14467TIP3   OH264815   2.895   0.316   3.839  0.6074 -0.2480 -0.0118
14467TIP3    H164816   2.870   0.403   3.870  1.8061  0.6923 -1.5970
14467TIP3    H264817   2.890   0.260   3.916 -1.9932  0.8167  0.6436
14468TIP3   OH264818   0.016   0.400  15.960  0.0413  0.1870  0.2924
14468TIP3    H164819   0.036   0.494  15.952  1.0252  0.0738  1.2767
14468TIP3    H264820  -0.047   0.383  15.891  1.3663  1.1594 -1.1793
14469TIP3   OH264821   1.960   2.982   3.325  0.0368  0.3110  0.3411
14469TIP3    H164822   1.904   2.908   3.304 -0.0571 -0.2828  2.5368
14469TIP3    H264823   2.034   2.943   3.373 -0.3299  1.6720  2.0775
14470TIP3   OH264824   6.231   6.778  16.755 -0.1453 -0.0861 -0.2031
14470TIP3    H164825   6.187   6.742  16.678 -1.2549 -0.8289  0.7589
14470TIP3    H264826   6.324   6.759  16.741 -0.2525  0.3579 -1.6475
14471TIP3   OH264827   1.547   2.840   5.594 -0.0691  0.1772 -0.2820
14471TIP3    H164828   1.629   2.878   5.625 -0.2771  0.7209 -0.3952
14471TIP3    H264829   1.572   2.753   5.561 -0.1910 -1.3198  3.3766
14472TIP3   OH264830   3.432   6.541   4.532 -0.6363 -0.5334 -0.1409
14472TIP3    H164831   3.524   6.563   4.513 -0.9611 -0.5816 -1.9013
14472TIP3    H264832   3.430   6.526   4.626  1.1378 -0.3698 -0.0519
14473TIP3   OH264833   1.099   3.729  12.994  0.3891  0.6564 -0.0298
14473TIP3    H164834   1.016   3.703  13.035  1.1879  1.1533  1.9484
14473TIP3    H264835   1.163   3.722  13.064  2.0527  0.1646 -1.5848
14474TIP3   OH264836   1.007   0.096   6.193  0.1658 -0.3508  0.4663
14474TIP3    H164837   0.954   0.045   6.254 -1.2858  0.4203 -0.1000
14474TIP3    H264838   0.966   0.183   6.193  0.1159 -0.3375 -1.5847
14475TIP3   OH264839   1.801   5.504   4.137 -0.4674 -0.3820  0.4585
14475TIP3    H164840   1.790   5.594   4.108  1.0514 -0.3019  0.1005
14475TIP3    H264841   1.768   5.504   4.227  1.5740  1.0615  1.2414
14476TIP3   OH264842   3.059   1.484   6.696  0.2768 -0.1520 -0.3597
14476TIP3    H164843   2.974   1.526   6.688  0.0493 -0.9581 -2.3578
14476TIP3    H264844   3.110   1.544   6.752 -0.6371  1.8397 -1.6241
14477TIP3   OH264845   4.184   1.805  14.237  0.2366  0.6446 -0.1912
14477TIP3    H164846   4.219   1.892  14.217 -1.7706  1.7870  1.0499
14477TIP3    H264847   4.089   1.814  14.221  0.1142 -1.5686 -0.8676
14478TIP3   OH264848   1.722   1.010   1.084  0.0852  0.5122 -0.4105
14478TIP3    H164849   1.677   1.000   1.168  0.0181  0.6283 -0.4324
14478TIP3    H264850   1.809   0.973   1.098  0.4957  1.6455  0.0647
14479TIP3   OH264851   5.808   3.088  13.698 -0.2583  0.1237 -0.0238
14479TIP3    H164852   5.738   3.154  13.701  0.5297  1.0629 -1.5794
14479TIP3    H264853   5.863   3.109  13.774 -0.2417  1.0406 -0.2742
14480TIP3   OH264854   2.052   5.105  13.000  0.0473  0.3832 -0.3890
14480TIP3    H164855   1.958   5.121  13.002  0.0488  0.3678 -0.1949
14480TIP3    H264856   2.062   5.023  12.952 -0.1742 -0.6189  1.2216
14481TIP3   OH264857   0.002   5.110   3.099  0.1884 -0.1146  0.5718
14481TIP3    H164858   0.090   5.072   3.102 -0.1121 -0.7732  1.1989
14481TIP3    H264859  -0.004   5.149   3.012  1.5590  1.0414  0.9663
14482TIP3   OH264860   0.753   2.903   0.049 -0.0516  0.0966  0.3874
14482TIP3    H164861   0.790   2.821   0.016  2.0298  0.8774  0.6798
14482TIP3    H264862   0.769   2.967  -0.020  0.4866  0.7798  1.1237
14483TIP3   OH264863   1.908   1.555  14.686  0.5445 -0.0240  0.8046
14483TIP3    H164864   1.940   1.465  14.680 -1.4189 -0.6706 -0.4567
14483TIP3    H264865   1.890   1.568  14.779  0.2157 -1.1704  0.9101
14484TIP3   OH264866   6.436   3.073  15.336  0.4051  0.0264  0.1993
14484TIP3    H164867   6.509   3.023  15.373  0.4259  0.0063  0.1323
14484TIP3    H264868   6.368   3.070  15.403 -0.0157 -1.0557 -0.2702
14485TIP3   OH264869   2.532   5.734  14.014  0.1537  0.2621  0.2276
14485TIP3    H164870   2.536   5.703  14.104 -1.4169  0.3094  0.3189
14485TIP3    H264871   2.530   5.829  14.021 -2.2450  0.2260  0.2485
14486TIP3   OH264872   2.682   0.357   1.757  0.4223 -0.0945 -0.4496
14486TIP3    H164873   2.670   0.452   1.755  1.2632  0.1057  1.8398
14486TIP3    H264874   2.740   0.338   1.683  1.1949  1.3490 -0.2385
14487TIP3   OH264875   2.769   5.586   5.403 -0.0172 -0.2508  0.2038
14487TIP3    H164876   2.754   5.681   5.404 -0.5775 -0.3519  0.9426
14487TIP3    H264877   2.865   5.578   5.405  0.0610  0.3089 -0.7946
14488TIP3   OH264878   0.937   0.795   2.693 -0.2699  0.2874  0.4190
14488TIP3    H164879   0.940   0.799   2.789 -0.0926 -1.0353  0.4767
14488TIP3    H264880   0.949   0.885   2.665  0.5450  0.5640  1.6300
14489TIP3   OH264881   2.859   2.771  14.240 -0.3736  0.2950 -0.3935
14489TIP3    H164882   2.907   2.770  14.323 -0.4318  0.7168 -0.3540
14489TIP3    H264883   2.776   2.728  14.261 -0.8665  1.4666  0.0604
14490TIP3   OH264884   0.679   3.920  15.364  0.1703  0.6226 -0.3880
14490TIP3    H164885   0.759   3.869  15.360 -0.0508  0.0984  1.5337
14490TIP3    H264886   0.611   3.861  15.332  0.4188  0.8327 -1.3307
14491TIP3   OH264887   4.841   2.250  16.711 -0.1651 -0.0650 -0.0650
14491TIP3    H164888   4.768   2.273  16.655 -0.0319 -0.3754 -0.3682
14491TIP3    H264889   4.919   2.264  16.657  0.0600  1.0764  0.5243
14492TIP3   OH264890   5.837   2.167   1.557  0.2878 -0.3861 -0.2127
14492TIP3    H164891   5.785   2.092   1.528  1.0827 -0.4687 -1.4613
14492TIP3    H264892   5.892   2.188   1.482 -0.2492  1.7383 -0.0314
14493TIP3   OH264893   6.573   5.091   0.141  0.0454  0.4173 -0.1174
14493TIP3    H164894   6.590   5.104   0.048 -0.4535  1.2094 -0.0988
14493TIP3    H264895   6.484   5.056   0.146  0.0828  0.3433  0.0609
14494TIP3   OH264896   1.034   1.112   4.713  0.2050 -0.2773 -0.8528
14494TIP3    H164897   0.961   1.057   4.743 -1.0869  1.0640 -1.4858
14494TIP3    H264898   1.108   1.084   4.768 -1.0463 -0.8907  0.5854
14495TIP3   OH264899   1.621   0.931   0.745  0.0507 -0.0146 -0.8073
14495TIP3    H164900   1.533   0.947   0.779 -0.9776 -1.0703 -2.8492
14495TIP3    H264901   1.647   1.014   0.706  0.3686  0.5850  0.6731
14496TIP3   OH264902   3.492   5.185   0.605 -0.1350  0.2542  0.0457
14496TIP3    H164903   3.489   5.142   0.519  1.6072  0.5216 -0.1847
14496TIP3    H264904   3.481   5.278   0.585 -1.9573  0.1140  0.3468
14497TIP3   OH264905   2.523   4.586   0.823 -0.3007  0.3229  0.3091
14497TIP3    H164906   2.485   4.634   0.896 -0.4639 -0.5313  0.7923
14497TIP3    H264907   2.617   4.603   0.829 -0.6241  3.0008 -1.3023
14498TIP3   OH264908   2.517   4.057   1.167 -0.1805 -0.4696  0.0057
14498TIP3    H164909   2.429   4.082   1.139 -0.8228 -0.5125  1.8866
14498TIP3    H264910   2.571   4.133   1.144 -0.8904 -0.0385 -0.2777
14499TIP3   OH264911   3.416   6.410   0.426 -0.3047 -0.0819 -0.4601
14499TIP3    H164912   3.426   6.447   0.338 -1.6746 -1.2228 -1.1216
14499TIP3    H264913   3.505   6.397   0.457  0.2500 -2.0867 -2.7429
14500TIP3   OH264914   6.651   2.866  14.719  0.1297  0.1230  0.8680
14500TIP3    H164915   6.586   2.932  14.743  0.8780  1.4809 -0.7743
14500TIP3    H264916   6.735   2.913  14.719  0.7906 -1.0271  0.5294
14501TIP3   OH264917   0.635   2.480   6.550  0.1028  0.1125  0.2981
14501TIP3    H164918   0.545   2.502   6.574 -0.3272  1.9058 -2.7827
14501TIP3    H264919   0.690   2.532   6.609 -0.9056  2.0856 -0.4935
14502TIP3   OH264920   3.812   2.699   2.482  0.4703  0.2695  0.7272
14502TIP3    H164921   3.798   2.691   2.388 -0.2935 -2.3081  1.0243
14502TIP3    H264922   3.725   2.710   2.519  0.9430  4.1079  0.9844
14503TIP3   OH264923   1.589   5.485   0.110 -0.2319 -0.0107 -0.3638
14503TIP3    H164924   1.504   5.508   0.074 -0.9047 -2.4364 -0.4070
14503TIP3    H264925   1.623   5.417   0.051  1.6825  0.8407 -0.2977
14504TIP3   OH264926   1.262   3.890   2.498 -0.2876 -0.0860  0.3490
14504TIP3    H164927   1.207   3.953   2.451  0.7388  0.8101  0.3318
14504TIP3    H264928   1.290   3.828   2.431 -0.1169  0.2819  0.0768
14505TIP3   OH264929   6.419   6.749  10.717  0.1872  0.1655  0.1029
14505TIP3    H164930   6.367   6.777  10.792  1.2903 -0.5902  1.1745
14505TIP3    H264931   6.450   6.831  10.677 -0.9892  0.5872  0.0436
14506TIP3   OH264932   2.680   1.274  14.512  0.2890 -0.0862  0.0692
14506TIP3    H164933   2.627   1.201  14.480  0.6082 -0.5959  0.7285
14506TIP3    H264934   2.769   1.254  14.485  0.4840 -0.2747  0.8508
14507TIP3   OH264935   1.643   6.662   5.105  0.3651  0.1517 -0.1993
14507TIP3    H164936   1.715   6.658   5.042  0.4741  1.1647 -0.1490
14507TIP3    H264937   1.643   6.753   5.135  0.3778 -0.3478  1.3382
14508TIP3   OH264938   4.274   6.285   0.147 -1.0721 -0.1607 -0.3079
14508TIP3    H164939   4.257   6.193   0.127 -3.1404  0.2835 -0.7538
14508TIP3    H264940   4.291   6.287   0.241 -0.0193 -1.1174 -0.4724
14509TIP3   OH264941   2.824   0.784   3.689 -0.1664  0.4491  0.0268
14509TIP3    H164942   2.794   0.872   3.665 -1.0072 -0.0274 -0.7284
14509TIP3    H264943   2.744   0.731   3.689  0.2427 -0.1680  1.1598
14510TIP3   OH264944   2.020   5.938  15.250  0.8718  0.1716  0.0024
14510TIP3    H164945   2.045   5.870  15.313  1.6681 -2.1189 -2.7140
14510TIP3    H264946   1.927   5.952  15.265  1.0995 -0.1368  1.8424
14511TIP3   OH264947   5.399   2.429   5.346  0.0688  0.1817  0.3549
14511TIP3    H164948   5.443   2.376   5.280  1.1917  2.4967 -0.8111
14511TIP3    H264949   5.445   2.407   5.428  1.7429  0.7298 -0.4295
14512TIP3   OH264950   0.287   0.318   2.779  0.0901 -0.1672 -0.3326
14512TIP3    H164951   0.357   0.259   2.749  0.8700  0.4426  0.2584
14512TIP3    H264952   0.219   0.260   2.811  1.8546 -0.7663  2.5182
14513TIP3   OH264953   3.226   4.748   4.454  0.0841  0.3251  0.1323
14513TIP3    H164954   3.268   4.679   4.506 -0.6781 -0.6612 -0.5539
14513TIP3    H264955   3.257   4.733   4.365 -1.6875 -0.3967 -0.3771
14514TIP3   OH264956   6.293   2.484  12.539  0.1397 -0.8271  0.2710
14514TIP3    H164957   6.377   2.475  12.584 -0.1663 -2.1259  0.6218
14514TIP3    H264958   6.286   2.577  12.518  1.7334 -0.7385  0.0949
14515TIP3   OH264959   2.909   6.237   1.177 -0.5805  0.3271  0.3971
14515TIP3    H164960   2.960   6.274   1.249  1.6831 -1.9353  0.0239
14515TIP3    H264961   2.967   6.172   1.137 -3.7062 -2.1969 -0.1953
14516TIP3   OH264962   6.367   4.614  12.196  0.0149 -0.4394  0.2812
14516TIP3    H164963   6.338   4.700  12.226  0.5241  0.0361 -0.6007
14516TIP3    H264964   6.454   4.603  12.235 -0.0352 -0.5524  0.3640
14517TIP3   OH264965   2.088   5.237  13.384  0.6032 -0.1099  0.2172
14517TIP3    H164966   1.995   5.223  13.369  0.1026  0.1937  2.8377
14517TIP3    H264967   2.119   5.281  13.305 -0.8650 -2.7230 -1.8857
14518TIP3   OH264968   3.751   4.827   6.434 -0.3726  0.3162 -0.5259
14518TIP3    H164969   3.781   4.811   6.344  0.3268 -1.0584 -0.0646
14518TIP3    H264970   3.812   4.777   6.488  0.2835  2.5270  0.8392
14519TIP3   OH264971   4.406   0.863  17.153  0.6039 -0.2779 -0.4420
14519TIP3    H164972   4.491   0.832  17.186 -0.9639 -2.0632  2.0816
14519TIP3    H264973   4.359   0.783  17.131 -0.9415  0.6376 -0.4929
14520TIP3   OH264974   0.453   2.675  11.162 -0.1674 -0.0361 -0.0715
14520TIP3    H164975   0.500   2.692  11.081 -0.9892  1.0111 -0.3417
14520TIP3    H264976   0.521   2.652  11.225  0.6044  0.4915 -0.7090
14521TIP3   OH264977   3.757   5.196   2.716  0.0166 -0.9570  0.2984
14521TIP3    H164978   3.700   5.158   2.649 -0.1526 -0.6669  0.2741
14521TIP3    H264979   3.712   5.277   2.742  1.9155  0.8703 -1.8989
14522TIP3   OH264980   5.241   0.708   4.355  0.7756  0.1962 -0.7182
14522TIP3    H164981   5.325   0.663   4.363  1.3187  1.4490  1.2325
14522TIP3    H264982   5.186   0.667   4.421  0.6636  1.0529 -0.2682
14523TIP3   OH264983   1.080   0.144   1.135  0.1394 -0.1577  0.4718
14523TIP3    H164984   1.158   0.144   1.191  1.1419 -0.5228 -0.8838
14523TIP3    H264985   1.095   0.215   1.072 -0.3876 -0.5450 -0.1018
14524TIP3   OH264986   5.490   0.181  13.882 -0.2972 -0.1516  0.4764
14524TIP3    H164987   5.581   0.205  13.867 -0.6965  1.7697  1.0231
14524TIP3    H264988   5.440   0.238  13.824 -1.1450 -1.4963 -0.1392
14525TIP3   OH264989   5.792   0.448   6.559  0.2080 -0.2509  0.4435
14525TIP3    H164990   5.818   0.370   6.509 -0.8655  0.5697 -1.4689
14525TIP3    H264991   5.861   0.512   6.541  1.7181 -1.1010  2.9727
14526TIP3   OH264992   3.363   0.967  14.661  0.7247  0.6762 -0.7789
14526TIP3    H164993   3.267   0.970  14.664  0.6889 -0.9828  1.8413
14526TIP3    H264994   3.389   1.055  14.637 -1.4552  1.5597 -0.0453
14527TIP3   OH264995   6.007   6.313  16.855  0.9789 -0.2065  0.3474
14527TIP3    H164996   6.088   6.272  16.885 -0.7295 -3.4232  0.7766
14527TIP3    H264997   5.942   6.290  16.922 -0.9150 -0.0690 -1.3919
14528TIP3   OH264998   3.102   2.760   5.895 -0.0275 -0.5533 -0.3331
14528TIP3    H164999   3.156   2.742   5.972 -0.7855  1.1192  0.6204
14528TIP3    H265000   3.108   2.680   5.843  0.4593 -1.7590  1.4939
14529TIP3   OH265001   5.334   2.704  12.002  0.2476  0.9416  0.1002
14529TIP3    H165002   5.394   2.779  12.001  0.8044  0.4942 -0.4054
14529TIP3    H265003   5.313   2.688  11.910  1.8589 -0.8726  0.0097
14530TIP3   OH265004   2.953   2.069   6.350 -0.2108  0.0571  0.5199
14530TIP3    H165005   2.963   1.981   6.315 -2.2654 -0.1653  0.4501
14530TIP3    H265006   2.973   2.060   6.444  0.9174 -0.2060  0.2583
14531TIP3   OH265007   3.611   1.942  15.145 -0.3179 -0.2902  0.5220
14531TIP3    H165008   3.568   1.878  15.089 -1.4642  1.0536 -0.1722
14531TIP3    H265009   3.678   1.982  15.089 -1.0070  0.5722  0.2949
14532TIP3   OH265010   1.248   4.032  14.375  0.1666  0.1596 -0.3429
14532TIP3    H165011   1.306   4.035  14.451  0.7330 -2.8294 -0.6178
14532TIP3    H265012   1.159   4.032  14.412  0.4237 -0.0308  0.2786
14533TIP3   OH265013   0.545   2.583   1.320  0.1298  0.1467 -0.6094
14533TIP3    H165014   0.472   2.644   1.310  2.2165  2.8460  0.0148
14533TIP3    H265015   0.568   2.588   1.413  1.3437 -0.3486 -0.8698
14534TIP3   OH265016   1.919   5.790  14.684 -0.7864  0.0477  0.3347
14534TIP3    H165017   1.975   5.785  14.761  1.5851  0.6470 -1.2821
14534TIP3    H265018   1.967   5.847  14.623 -2.3365 -0.8232 -1.7796
14535TIP3   OH265019   5.948   2.237  17.029  0.0056 -0.0919 -0.2361
14535TIP3    H165020   5.990   2.158  17.065 -1.6230 -0.6905  0.3918
14535TIP3    H265021   5.871   2.204  16.983 -0.5784  1.1221 -0.1398
14536TIP3   OH265022   2.602   2.459  16.646 -0.0378 -0.0662 -1.1158
14536TIP3    H165023   2.545   2.432  16.575  0.2282  0.2813 -1.4609
14536TIP3    H265024   2.586   2.553  16.655  0.2572 -0.0253 -1.0070
14537TIP3   OH265025   0.871   2.828   3.198  0.8943  0.0719 -0.0835
14537TIP3    H165026   0.840   2.798   3.113 -1.1138  0.8278  0.3556
14537TIP3    H265027   0.876   2.923   3.190  2.2227  0.0274  0.1519
14538TIP3   OH265028   5.670   5.697  10.492  0.0212 -0.4697  0.2822
14538TIP3    H165029   5.754   5.727  10.526 -0.4618 -1.1396  2.1276
14538TIP3    H265030   5.690   5.614  10.449  0.7944  0.8315 -1.9500
14539TIP3   OH265031   0.181   5.180  14.725 -1.0322  0.6455  0.6002
14539TIP3    H165032   0.221   5.181  14.638 -1.4190 -2.4381  0.3230
14539TIP3    H265033   0.127   5.259  14.727 -1.0111  0.7844 -1.9706
14540TIP3   OH265034   1.203   5.085  11.685 -0.2617 -0.3210  0.2485
14540TIP3    H165035   1.296   5.084  11.661 -0.6051 -1.6230 -1.1434
14540TIP3    H265036   1.190   5.004  11.735 -0.6382 -0.1517  0.4243
14541TIP3   OH265037   3.694   0.091   5.326 -0.0436  0.7712  0.0512
14541TIP3    H165038   3.783   0.124   5.325 -0.2958  1.4480 -0.9813
14541TIP3    H265039   3.643   0.159   5.370 -0.3954  1.3299 -1.2055
14542TIP3   OH265040   6.545   0.338   1.804 -0.2926 -0.3797 -1.2104
14542TIP3    H165041   6.623   0.311   1.852  0.8299 -0.0638 -2.7990
14542TIP3    H265042   6.579   0.375   1.722 -1.9732  2.0551 -0.8783
14543TIP3   OH265043   5.267   5.313   3.005 -0.3729  0.5205  0.3439
14543TIP3    H165044   5.293   5.237   3.056 -1.5784  0.4379  0.8557
14543TIP3    H265045   5.296   5.388   3.058  1.0291  0.4383 -0.2752
14544TIP3   OH265046   1.556   6.248   2.207 -0.5124  0.0980 -0.0980
14544TIP3    H165047   1.583   6.158   2.186 -1.0762 -0.4988  1.6204
14544TIP3    H265048   1.638   6.295   2.221 -0.1792  0.1539 -2.1785
14545TIP3   OH265049   3.166   1.397   0.645 -0.4369 -0.2078 -0.2329
14545TIP3    H165050   3.195   1.443   0.724  2.6292 -1.8784 -0.3064
14545TIP3    H265051   3.186   1.457   0.573  0.3793 -0.2373 -0.0405
14546TIP3   OH265052   3.949   5.621  13.210  0.2129 -0.1120  0.0334
14546TIP3    H165053   3.868   5.618  13.261  0.0237  0.8940 -0.1919
14546TIP3    H265054   3.929   5.681  13.138  0.8472 -0.6185 -0.5721
14547TIP3   OH265055   0.680   0.280  15.324 -0.2904  0.2166  0.4731
14547TIP3    H165056   0.751   0.223  15.293  0.3611  2.2552 -1.9113
14547TIP3    H265057   0.726   0.355  15.363 -1.1314  0.7880  0.3632
14548TIP3   OH265058   2.899   2.010   2.452  0.1876  0.2725  0.3712
14548TIP3    H165059   2.824   2.069   2.453 -0.0935 -0.0963  0.9315
14548TIP3    H265060   2.963   2.054   2.394 -0.5617  0.4431 -0.3319
14549TIP3   OH265061   6.450   2.773  16.999  0.3220 -0.5128  0.0852
14549TIP3    H165062   6.373   2.742  16.951  0.7509  0.1067 -1.0428
14549TIP3    H265063   6.459   2.712  17.072 -3.1914  1.3152  2.1880
14550TIP3   OH265064   1.090   5.408  12.633  0.4364  0.2585 -0.5169
14550TIP3    H165065   1.046   5.331  12.669  0.0689  0.9808  0.6230
14550TIP3    H265066   1.067   5.408  12.540 -0.0170 -0.6992 -0.4054
14551TIP3   OH265067   3.860   5.643  15.466 -0.2970 -0.2577 -0.1066
14551TIP3    H165068   3.831   5.555  15.492  0.3052 -0.6605 -0.7902
14551TIP3    H265069   3.951   5.631  15.440  0.1422  0.7955  0.9237
14552TIP3   OH265070   4.691   1.433  11.066 -0.0797 -0.0234 -0.1309
14552TIP3    H165071   4.599   1.450  11.089  0.3198  0.0800  1.4199
14552TIP3    H265072   4.690   1.345  11.030 -0.5411 -0.6991  1.4717
14553TIP3   OH265073   5.872   5.353   4.133 -0.3491  0.2935 -0.6961
14553TIP3    H165074   5.796   5.407   4.152  0.0424  0.3145  0.9067
14553TIP3    H265075   5.851   5.267   4.169  0.8888  0.6536  0.9629
14554TIP3   OH265076   4.151   5.649  14.866  0.1330 -0.5646 -0.5023
14554TIP3    H165077   4.099   5.717  14.824  1.4066  0.5482 -0.3072
14554TIP3    H265078   4.097   5.619  14.939 -0.5045  0.1066 -0.6956
14555TIP3   OH265079   5.891   4.417  14.005  0.7954  0.7069  0.4124
14555TIP3    H165080   5.897   4.509  14.030  0.8682  0.4058  1.5462
14555TIP3    H265081   5.798   4.403  13.988 -0.0573 -0.1925  5.1040
14556TIP3   OH265082   5.612   2.343   0.370 -0.3355 -0.0304  0.3348
14556TIP3    H165083   5.587   2.326   0.460 -1.0848  1.0341  0.3346
14556TIP3    H265084   5.706   2.326   0.367 -0.4569 -0.8326  1.1248
14557TIP3   OH265085   4.389   2.538  13.926 -0.0482  0.0731 -0.6190
14557TIP3    H165086   4.303   2.502  13.907 -0.2677 -0.7992  1.8302
14557TIP3    H265087   4.378   2.632  13.919 -0.9437 -0.0732 -1.2780
14558TIP3   OH265088   4.383   5.018   3.668 -0.1932 -0.3579  0.9352
14558TIP3    H165089   4.313   4.978   3.719 -1.4755  0.2649 -0.2928
14558TIP3    H265090   4.430   4.945   3.629 -1.3540 -0.7397  0.2268
14559TIP3   OH265091   3.173   4.581   3.294  0.3547  0.2321  0.1061
14559TIP3    H165092   3.164   4.638   3.218  1.7867 -0.3140 -0.4824
14559TIP3    H265093   3.094   4.598   3.346 -0.0364  1.5132 -0.8824
14560TIP3   OH265094   5.901   2.211   2.829 -0.3090 -0.3500 -0.0351
14560TIP3    H165095   5.845   2.287   2.812  0.3155 -0.0924 -1.0161
14560TIP3    H265096   5.885   2.152   2.755  0.8617 -0.1778 -0.4395
14561TIP3   OH265097   1.580   1.375  15.353  0.1990  0.3436  0.8691
14561TIP3    H165098   1.548   1.285  15.362 -2.8906  0.8156 -3.7107
14561TIP3    H265099   1.516   1.428  15.400 -0.1882  0.4579  0.2176
14562TIP3   OH265100   3.342   1.215   5.076  0.4579 -0.8017  0.1203
14562TIP3    H165101   3.415   1.206   5.137 -0.1220 -1.1107  0.7717
14562TIP3    H265102   3.345   1.307   5.050  0.1916 -0.4591  1.2700
14563TIP3   OH265103   6.436   2.730  16.444  0.4515  0.2656  0.4596
14563TIP3    H165104   6.427   2.825  16.450  1.5804  0.3824  0.3690
14563TIP3    H265105   6.416   2.711  16.352 -1.6817  0.1751  0.8944
14564TIP3   OH265106   4.448   3.501   4.682  0.0851  0.4407 -0.3856
14564TIP3    H165107   4.450   3.573   4.745 -2.3385 -0.5282  0.8356
14564TIP3    H265108   4.488   3.428   4.728 -0.0075  0.2239 -0.6489
14565TIP3   OH265109   3.426   3.273   4.234  0.0175 -0.4715 -0.3221
14565TIP3    H165110   3.405   3.179   4.241  0.1247 -0.3899  1.2768
14565TIP3    H265111   3.348   3.317   4.268 -0.0891  0.0394 -1.2074
14566TIP3   OH265112   3.080   5.774   0.426 -0.1546  0.3802 -0.0082
14566TIP3    H165113   2.987   5.786   0.446 -0.3360 -0.8939 -0.0489
14566TIP3    H265114   3.125   5.786   0.510 -0.2857  1.7109 -0.1247
14567TIP3   OH265115   1.302   5.523  12.350 -0.2271 -0.1139  0.0893
14567TIP3    H165116   1.356   5.521  12.430  2.1418 -1.8098 -1.4568
14567TIP3    H265117   1.317   5.610  12.313  0.3542 -0.0757  0.4036
14568TIP3   OH265118   6.547   2.784   1.066  0.4511 -0.1307 -0.0424
14568TIP3    H165119   6.603   2.772   1.143 -0.9576 -0.2537  0.9769
14568TIP3    H265120   6.604   2.761   0.992  1.7281 -0.3266  0.9693
14569TIP3   OH265121   2.415   5.854  17.154 -0.0452 -0.6036 -0.4492
14569TIP3    H165122   2.423   5.794  17.080  0.8123  1.0637 -1.7318
14569TIP3    H265123   2.402   5.940  17.115 -0.3618  0.1963  1.3506
14570TIP3   OH265124   5.934   2.607   1.039  0.9666  0.1401  0.0040
14570TIP3    H165125   5.964   2.537   0.982 -0.1855  0.0215 -0.4638
14570TIP3    H265126   6.008   2.623   1.098  2.0212 -0.0127 -1.2474
14571TIP3   OH265127   4.870   5.264   3.592  0.3599  0.1668 -0.0554
14571TIP3    H165128   4.781   5.234   3.609  0.6865 -0.9064 -0.2037
14571TIP3    H265129   4.919   5.242   3.671  0.5460  0.5438 -0.0638
14572TIP3   OH265130   5.940   2.492  15.358  0.1718 -0.2534  0.7493
14572TIP3    H165131   5.852   2.509  15.324  0.7583  1.5693  0.1096
14572TIP3    H265132   5.964   2.407  15.321 -0.5554  0.1254 -0.6224
14573TIP3   OH265133   2.415   2.907   1.611  0.2334 -0.2668  0.3072
14573TIP3    H165134   2.464   2.918   1.692  0.5319  0.6006  0.0163
14573TIP3    H265135   2.478   2.870   1.549  0.3409  0.2128  0.1264
14574TIP3   OH265136   5.379   4.090  13.208  0.3045 -0.4656 -0.0814
14574TIP3    H165137   5.335   4.026  13.152 -2.2891  0.6952  0.5634
14574TIP3    H265138   5.470   4.060  13.213  0.0506 -1.8275 -3.0521
14575TIP3   OH265139   6.309   3.958   5.285 -0.7301 -1.1348 -0.3552
14575TIP3    H165140   6.270   4.037   5.248  1.3250  0.6329  1.1577
14575TIP3    H265141   6.312   3.896   5.211 -0.4453  0.8909 -2.0921
14576TIP3   OH265142   3.579   0.802   1.544 -0.4701  0.0801  0.5951
14576TIP3    H165143   3.515   0.766   1.605  0.3152 -0.6355  1.0115
14576TIP3    H265144   3.599   0.889   1.578  0.2185 -0.4524  1.5419
14577TIP3   OH265145   2.739   6.548  14.685  0.0030 -0.5077  0.1944
14577TIP3    H165146   2.652   6.579  14.660  0.0935  0.3277  0.8992
14577TIP3    H265147   2.799   6.598  14.630  0.0238 -1.5281 -0.7388
14578TIP3   OH265148   4.250   2.086  12.023 -0.8734  0.4199 -0.7162
14578TIP3    H165149   4.218   1.996  12.022  0.3102 -0.0255  0.2214
14578TIP3    H265150   4.182   2.136  11.978 -1.1178 -1.0755 -2.0785
14579TIP3   OH265151   4.041   5.567  15.737  0.2346 -0.1294  0.6181
14579TIP3    H165152   3.957   5.602  15.766  0.6413  0.4625  1.0720
14579TIP3    H265153   4.076   5.634  15.678 -0.7560 -1.4677 -1.5770
14580TIP3   OH265154   3.569   4.385   4.116  0.0368 -0.3766  0.1939
14580TIP3    H165155   3.571   4.324   4.189 -0.3962  0.8931  1.3070
14580TIP3    H265156   3.488   4.363   4.068 -0.0183 -0.7822  0.4743
14581TIP3   OH265157   4.137   1.981  15.129 -0.3256  0.3758 -0.4534
14581TIP3    H165158   4.103   2.067  15.153  2.0636  1.6466 -1.4385
14581TIP3    H265159   4.178   1.949  15.209  1.0627  1.3168 -0.7730
14582TIP3   OH265160   3.098   3.126   3.832  0.3179 -0.1878  0.8103
14582TIP3    H165161   3.037   3.200   3.835 -0.4674 -0.8682  2.2657
14582TIP3    H265162   3.057   3.063   3.773  1.6708  1.0956 -1.5656
14583TIP3   OH265163   0.155   5.630   0.939 -0.1399 -0.5205  0.1680
14583TIP3    H165164   0.140   5.724   0.929 -0.6499 -0.6032  0.1045
14583TIP3    H265165   0.249   5.621   0.952 -0.6624  0.4358  5.3774
14584TIP3   OH265166   3.331   3.691   6.105 -0.6383 -0.2971  0.2263
14584TIP3    H165167   3.325   3.643   6.022 -0.6969 -1.3798  0.8413
14584TIP3    H265168   3.263   3.758   6.099 -0.1083  0.1458 -0.9290
14585TIP3   OH265169   6.366   1.588  11.916  0.2623 -0.0344 -0.3190
14585TIP3    H165170   6.366   1.664  11.858 -1.0698 -0.1646 -0.5062
14585TIP3    H265171   6.328   1.620  11.998  0.3057 -0.3415 -0.1775
14586TIP3   OH265172   4.834   1.277  15.429  0.3382  0.0620 -0.4432
14586TIP3    H165173   4.778   1.202  15.412  0.2597  0.3972 -1.7232
14586TIP3    H265174   4.793   1.349  15.381  2.0283  0.2275 -1.6773
14587TIP3   OH265175   1.512   6.569   5.830  0.6144  0.5635 -0.5631
14587TIP3    H165176   1.453   6.539   5.761 -1.9745  0.5013  1.5825
14587TIP3    H265177   1.533   6.490   5.880  2.2774  0.6417 -1.1080
14588TIP3   OH265178   5.735   2.522   4.421 -0.3977  0.1635  0.2946
14588TIP3    H165179   5.808   2.582   4.436  0.9571 -1.0277 -1.3133
14588TIP3    H265180   5.741   2.459   4.493  0.0010  0.2056  0.2989
14589TIP3   OH265181   6.086   1.007   0.036 -0.4924  0.5838 -0.0563
14589TIP3    H165182   6.156   1.068   0.056  0.3262 -0.1231 -0.6879
14589TIP3    H265183   6.042   0.991   0.120  1.1650 -0.2598  0.6670
14590TIP3   OH265184   2.934   3.805   2.008  0.5698  0.0759 -0.1579
14590TIP3    H165185   2.839   3.808   1.994  0.4604  0.3215  0.6110
14590TIP3    H265186   2.965   3.890   1.979  0.1690  1.0870  2.3012
14591TIP3   OH265187   5.923   0.764   5.825 -0.2623 -0.5653  0.2860
14591TIP3    H165188   5.850   0.739   5.881 -1.2666 -0.0381 -0.7710
14591TIP3    H265189   6.000   0.724   5.866 -1.1947 -1.4626  1.1731
14592TIP3   OH265190   2.065   0.521   5.278 -0.5720 -0.1699 -0.3771
14592TIP3    H165191   2.115   0.515   5.197  1.3031  0.4412  0.6918
14592TIP3    H265192   2.074   0.612   5.305 -0.1179 -0.6566  1.1517
14593TIP3   OH265193   0.041   4.134   0.995  0.8159 -0.1238  0.0147
14593TIP3    H165194   0.027   4.216   1.042  0.2697  1.0228 -2.1270
14593TIP3    H265195   0.059   4.160   0.905  1.7358 -2.3087 -0.4674
14594TIP3   OH265196   4.090   1.333   4.668  0.0225 -0.1200 -0.4302
14594TIP3    H165197   4.154   1.354   4.736  0.3323 -1.1661 -0.3880
14594TIP3    H265198   4.141   1.285   4.602 -0.5070 -0.0549 -0.8916
14595TIP3   OH265199   5.490   3.202  12.933  0.4767 -0.0527 -0.4528
14595TIP3    H165200   5.501   3.292  12.902 -1.0343  0.2428 -0.1586
14595TIP3    H265201   5.515   3.206  13.026  0.2777  0.0844 -0.4061
14596TIP3   OH265202   4.235   1.239   3.162 -0.0148 -0.3401  0.8177
14596TIP3    H165203   4.142   1.258   3.172 -0.0326  0.8078 -1.2818
14596TIP3    H265204   4.276   1.277   3.240 -1.1889 -0.0696  1.3178
14597TIP3   OH265205   3.672   3.366   3.955 -0.2745  0.0756  0.5057
14597TIP3    H165206   3.652   3.438   3.896  0.8921 -1.0090 -1.2552
14597TIP3    H265207   3.632   3.289   3.914  0.0265 -0.5892  1.4314
14598TIP3   OH265208   4.403   4.560   3.172  0.7220 -0.9212  0.1499
14598TIP3    H165209   4.434   4.598   3.090  0.7174 -1.8708 -0.2994
14598TIP3    H265210   4.308   4.551   3.160  0.3800  1.0341  1.1372
14599TIP3   OH265211   2.262   2.175  16.193  0.0127 -0.1478 -0.2345
14599TIP3    H165212   2.179   2.167  16.239  0.5628  0.9838  0.9768
14599TIP3    H265213   2.308   2.093  16.211  0.0345  0.0997  0.8714
14600TIP3   OH265214   2.580   0.222  12.521  0.0830  0.7591 -0.1536
14600TIP3    H165215   2.535   0.297  12.560 -0.4608 -0.8560  2.4248
14600TIP3    H265216   2.516   0.183  12.461 -0.2487  1.3070 -0.1557
14601TIP3   OH265217   0.755   0.949   4.581 -0.5017 -0.2280  0.1350
14601TIP3    H165218   0.752   0.988   4.669 -1.3261 -1.5897  0.7294
14601TIP3    H265219   0.673   0.976   4.541 -0.1755  0.2984 -0.1887
14602TIP3   OH265220   4.836   3.546   0.885 -0.5828 -0.7553 -0.0333
14602TIP3    H165221   4.857   3.455   0.904 -0.6568 -0.6789  0.4371
14602TIP3    H265222   4.804   3.546   0.795 -1.9969 -1.4356  0.4405
14603TIP3   OH265223   4.871   4.721   4.944  0.3436  0.2073 -0.0184
14603TIP3    H165224   4.920   4.801   4.962 -0.0276  0.5575 -0.5510
14603TIP3    H265225   4.926   4.673   4.882  0.7015 -0.0872  0.5235
14604TIP3   OH265226   0.175   3.973  14.370 -0.7103 -0.3173  0.0946
14604TIP3    H165227   0.176   3.936  14.282  0.0389  1.6722 -0.7553
14604TIP3    H265228   0.210   3.903  14.425  3.1068 -0.0448 -1.8313
14605TIP3   OH265229   1.807   0.768   2.739  0.2266  0.1454 -0.0020
14605TIP3    H165230   1.752   0.745   2.814 -0.0159 -1.0849 -0.5548
14605TIP3    H265231   1.860   0.842   2.771 -0.7225  0.4187  0.9881
14606TIP3   OH265232   6.438   5.422  14.169 -0.2938  0.7996  0.1481
14606TIP3    H165233   6.456   5.455  14.081 -0.3032  0.5444  0.0505
14606TIP3    H265234   6.511   5.455  14.222  0.5838 -0.4005 -0.2883
14607TIP3   OH265235   2.813   2.109   3.845 -0.0107 -0.1895 -0.1489
14607TIP3    H165236   2.878   2.049   3.809 -0.2987 -0.9456  0.5677
14607TIP3    H265237   2.748   2.120   3.775  0.3970 -0.1782 -0.5234
14608TIP3   OH265238   0.951   4.987   5.157  0.2529 -0.4815  0.1688
14608TIP3    H165239   0.968   5.068   5.108 -0.3906 -0.8146 -0.6350
14608TIP3    H265240   0.863   4.961   5.130 -0.5512 -0.0991  2.3463
14609TIP3   OH265241   4.943   4.724  11.538 -0.3963  0.4613 -0.2846
14609TIP3    H165242   4.965   4.708  11.630  1.0918  0.7545 -0.5726
14609TIP3    H265243   5.003   4.793  11.511  1.5936 -1.9529 -2.4039
14610TIP3   OH265244   1.154   3.650  17.004  0.2801 -0.6044  0.0297
14610TIP3    H165245   1.112   3.566  16.988  0.7570 -0.9143  0.4133
14610TIP3    H265246   1.245   3.638  16.976  0.7463 -0.6970  1.5529
14611TIP3   OH265247   3.888   1.067  11.105 -1.0150  0.0467  0.4397
14611TIP3    H165248   3.888   1.148  11.156  2.4417  1.1500 -1.1224
14611TIP3    H265249   3.904   0.998  11.169 -1.2958  0.9004  1.4457
14612TIP3   OH265250   3.251   2.407   3.098 -0.9117 -0.3968  0.2853
14612TIP3    H165251   3.329   2.448   3.061 -1.1836 -0.2206 -0.0998
14612TIP3    H265252   3.271   2.395   3.191 -1.5463  2.3499  0.8179
14613TIP3   OH265253   3.534   2.597   0.714 -0.1984 -0.4585 -0.4069
14613TIP3    H165254   3.484   2.675   0.691 -0.3722 -1.0360 -2.1266
14613TIP3    H265255   3.603   2.628   0.772 -1.6151  0.6037  0.7431
14614TIP3   OH265256   6.270   1.314   5.558  0.3519  0.1410  0.6483
14614TIP3    H165257   6.326   1.240   5.585  1.6575  0.9929  0.3373
14614TIP3    H265258   6.301   1.336   5.471 -0.1611  0.9397  0.6708
14615TIP3   OH265259   2.670   6.479  15.980  0.1320  0.3091  0.1042
14615TIP3    H165260   2.646   6.397  15.936  0.5502 -0.5318  1.3843
14615TIP3    H265261   2.744   6.454  16.037 -0.4595  1.3328  1.3364
14616TIP3   OH265262   1.250   4.029   0.719  0.0267  0.4953 -0.1866
14616TIP3    H165263   1.259   3.961   0.653  0.5696  2.2396 -1.9808
14616TIP3    H265264   1.164   4.069   0.702  0.2275  1.0487  0.0557
14617TIP3   OH265265   0.670   0.314   1.084  0.0586 -0.2608 -0.2000
14617TIP3    H165266   0.712   0.396   1.057 -0.6624 -0.1558 -1.0259
14617TIP3    H265267   0.731   0.246   1.054 -0.1210 -0.0887 -0.9877
14618TIP3   OH265268   0.202   1.302   5.101 -0.1017 -0.0495 -0.2515
14618TIP3    H165269   0.108   1.313   5.083 -0.4307 -1.0504  0.7886
14618TIP3    H265270   0.245   1.355   5.035 -1.4534  1.9170  0.3781
14619TIP3   OH265271   0.178   1.089  15.963  0.6677  0.1192 -0.0012
14619TIP3    H165272   0.111   1.085  15.896  1.4354  0.0066 -0.7689
14619TIP3    H265273   0.129   1.094  16.046 -0.2724 -0.0749 -0.5376
14620TIP3   OH265274   4.363   6.407  16.530  0.1176  0.3132 -0.3718
14620TIP3    H165275   4.285   6.461  16.539  0.4982  0.8265 -0.1037
14620TIP3    H265276   4.392   6.392  16.620 -0.3686 -0.9075 -0.4115
14621TIP3   OH265277   3.965   2.169  15.992 -0.4206  0.3949 -0.0064
14621TIP3    H165278   3.877   2.134  16.005  0.6138 -1.7287  1.5787
14621TIP3    H265279   3.973   2.181  15.898 -1.8594 -0.9101 -0.3104
14622TIP3   OH265280   5.354   4.768   0.061  0.2217 -0.2417  0.2185
14622TIP3    H165281   5.369   4.861   0.073 -0.3826 -0.4315  2.7717
14622TIP3    H265282   5.420   4.741  -0.004 -0.8147  2.2672 -1.9727
14623TIP3   OH265283   3.490   1.448   0.602  0.2602  0.0816  0.2265
14623TIP3    H165284   3.571   1.497   0.587 -0.4451  1.1198 -0.2000
14623TIP3    H265285   3.470   1.409   0.516 -0.7261  1.4024 -0.1523
14624TIP3   OH265286   3.638   3.867  14.203 -0.0456 -0.3195 -0.2061
14624TIP3    H165287   3.660   3.959  14.218 -0.8164 -0.1816  0.1459
14624TIP3    H265288   3.717   3.819  14.226 -0.7831 -0.0170  3.1855
14625TIP3   OH265289   0.252   6.570   0.491  0.1842  0.1968  0.0371
14625TIP3    H165290   0.166   6.587   0.528  0.5802  0.1906  0.9762
14625TIP3    H265291   0.314   6.607   0.555  0.9142 -0.9993  0.0340
14626TIP3   OH265292   1.127   2.696   4.675  0.3463 -0.6469 -1.2275
14626TIP3    H165293   1.136   2.789   4.652 -2.6772  0.3908  1.3915
14626TIP3    H265294   1.042   2.670   4.639  0.5085 -1.9903 -0.6747
14627TIP3   OH265295   0.941   0.534   2.249  0.1881 -0.2668 -0.2047
14627TIP3    H165296   0.979   0.609   2.294  1.5910 -0.0475 -1.6877
14627TIP3    H265297   0.969   0.458   2.301  1.2411  0.0287 -0.3284
14628TIP3   OH265298   0.098   6.133   1.647 -0.0077 -0.4060  0.1337
14628TIP3    H165299   0.071   6.195   1.579  1.4676  1.2690  1.0413
14628TIP3    H265300   0.020   6.081   1.664 -0.7351 -0.0665 -2.0041
14629TIP3   OH265301   2.635   4.336   4.005 -0.0315 -0.2278  0.6907
14629TIP3    H165302   2.653   4.307   3.915  1.1763  1.5159  0.3452
14629TIP3    H265303   2.539   4.328   4.013 -0.0593 -1.3288 -0.3999
14630TIP3   OH265304   4.408   2.419  16.570  0.4428 -0.1574  0.2357
14630TIP3    H165305   4.401   2.442  16.662  1.4035  1.0965  0.0077
14630TIP3    H265306   4.331   2.459  16.530 -0.0008 -0.7455  0.5083
14631TIP3   OH265307   4.166   5.021   0.462 -0.1198  0.4507  0.0322
14631TIP3    H165308   4.076   4.993   0.452  0.0219 -0.6981  1.7112
14631TIP3    H265309   4.165   5.075   0.541  0.3848  1.6996 -0.8073
14632TIP3   OH265310   4.491   0.467   3.261 -0.0866 -0.9190  0.2100
14632TIP3    H165311   4.566   0.427   3.217 -0.6628 -0.5764 -1.0819
14632TIP3    H265312   4.415   0.426   3.221 -0.6355 -0.0197  0.3280
14633TIP3   OH265313   1.217   3.136  11.892 -0.2490 -0.0317 -0.1569
14633TIP3    H165314   1.144   3.083  11.859  0.4788 -0.0084 -1.8448
14633TIP3    H265315   1.197   3.149  11.985 -1.7170 -1.1378 -0.3008
14634TIP3   OH265316   2.484   6.320  14.770 -0.3261 -0.0347 -0.3213
14634TIP3    H165317   2.571   6.283  14.785  0.6226  2.0301 -0.4613
14634TIP3    H265318   2.425   6.245  14.767  1.3649 -1.4132  0.4491
14635TIP3   OH265319   0.080   2.128   5.668 -0.3652 -0.3039  0.9535
14635TIP3    H165320   0.135   2.206   5.656 -0.0550 -0.7680 -0.8369
14635TIP3    H265321   0.079   2.114   5.762 -0.0047  1.5696  1.2606
14636TIP3   OH265322   5.334   0.420   3.877  0.5645 -0.3842  0.1582
14636TIP3    H165323   5.360   0.328   3.865 -2.1967 -1.1620 -0.1803
14636TIP3    H265324   5.313   0.450   3.789  0.1977  0.1910  0.4436
14637TIP3   OH265325   4.275   5.749   3.149 -0.1620  0.4602  0.0196
14637TIP3    H165326   4.261   5.762   3.243  1.7138  0.7714  0.2755
14637TIP3    H265327   4.337   5.676   3.143 -1.3567 -0.4841 -1.0329
14638TIP3   OH265328   2.826   6.525   3.791  0.4039 -0.2743  0.2628
14638TIP3    H165329   2.909   6.566   3.768  0.1882  0.2276  0.3607
14638TIP3    H265330   2.773   6.531   3.712  0.1180  0.2848  0.4962
14639TIP3   OH265331   4.547   5.718   3.941  0.7217 -0.4865  0.5983
14639TIP3    H165332   4.487   5.679   4.005 -0.2009 -0.6668 -0.3507
14639TIP3    H265333   4.510   5.805   3.923  0.8730 -0.5069  0.1796
14640TIP3   OH265334   2.485   4.908   2.904  0.0668 -0.1566 -0.0249
14640TIP3    H165335   2.492   4.892   2.998 -0.3870 -2.6179 -0.3803
14640TIP3    H265336   2.394   4.888   2.884  0.5059 -0.9667 -1.2214
14641TIP3   OH265337   3.511   3.260   3.740  0.1940  0.4386 -0.1874
14641TIP3    H165338   3.435   3.203   3.725  0.4538 -0.4787  1.8309
14641TIP3    H265339   3.576   3.229   3.678  0.1652 -1.1893  0.5621
14642TIP3   OH265340   1.445   0.497  10.619  0.6188  0.6569  0.4696
14642TIP3    H165341   1.398   0.414  10.624  1.5335  0.1966  1.8124
14642TIP3    H265342   1.403   0.545  10.547  0.3912 -1.1514 -0.6264
14643TIP3   OH265343   5.664   5.199   3.152  0.2915 -0.1203 -0.5618
14643TIP3    H165344   5.622   5.156   3.226  0.6772  0.9388  0.2954
14643TIP3    H265345   5.610   5.177   3.077  0.1390 -1.5792 -0.0440
14644TIP3   OH265346   1.549   3.384  13.275 -0.8259  0.5978  0.2386
14644TIP3    H165347   1.645   3.381  13.274 -0.8710 -1.7474  0.8593
14644TIP3    H265348   1.522   3.302  13.234 -2.5850  1.7231 -0.9095
14645TIP3   OH265349   3.624   5.361  16.467  0.1411 -0.1694 -0.9124
14645TIP3    H165350   3.562   5.424  16.504  0.6241 -0.4593  0.4269
14645TIP3    H265351   3.592   5.276  16.495  0.7845 -0.3608 -0.7538
14646TIP3   OH265352   0.332   5.441   0.431  0.4521 -0.1055  0.0814
14646TIP3    H165353   0.378   5.485   0.359  0.9270  0.7069  0.8681
14646TIP3    H265354   0.244   5.425   0.396  1.3239 -1.7139 -1.4532
14647TIP3   OH265355   5.473   1.873   4.757  0.4227 -1.1075  0.0052
14647TIP3    H165356   5.403   1.915   4.707 -2.0306 -0.8798  3.5345
14647TIP3    H265357   5.477   1.784   4.722  0.7751 -0.1567 -2.5477
14648TIP3   OH265358   5.567   0.275  11.394  0.4113 -0.0517 -0.0808
14648TIP3    H165359   5.633   0.240  11.335 -0.2295 -0.9461 -0.2714
14648TIP3    H265360   5.618   0.320  11.462  1.1999 -0.4110 -0.4214
14649TIP3   OH265361   5.241   0.214   4.572 -0.1721 -0.3185 -0.5054
14649TIP3    H165362   5.310   0.149   4.587 -1.1830 -2.0619 -3.1506
14649TIP3    H265363   5.288   0.298   4.570  1.6954 -1.3356 -0.8722
14650TIP3   OH265364   2.710   6.610  13.522 -0.2182 -0.4796  0.2205
14650TIP3    H165365   2.737   6.518  13.534 -0.8393 -0.7982 -0.8347
14650TIP3    H265366   2.791   6.655  13.498 -0.6620 -1.5738 -3.6544
14651TIP3   OH265367   4.995   0.376  13.645 -0.5591 -0.1965  0.1380
14651TIP3    H165368   4.919   0.387  13.587 -1.2486 -2.1054  0.6333
14651TIP3    H265369   5.045   0.304  13.605  0.9277  0.9511 -0.1027
14652TIP3   OH265370   1.124   2.406   1.656 -0.2632 -0.4496  0.1806
14652TIP3    H165371   1.084   2.358   1.729 -1.7387  1.5867  0.7607
14652TIP3    H265372   1.202   2.446   1.693 -0.5812 -0.0682  0.4436
14653TIP3   OH265373   5.726   5.421   0.236 -0.2161 -0.7316 -1.0227
14653TIP3    H165374   5.745   5.333   0.201 -1.0132 -1.1283 -0.4744
14653TIP3    H265375   5.634   5.417   0.261 -0.3640  0.3975 -1.3658
14654TIP3   OH265376   5.888   3.491   1.835  0.8102  0.0599  0.2167
14654TIP3    H165377   5.869   3.459   1.923  0.2484 -0.7947 -0.2169
14654TIP3    H265378   5.941   3.422   1.795  1.1267  0.4782 -0.0909
14655TIP3   OH265379   0.678   3.732  11.911  0.0734 -0.0427  1.0574
14655TIP3    H165380   0.615   3.703  11.844 -0.7649  0.9288  1.4125
14655TIP3    H265381   0.732   3.797  11.866  0.4646 -0.4592  0.9174
14656TIP3   OH265382   2.606   6.079   1.645  1.0213 -0.2338  0.4498
14656TIP3    H165383   2.529   6.110   1.598  1.1956 -0.0915  0.2541
14656TIP3    H265384   2.636   6.002   1.594  0.6108 -0.6997  0.9135
14657TIP3   OH265385   4.017   6.391  17.213 -0.4900  0.3786 -0.1930
14657TIP3    H165386   3.968   6.449  17.271 -1.7799 -0.4070 -0.4993
14657TIP3    H265387   4.104   6.432  17.208 -1.1088  1.8077  0.2877
14658TIP3   OH265388   6.291   2.078  14.132  0.2010  0.4834  0.0020
14658TIP3    H165389   6.200   2.053  14.147  0.5212  0.3484  1.7865
14658TIP3    H265390   6.294   2.171  14.150  0.4530  0.4560  0.0994
14659TIP3   OH265391   0.438   1.066  16.047  0.2727 -0.1146  0.3895
14659TIP3    H165392   0.454   1.146  16.097  2.3737  0.0033 -0.4083
14659TIP3    H265393   0.346   1.071  16.022 -0.2647  0.8307  2.4447
14660TIP3   OH265394   3.162   2.680   1.746 -0.6204  0.0623 -0.0051
14660TIP3    H165395   3.237   2.622   1.734  0.5632  1.3757  0.9090
14660TIP3    H265396   3.143   2.713   1.658  0.3994  0.3769 -0.1079
14661TIP3   OH265397   0.943   1.971  12.587 -0.1794 -0.1438  0.5645
14661TIP3    H165398   1.003   1.919  12.533 -0.9659 -0.1309 -0.3262
14661TIP3    H265399   0.985   1.974  12.673  0.8137 -0.6293  0.1038
14662TIP3   OH265400   1.007   6.618   2.014  0.3562 -0.4007 -0.2957
14662TIP3    H165401   0.969   6.593   1.930  1.8194 -2.0291 -0.5213
14662TIP3    H265402   0.935   6.611   2.077 -0.3190 -0.9148 -1.1224
14663TIP3   OH265403   1.867   2.946  15.285 -0.1286  0.0868  0.3365
14663TIP3    H165404   1.831   2.911  15.367  0.2407  0.0181  0.4689
14663TIP3    H265405   1.956   2.911  15.281  0.5034  1.5786  0.8297
14664TIP3   OH265406   2.284   2.355  13.166  0.1195 -0.0103  0.3472
14664TIP3    H165407   2.267   2.283  13.227 -0.8836  0.8596  1.1053
14664TIP3    H265408   2.379   2.366  13.168  0.1689 -0.5537  1.0939
14665TIP3   OH265409   0.476   5.914  11.479 -0.0752  0.1166  0.6020
14665TIP3    H165410   0.399   5.902  11.423  0.9834  0.0885 -0.9038
14665TIP3    H265411   0.443   5.909  11.568 -1.7241 -0.4776 -0.0269
14666TIP3   OH265412   0.213   1.486  13.577 -0.3891 -0.6881 -0.5002
14666TIP3    H165413   0.225   1.400  13.538  0.2393 -1.0132  0.3911
14666TIP3    H265414   0.177   1.469  13.664 -0.3972 -0.0502 -0.3713
14667TIP3   OH265415   0.540   1.461  11.576  0.4457  0.4202 -0.0261
14667TIP3    H165416   0.578   1.418  11.499 -1.3524  0.3409 -0.9098
14667TIP3    H265417   0.502   1.542  11.542 -0.7713  0.1654  0.6658
14668TIP3   OH265418   4.410   4.239   4.143  0.1926  0.1103 -0.4375
14668TIP3    H165419   4.360   4.320   4.143 -0.0085 -0.0154 -0.3880
14668TIP3    H265420   4.367   4.183   4.079 -1.1420 -0.8625  1.2375
14669TIP3   OH265421   0.586   2.068  14.985 -0.1554 -0.6217  0.1048
14669TIP3    H165422   0.637   2.136  14.942 -0.5305  0.3944  1.2413
14669TIP3    H265423   0.631   2.053  15.068 -1.0629 -0.5399  0.6109
14670TIP3   OH265424   2.585   4.168   0.504 -0.1103  0.0509  0.1331
14670TIP3    H165425   2.673   4.201   0.523 -0.2227  0.5520 -0.1925
14670TIP3    H265426   2.584   4.156   0.409  0.2031 -1.7122  0.3399
14671TIP3   OH265427   3.238   5.214  12.935  0.3113 -0.6337 -0.9117
14671TIP3    H165428   3.225   5.305  12.909 -1.6493 -0.4153  0.7130
14671TIP3    H265429   3.223   5.164  12.855 -0.0393  0.3791 -1.4912
14672TIP3   OH265430   4.870   1.652  12.329 -0.4847  0.3408  0.8354
14672TIP3    H165431   4.829   1.565  12.337 -0.6061  0.1045 -1.7350
14672TIP3    H265432   4.963   1.635  12.342 -0.1910 -0.6680 -2.0591
14673TIP3   OH265433   4.258   3.819  16.281  1.2027 -0.2347 -0.2570
14673TIP3    H165434   4.255   3.786  16.191  0.7629 -0.6637 -0.0845
14673TIP3    H265435   4.253   3.740  16.336  1.7945  0.0017  0.1428
14674TIP3   OH265436   1.112   5.505   1.870 -0.0586  0.0852 -0.5995
14674TIP3    H165437   1.147   5.579   1.919  0.3727 -0.2947 -0.3303
14674TIP3    H265438   1.108   5.536   1.779  0.6437  0.2509 -0.5766
14675TIP3   OH265439   3.567   1.184   2.425  0.3192  0.1755  0.7130
14675TIP3    H165440   3.639   1.205   2.365 -1.1441 -1.1887 -1.6448
14675TIP3    H265441   3.583   1.092   2.449  0.2660  0.3714  1.4881
14676TIP3   OH265442   6.156   1.079   4.867  0.7476 -0.0394 -0.1179
14676TIP3    H165443   6.151   1.022   4.944  0.7998 -0.5093 -0.4618
14676TIP3    H265444   6.230   1.137   4.885  0.7434 -0.1311  0.1990
14677TIP3   OH265445   3.575   5.111  15.003 -0.1759 -0.1031  0.1994
14677TIP3    H165446   3.637   5.038  15.006  0.9494  0.8628  0.6941
14677TIP3    H265447   3.620   5.183  15.047 -0.5880  1.4265 -1.7989
14678TIP3   OH265448   1.216   6.571  14.684  0.0166 -0.0082 -0.4798
14678TIP3    H165449   1.172   6.559  14.768 -0.3112  0.9889 -0.5009
14678TIP3    H265450   1.302   6.607  14.707  0.7638 -1.7290 -0.4536
14679TIP3   OH265451   4.509   2.414  11.839 -0.2312  0.3784 -0.0510
14679TIP3    H165452   4.564   2.367  11.902  1.8355  1.9546 -0.6213
14679TIP3    H265453   4.466   2.344  11.789 -0.5376 -0.8885  1.9178
14680TIP3   OH265454   2.173   0.501   5.556  0.0129 -0.1011  0.1743
14680TIP3    H165455   2.152   0.565   5.487 -1.0880 -0.9548 -0.2923
14680TIP3    H265456   2.187   0.419   5.508  1.0931 -0.3015  0.8058
14681TIP3   OH265457   0.062   3.106   3.428  1.0560 -0.2448 -0.0484
14681TIP3    H165458   0.088   3.017   3.453 -2.4172 -1.8634 -1.7865
14681TIP3    H265459   0.104   3.121   3.343  1.9092 -0.0853  0.3999
14682TIP3   OH265460   2.629   6.438   5.157 -0.5486 -0.0422 -0.1957
14682TIP3    H165461   2.675   6.368   5.204 -0.1370  0.4714  0.1786
14682TIP3    H265462   2.656   6.518   5.202 -3.3659  0.1127  1.2706
14683TIP3   OH265463   0.897   3.159  14.068  0.0885  0.2472 -0.3453
14683TIP3    H165464   0.933   3.098  14.004  0.2902 -0.7798  0.7151
14683TIP3    H265465   0.815   3.119  14.095  1.2913 -0.7549  2.0181
14684TIP3   OH265466   5.166   0.845   4.994  0.4290  0.2493  0.4380
14684TIP3    H165467   5.230   0.775   5.002  1.3202  1.1184  1.0193
14684TIP3    H265468   5.082   0.803   5.013  1.0665 -0.4424  1.8047
14685TIP3   OH265469   6.772   5.772   2.423 -0.6266  0.5591  0.4197
14685TIP3    H165470   6.791   5.713   2.351  1.2325 -0.1153  1.4469
14685TIP3    H265471   6.781   5.719   2.502 -5.4492  0.5181  1.1207
14686TIP3   OH265472   5.847   2.716   0.426 -0.3692 -0.8460 -0.2183
14686TIP3    H165473   5.861   2.778   0.353  2.3964 -1.6035 -0.3752
14686TIP3    H265474   5.790   2.649   0.389 -0.2096 -0.4411 -1.2354
14687TIP3   OH265475   3.028   5.520   0.323  0.1547 -0.3365  0.2757
14687TIP3    H165476   2.936   5.536   0.339  0.0039  0.8526 -1.5726
14687TIP3    H265477   3.071   5.604   0.340  0.6688 -0.4571 -0.3807
14688TIP3   OH265478   5.451   1.380  15.371 -0.4922  0.0904 -0.1541
14688TIP3    H165479   5.368   1.333  15.362 -1.3900  1.5630  0.2520
14688TIP3    H265480   5.512   1.331  15.316 -1.0013 -2.4508  1.4405
14689TIP3   OH265481   1.561   4.007   2.637  0.1102  0.0432  0.6128
14689TIP3    H165482   1.543   3.914   2.619 -0.0365  0.2640 -0.4058
14689TIP3    H265483   1.622   4.033   2.568 -0.6688  0.9746  0.2688
14690TIP3   OH265484   1.764   5.212  16.000  0.6808 -0.4121  0.7051
14690TIP3    H165485   1.698   5.277  16.024  0.3268 -0.9390  1.1728
14690TIP3    H265486   1.838   5.263  15.967 -0.3150  0.1352 -0.7099
14691TIP3   OH265487   6.724   3.067  16.546 -0.1930 -0.1696  0.1287
14691TIP3    H165488   6.706   3.126  16.619  2.1051  0.5671  0.1566
14691TIP3    H265489   6.787   3.004  16.581 -0.3493 -0.8199 -0.7427
14692TIP3   OH265490   6.143   5.685  11.790  0.1184  0.0311 -0.8231
14692TIP3    H165491   6.168   5.690  11.882  0.6412 -2.7194 -0.7537
14692TIP3    H265492   6.067   5.626  11.790  1.9532 -2.4514 -2.3941
14693TIP3   OH265493   2.576   4.945   3.192 -0.4215 -0.3282  0.5445
14693TIP3    H165494   2.649   4.984   3.144 -0.0264 -0.2197  1.2372
14693TIP3    H265495   2.617   4.883   3.252 -0.8423  0.2984  1.4824
14694TIP3   OH265496   4.478   6.119   4.600  0.0104 -0.0250 -0.3074
14694TIP3    H165497   4.530   6.192   4.635 -1.7704  1.5149 -0.7798
14694TIP3    H265498   4.416   6.099   4.670  0.8340 -1.4844  0.0337
14695TIP3   OH265499   2.823   0.102  15.251  0.9683  0.3133  0.1647
14695TIP3    H165500   2.797   0.194  15.253  0.4388  0.1868 -0.7377
14695TIP3    H265501   2.859   0.089  15.163 -2.5688 -1.3015 -1.1568
14696TIP3   OH265502   5.574   2.389   5.859  0.0171 -0.4509  0.6522
14696TIP3    H165503   5.570   2.482   5.838  1.5649 -0.2514  1.2130
14696TIP3    H265504   5.502   2.351   5.810 -0.4053  0.9913  0.1293
14697TIP3   OH265505   3.254   2.715   4.753 -0.3000  0.4904 -0.1671
14697TIP3    H165506   3.286   2.732   4.841 -2.5349 -1.2174  1.0221
14697TIP3    H265507   3.168   2.759   4.750 -2.0141 -2.7372 -0.1224
14698TIP3   OH265508   1.643   2.792   3.291  0.1050  0.1979 -0.0246
14698TIP3    H165509   1.710   2.774   3.357  1.5819  0.9503 -1.2735
14698TIP3    H265510   1.684   2.766   3.208 -1.6593 -0.5866 -0.6691
14699TIP3   OH265511   3.766   4.064   6.371 -1.0532 -0.4016 -0.2233
14699TIP3    H165512   3.850   4.108   6.357 -0.3644 -1.7902 -0.5456
14699TIP3    H265513   3.742   4.085   6.462 -1.0009  1.0505 -0.5351
14700TIP3   OH265514   6.123   6.451  13.129 -0.3632 -0.6902  0.2718
14700TIP3    H165515   6.082   6.481  13.210  0.9995  1.9308  0.0580
14700TIP3    H265516   6.215   6.476  13.138 -0.5594  1.4385 -2.8833
14701TIP3   OH265517   2.892   0.906  14.348  0.0754  0.0009 -0.8155
14701TIP3    H165518   2.863   0.843  14.281 -1.7158 -0.1657  0.0999
14701TIP3    H265519   2.885   0.858  14.431  2.6733  0.0695 -0.4985
14702TIP3   OH265520   4.630   0.074   0.282 -0.6013 -0.4551 -0.0871
14702TIP3    H165521   4.565   0.110   0.222  0.2977  0.2904 -0.6298
14702TIP3    H265522   4.639  -0.017   0.254 -0.5005 -0.2276 -0.8222
14703TIP3   OH265523   4.413   4.107  14.648  0.3566 -0.7097  0.3800
14703TIP3    H165524   4.387   4.161  14.573  0.8260 -0.4010  0.4378
14703TIP3    H265525   4.486   4.055  14.616 -0.9632 -2.3438 -0.0952
14704TIP3   OH265526   2.084   4.052   5.174 -0.3267  0.4018  0.4668
14704TIP3    H165527   2.059   4.132   5.220  1.7268  0.4150  1.6382
14704TIP3    H265528   2.179   4.046   5.188 -0.2659 -1.5407 -0.7097
14705TIP3   OH265529   5.462   1.204   1.847  0.3223  0.0850  0.3977
14705TIP3    H165530   5.429   1.239   1.930 -0.9879  0.5926 -0.3218
14705TIP3    H265531   5.547   1.246   1.836  0.2123  0.5233  1.1653
14706TIP3   OH265532   3.218   4.164  11.587  0.1240  0.4525 -0.4362
14706TIP3    H165533   3.313   4.173  11.574  0.0516  3.1521  0.5493
14706TIP3    H265534   3.180   4.178  11.500  0.6502 -1.7837 -1.0621
14707TIP3   OH265535   3.029   4.389   1.760  0.6802 -0.5376 -0.1688
14707TIP3    H165536   3.076   4.380   1.843  1.2284 -1.2208 -0.5468
14707TIP3    H265537   3.095   4.372   1.693  0.5164  1.2033 -0.7958
14708TIP3   OH265538   6.312   4.376  14.334  0.3571  0.1312  0.1712
14708TIP3    H165539   6.298   4.397  14.241  2.1636  4.4110  0.7154
14708TIP3    H265540   6.237   4.415  14.379  1.1291  0.9715  0.7568
14709TIP3   OH265541   3.210   1.527  11.250  0.1146  0.3906  0.0159
14709TIP3    H165542   3.165   1.443  11.244 -0.9294  0.9896 -0.6961
14709TIP3    H265543   3.237   1.546  11.160  0.0734  0.9564  0.1235
14710TIP3   OH265544   1.172   4.926   0.242 -0.5898  0.0756 -0.3896
14710TIP3    H165545   1.262   4.938   0.214 -1.0645  1.5336 -1.3562
14710TIP3    H265546   1.178   4.891   0.331  0.9124 -0.0551 -0.5399
14711TIP3   OH265547   1.215   0.399  12.022  0.5065 -0.6862 -0.1030
14711TIP3    H165548   1.208   0.319  12.074  4.1519 -0.6740  0.5074
14711TIP3    H265549   1.228   0.469  12.086 -3.2928  0.5926 -0.5822
14712TIP3   OH265550   1.333   3.677  10.559  0.4395 -0.3783  0.3818
14712TIP3    H165551   1.237   3.686  10.562  0.4350  0.4739 -1.4252
14712TIP3    H265552   1.365   3.756  10.603  0.3045 -0.5567  0.7971
14713TIP3   OH265553   1.602   0.868   3.591  0.8263 -0.1537 -0.0795
14713TIP3    H165554   1.696   0.873   3.575  0.5096  0.5172 -1.9009
14713TIP3    H265555   1.566   0.944   3.546 -0.3113  1.1878  2.9892
14714TIP3   OH265556   2.705   6.404  14.375  0.7081  0.3397  0.1602
14714TIP3    H165557   2.797   6.404  14.350  0.8316 -0.5358  0.5894
14714TIP3    H265558   2.690   6.491  14.412  1.5277  0.2619  0.6789
14715TIP3   OH265559   3.657   3.628   1.795 -0.0322  0.1310 -0.2561
14715TIP3    H165560   3.666   3.538   1.824  2.3202  0.2982 -0.3409
14715TIP3    H265561   3.583   3.627   1.735  0.8853 -2.0575 -1.4099
14716TIP3   OH265562   3.476   6.582   0.723 -0.4944 -0.0437  0.1547
14716TIP3    H165563   3.525   6.531   0.659 -0.1912  0.2669  0.1410
14716TIP3    H265564   3.434   6.516   0.779  0.0225 -0.3093  0.2320
14717TIP3   OH265565   2.979   3.391  13.251  0.5063  0.3201  0.1137
14717TIP3    H165566   3.065   3.412  13.216  0.6889 -0.5749  0.0246
14717TIP3    H265567   2.981   3.297  13.266 -1.2045 -0.0931 -1.9661
14718TIP3   OH265568   6.199   2.314   4.747 -0.0069 -0.8536 -0.0771
14718TIP3    H165569   6.280   2.325   4.797  0.3557 -1.3961 -0.5227
14718TIP3    H265570   6.189   2.396   4.700 -0.2468 -0.4163  0.7388
14719TIP3   OH265571   5.316   5.480  14.161 -0.0964 -0.1555  0.3557
14719TIP3    H165572   5.392   5.534  14.142 -0.2595  0.8914  2.4887
14719TIP3    H265573   5.349   5.390  14.162  0.4075 -0.0134 -2.0851
14720TIP3   OH265574   3.647   1.614  16.909 -0.3403  0.4634  0.1299
14720TIP3    H165575   3.668   1.630  16.817  1.4244 -0.9232  0.2670
14720TIP3    H265576   3.579   1.679  16.930 -0.2607  1.2492 -1.9435
14721TIP3   OH265577   4.753   0.578   0.543  0.2657 -0.2018 -0.6493
14721TIP3    H165578   4.793   0.662   0.566 -0.4162  0.2254 -0.9855
14721TIP3    H265579   4.660   0.598   0.532  0.3571 -0.6689 -2.4065
14722TIP3   OH265580   6.355   4.403  11.296 -0.0544 -0.1594 -0.0162
14722TIP3    H165581   6.277   4.456  11.311 -0.5996 -0.9340 -0.1048
14722TIP3    H265582   6.340   4.359  11.213  0.6067 -0.0791 -0.1831
14723TIP3   OH265583   2.100   3.136  15.479 -0.0270 -0.2799 -0.2087
14723TIP3    H165584   2.144   3.134  15.393  2.3946  0.0766  0.9665
14723TIP3    H265585   2.156   3.082  15.535 -0.2195  1.4785  1.7432
14724TIP3   OH265586   0.595   5.838  12.969 -0.2375 -0.3360 -0.0892
14724TIP3    H165587   0.578   5.746  12.991 -1.3508 -0.1477 -0.1031
14724TIP3    H265588   0.551   5.850  12.884  0.5273  0.0172 -0.4350
14725TIP3   OH265589   1.622   2.187  13.670 -0.0972 -0.0888  0.0872
14725TIP3    H165590   1.565   2.243  13.723 -0.5664  0.7746 -1.2927
14725TIP3    H265591   1.693   2.245  13.642 -0.7847 -0.0651 -1.6659
14726TIP3   OH265592   1.851   5.557  14.141  0.3515  0.5108 -0.0887
14726TIP3    H165593   1.758   5.569  14.122  0.5026  1.4925 -0.1944
14726TIP3    H265594   1.890   5.536  14.056  0.2975  0.4920 -0.1097
14727TIP3   OH265595   1.418   3.445  10.736 -0.2199 -0.0315  0.0377
14727TIP3    H165596   1.368   3.364  10.728  0.9066 -0.4379 -3.7534
14727TIP3    H265597   1.368   3.509  10.685  0.9335  0.6441 -0.2669
14728TIP3   OH265598   0.465   6.555   5.848  0.1481  0.2861  0.0855
14728TIP3    H165599   0.376   6.521   5.857  1.0250 -2.0805  0.3022
14728TIP3    H265600   0.507   6.532   5.931  1.3403  0.1427 -0.5533
14729TIP3   OH265601   4.734   5.617   1.762 -0.0434 -0.4475 -0.0271
14729TIP3    H165602   4.714   5.530   1.796 -0.0260 -0.6814 -0.6141
14729TIP3    H265603   4.673   5.629   1.689 -1.7329  1.0264  1.5756
14730TIP3   OH265604   2.534   2.912   4.000  0.1022 -0.0629  0.4108
14730TIP3    H165605   2.585   2.833   4.019  0.8724  0.9116  2.5939
14730TIP3    H265606   2.598   2.983   4.007 -0.4677  0.7176 -2.0710
14731TIP3   OH265607   2.433   6.524  13.507 -0.1900 -0.1726 -0.4352
14731TIP3    H165608   2.465   6.449  13.557  1.6094  1.1546  0.4320
14731TIP3    H265609   2.477   6.600  13.545 -0.3073  1.1021 -2.7191
14732TIP3   OH265610   1.377   2.530   1.534 -0.2670 -1.2011  0.4949
14732TIP3    H165611   1.440   2.580   1.585 -1.9454  0.4215  1.0138
14732TIP3    H265612   1.420   2.446   1.519  2.7697  0.4763 -0.6943
14733TIP3   OH265613   1.618   0.648  11.242 -0.0310  0.1613  0.1893
14733TIP3    H165614   1.676   0.723  11.252 -0.6585  0.8730 -1.3691
14733TIP3    H265615   1.580   0.659  11.155 -2.2893 -0.4467  1.0786
14734TIP3   OH265616   6.017   5.100  11.857  0.7556  0.2541 -0.2688
14734TIP3    H165617   6.042   5.107  11.765 -2.9571  1.8742 -1.2740
14734TIP3    H265618   5.981   5.012  11.865  1.5737 -0.0761 -0.2448
14735TIP3   OH265619   2.335   1.878   4.199 -0.0263  0.2830 -0.0985
14735TIP3    H165620   2.300   1.822   4.268  2.7513 -0.6867  0.5924
14735TIP3    H265621   2.354   1.961   4.243  0.4340  0.1307 -0.0080
14736TIP3   OH265622   1.903   1.244  11.523 -0.1504  0.2111 -0.3446
14736TIP3    H165623   1.961   1.237  11.598 -0.3390 -2.1950 -0.4098
14736TIP3    H265624   1.961   1.260  11.448  0.2304  0.0638 -0.0800
14737TIP3   OH265625   5.567   2.412   5.547 -0.1608  0.0572  0.1023
14737TIP3    H165626   5.629   2.476   5.514 -0.6024  1.1272  1.2846
14737TIP3    H265627   5.617   2.361   5.611 -0.2717  0.3803  0.4493
14738TIP3   OH265628   0.402   5.070   3.488  0.5094 -0.9846 -0.1430
14738TIP3    H165629   0.343   5.096   3.559 -0.6492  0.1182 -1.4639
14738TIP3    H265630   0.440   4.988   3.517 -0.9385 -1.2081  1.1875
14739TIP3   OH265631   1.449   5.746   3.006 -0.0597 -0.1324 -0.1902
14739TIP3    H165632   1.540   5.730   3.031 -0.3731 -2.1477 -0.2522
14739TIP3    H265633   1.454   5.808   2.933  1.2211  0.0604  0.0464
14740TIP3   OH265634   2.299   4.486   4.584  0.1841  0.2904 -0.0748
14740TIP3    H165635   2.270   4.551   4.519  0.5449  0.6869  0.1605
14740TIP3    H265636   2.310   4.536   4.665 -0.1058 -0.1746  0.2537
14741TIP3   OH265637   1.431   1.212   1.730 -0.1527 -0.1339  0.3673
14741TIP3    H165638   1.400   1.182   1.644  3.2950  0.1118 -1.0527
14741TIP3    H265639   1.458   1.302   1.715  1.9566 -0.5878  1.2872
14742TIP3   OH265640   6.547   6.122  16.956  0.1262 -0.0806 -0.4566
14742TIP3    H165641   6.542   6.181  17.031 -0.5338 -0.3870 -0.2592
14742TIP3    H265642   6.522   6.176  16.881 -0.8112 -0.1898 -0.2268
14743TIP3   OH265643   3.384   6.293  13.902  0.3326  0.1677 -0.1756
14743TIP3    H165644   3.479   6.283  13.897  0.2583 -1.2564  1.0269
14743TIP3    H265645   3.354   6.290  13.811  1.7063  3.6385 -0.8011
14744TIP3   OH265646   3.590   0.070   2.504 -0.3942 -0.0671 -0.4452
14744TIP3    H165647   3.643   0.133   2.455  0.4214  0.7365  1.4029
14744TIP3    H265648   3.527   0.037   2.440  1.1011  0.3848 -2.2093
14745TIP3   OH265649   1.317   5.006  16.235 -0.2281 -0.4429 -0.7420
14745TIP3    H165650   1.344   4.981  16.323  0.7765  2.3743 -0.1918
14745TIP3    H265651   1.222   5.019  16.242 -0.8124 -4.0680 -1.0929
14746TIP3   OH265652   0.391   1.235  13.888 -0.0513 -0.0363  0.3817
14746TIP3    H165653   0.469   1.264  13.840 -0.7037  1.2171  0.0508
14746TIP3    H265654   0.387   1.140  13.873  1.2613 -0.0710  0.1959
14747TIP3   OH265655   4.409   4.285  15.117 -0.8810  0.0920  0.2260
14747TIP3    H165656   4.417   4.346  15.043  1.3320 -1.4616 -0.8559
14747TIP3    H265657   4.373   4.205  15.079  0.8809 -0.9419  0.6784
14748TIP3   OH265658   1.294   1.880   1.586 -0.1812  0.1472  0.0299
14748TIP3    H165659   1.269   1.793   1.554  1.1804 -0.6006  0.9036
14748TIP3    H265660   1.272   1.878   1.679 -1.2558  1.1802 -0.1995
14749TIP3   OH265661   4.079   4.670   5.872 -0.2189 -0.1979 -0.6222
14749TIP3    H165662   4.168   4.701   5.855 -0.2452 -0.5764 -1.5046
14749TIP3    H265663   4.061   4.695   5.963  1.2278 -1.1383 -0.0546
14750TIP3   OH265664   2.822   6.300  11.403  0.4832 -0.1226 -0.0881
14750TIP3    H165665   2.803   6.221  11.454  1.8121  0.7492  1.7702
14750TIP3    H265666   2.887   6.272  11.338 -0.3218 -0.9448 -0.5555
14751TIP3   OH265667   0.167   2.401   0.767  0.1597 -0.3078 -0.4338
14751TIP3    H165668   0.250   2.368   0.803  0.5341  3.3932  2.4035
14751TIP3    H265669   0.181   2.495   0.757 -3.4703  0.2677 -0.6290
14752TIP3   OH265670   4.252   3.139   4.832 -0.3175 -0.2510 -0.0112
14752TIP3    H165671   4.181   3.079   4.807 -0.4104 -1.4436  2.9688
14752TIP3    H265672   4.218   3.226   4.810 -2.9182 -0.7527  1.7922
14753TIP3   OH265673   1.725   3.793  16.579 -0.3944 -0.6044 -0.5064
14753TIP3    H165674   1.698   3.723  16.520 -1.2466  0.1855 -1.0674
14753TIP3    H265675   1.645   3.815  16.627  0.3834 -1.5424  1.2863
14754TIP3   OH265676   5.513   5.261  13.069 -0.2103 -0.3952  0.4437
14754TIP3    H165677   5.494   5.260  13.163  1.3014  1.9971  0.8258
14754TIP3    H265678   5.451   5.323  13.032 -0.8442 -1.3805 -0.1662
14755TIP3   OH265679   2.312   2.761  16.939  0.2203 -0.5984  0.2923
14755TIP3    H165680   2.277   2.770  17.027 -0.0749 -2.9392  0.4482
14755TIP3    H265681   2.407   2.760  16.951  0.2033 -0.1317  0.4838
14756TIP3   OH265682   0.067   0.724   3.593 -0.2299  0.2127  0.3779
14756TIP3    H165683   0.067   0.751   3.685 -1.5224 -2.4716  1.2116
14756TIP3    H265684   0.151   0.679   3.582  0.3223  1.3410 -0.0006
14757TIP3   OH265685   3.084   6.704  12.799  0.5230  1.3268  0.1575
14757TIP3    H165686   3.018   6.772  12.809 -1.3911 -0.3954 -0.5009
14757TIP3    H265687   3.152   6.745  12.745  0.6515  3.5215  1.8711
14758TIP3   OH265688   4.944   6.234  17.012 -0.4472  1.0456 -0.1831
14758TIP3    H165689   4.936   6.245  16.917 -2.8429 -1.0544 -0.2517
14758TIP3    H265690   5.038   6.238  17.028 -0.0222  1.6749 -2.6043
14759TIP3   OH265691   2.381   2.584   1.725  0.2987 -0.2113  1.0687
14759TIP3    H165692   2.350   2.612   1.811 -1.0852  3.4919 -0.5244
14759TIP3    H265693   2.301   2.577   1.672  1.3656  0.1765 -0.6206
14760TIP3   OH265694   5.036   1.788   4.348 -0.2177 -0.4412 -0.5046
14760TIP3    H165695   5.090   1.789   4.269 -0.3276 -0.9867 -0.5888
14760TIP3    H265696   5.084   1.732   4.410  0.4892  0.9856  0.2593
14761TIP3   OH265697   0.421   6.619   5.247  0.1293 -0.3643 -0.7176
14761TIP3    H165698   0.369   6.552   5.292  0.3122 -0.4445 -0.6270
14761TIP3    H265699   0.357   6.667   5.195 -0.2407  0.3188  0.3304
14762TIP3   OH265700   1.472   6.763   5.496 -0.5353 -0.2118  0.3137
14762TIP3    H165701   1.442   6.782   5.585  0.1094 -0.9259  0.6926
14762TIP3    H265702   1.560   6.800   5.492 -1.2219  1.3725 -0.6087
14763TIP3   OH265703   0.510   3.856  14.344 -0.2425 -0.0689 -0.1812
14763TIP3    H165704   0.550   3.919  14.404  0.5273 -0.4237 -0.3117
14763TIP3    H265705   0.505   3.903  14.260  0.0439 -0.0689 -0.2006
14764TIP3   OH265706   5.089   4.956  15.736 -0.0462 -0.1576  0.4361
14764TIP3    H165707   5.020   4.985  15.676  1.3001  1.7731 -0.2382
14764TIP3    H265708   5.075   4.861  15.745 -1.5900 -0.1159 -1.2188
14765TIP3   OH265709   1.916   0.349  11.463  0.0462  0.4686  0.9569
14765TIP3    H165710   1.820   0.348  11.472 -0.2805  0.0908 -1.9263
14765TIP3    H265711   1.934   0.282  11.397  2.5457 -1.0362  3.0699
14766TIP3   OH265712   0.734   5.184   1.470 -0.1702 -0.1905  0.1764
14766TIP3    H165713   0.709   5.176   1.378 -0.7949 -2.1929  0.4981
14766TIP3    H265714   0.789   5.108   1.487 -0.4281 -0.0817  1.5832
14767TIP3   OH265715   4.494   6.371  12.618 -0.3931  0.2040  0.0220
14767TIP3    H165716   4.416   6.315  12.612 -1.6137  1.8489 -0.0198
14767TIP3    H265717   4.478   6.425  12.696  1.5418 -0.6523  1.0381
14768TIP3   OH265718   5.944   0.709   3.193  0.1713  0.0175  0.4013
14768TIP3    H165719   5.955   0.696   3.099 -2.1691 -1.5617  0.3111
14768TIP3    H265720   5.863   0.758   3.201  0.6072  0.5602  1.5887
14769TIP3   OH265721   6.770   6.142  13.650 -0.5634 -0.1197 -0.1775
14769TIP3    H165722   6.713   6.096  13.712  0.5939 -0.0920  0.9293
14769TIP3    H265723   6.835   6.185  13.705 -0.4298  1.1843 -1.3324
14770TIP3   OH265724   3.881   3.524  14.344  0.0982  0.2614 -0.4996
14770TIP3    H165725   3.901   3.430  14.340 -0.4137  0.2031 -1.7165
14770TIP3    H265726   3.893   3.547  14.436 -1.8317 -1.4703  0.2168
14771TIP3   OH265727   5.981   5.104   0.307 -0.1542  0.3287 -0.0499
14771TIP3    H165728   5.989   5.068   0.219  0.1553 -2.1304  0.9494
14771TIP3    H265729   6.063   5.152   0.320  0.6158 -0.8491 -0.4333
14772TIP3   OH265730   5.717   5.632  15.087 -0.1328 -0.3222  0.0526
14772TIP3    H165731   5.719   5.590  15.001  0.3748 -1.2755  0.5290
14772TIP3    H265732   5.800   5.607  15.128  1.3305  3.1617 -0.6148
14773TIP3   OH265733   0.612   6.757  11.901  0.0035  0.4283 -0.1365
14773TIP3    H165734   0.522   6.723  11.906 -0.1807  0.8817 -0.3220
14773TIP3    H265735   0.602   6.844  11.864  0.4491  0.7813  0.5648
14774TIP3   OH265736   3.827   0.942  10.872 -0.7506  0.3840  0.3241
14774TIP3    H165737   3.852   1.006  10.937 -1.2511 -0.3047  1.2066
14774TIP3    H265738   3.731   0.943  10.873 -0.7847  1.3855 -1.4179
14775TIP3   OH265739   1.665   6.192   0.228  0.2448  0.5064  0.0690
14775TIP3    H165740   1.610   6.135   0.175  2.1574 -0.0692 -1.3720
14775TIP3    H265741   1.604   6.252   0.271 -1.7109 -2.0061  0.8791
14776TIP3   OH265742   4.873   4.096   4.121 -0.2561 -0.1174 -0.5196
14776TIP3    H165743   4.808   4.148   4.168 -0.3279 -1.2009  0.6067
14776TIP3    H265744   4.949   4.153   4.114 -0.6614  0.4751 -0.1367
14777TIP3   OH265745   3.148   2.713  11.357  0.1483  0.1032  0.2460
14777TIP3    H165746   3.231   2.675  11.387  0.3013  0.7299  0.6152
14777TIP3    H265747   3.167   2.748  11.270 -0.0966 -1.0248 -0.2721
14778TIP3   OH265748   6.377   3.930   3.831 -0.6219 -0.5959  0.4460
14778TIP3    H165749   6.353   3.982   3.755  1.2482 -0.2747  0.0387
14778TIP3    H265750   6.387   3.994   3.902 -1.1925 -0.7504  0.6661
14779TIP3   OH265751   6.767   1.756  16.513 -0.9326 -0.0872 -0.2148
14779TIP3    H165752   6.736   1.704  16.439 -1.6933  0.6919 -0.4536
14779TIP3    H265753   6.764   1.695  16.587 -0.9276 -0.6479 -0.6713
14780TIP3   OH265754   3.790   1.948   5.928  1.0304 -0.3822  0.0187
14780TIP3    H165755   3.861   1.890   5.955  0.3757 -0.0541  2.5036
14780TIP3    H265756   3.713   1.891   5.920  0.7458 -0.1365  0.9344
14781TIP3   OH265757   4.627   6.347   2.160  0.5090 -0.1288  0.1950
14781TIP3    H165758   4.535   6.339   2.134  0.7182  0.4939 -0.7534
14781TIP3    H265759   4.628   6.321   2.253 -0.7773  0.8380  0.4913
14782TIP3   OH265760   0.657   5.287  11.474 -0.1871  0.7451 -0.4798
14782TIP3    H165761   0.567   5.318  11.463  0.4756  2.1584 -2.1608
14782TIP3    H265762   0.661   5.206  11.424 -0.5447  0.6011 -0.2842
14783TIP3   OH265763   0.784   4.123  16.197 -0.3982  0.1350 -0.0160
14783TIP3    H165764   0.802   4.044  16.146  0.2429  0.9808 -1.1116
14783TIP3    H265765   0.843   4.189  16.162  0.7358  0.5019  2.4277
14784TIP3   OH265766   4.236   5.695   1.505 -0.5659  0.1672  0.1117
14784TIP3    H165767   4.255   5.664   1.594 -1.2664  0.1053  0.2464
14784TIP3    H265768   4.246   5.617   1.450  3.1274  0.8883 -0.3697
14785TIP3   OH265769   6.414   1.234  16.922 -0.2164  0.5882  0.7435
14785TIP3    H165770   6.343   1.169  16.921 -1.3917  1.8365  0.6826
14785TIP3    H265771   6.401   1.282  17.004  0.0888  1.3209  0.3622
14786TIP3   OH265772   2.942   6.776  16.610  0.1920 -0.1689  0.4287
14786TIP3    H165773   3.011   6.740  16.664  0.4167  0.1730  0.3754
14786TIP3    H265774   2.980   6.855  16.571  0.2406 -0.7545 -0.7291
14787TIP3   OH265775   6.180   3.285   1.856  0.3978  0.0535  0.3380
14787TIP3    H165776   6.179   3.279   1.952  2.4945  0.7333  0.4181
14787TIP3    H265777   6.239   3.358   1.837  0.1476 -0.1969 -1.4935
14788TIP3   OH265778   1.992   4.776  12.086 -0.7578  0.1233 -0.1698
14788TIP3    H165779   1.924   4.773  12.019 -0.5903  1.6314 -0.4076
14788TIP3    H265780   2.047   4.700  12.067 -1.0225  0.2381 -1.4097
14789TIP3   OH265781   0.117   1.486  16.219  0.0140 -0.3810 -0.4367
14789TIP3    H165782   0.053   1.552  16.243 -1.7115 -1.8722 -0.7959
14789TIP3    H265783   0.090   1.457  16.132  0.1856 -2.1794  0.0860
14790TIP3   OH265784   4.146   1.594   4.117  0.2346  0.1926  0.1410
14790TIP3    H165785   4.224   1.604   4.171  1.0396 -2.5310 -0.4005
14790TIP3    H265786   4.081   1.554   4.175 -0.1184  0.6563  0.0693
14791TIP3   OH265787   3.066   3.022  13.921  0.1817 -0.4803  0.2062
14791TIP3    H165788   3.149   3.070  13.932 -0.7336  0.9463  1.0042
14791TIP3    H265789   3.093   2.930  13.915  1.7497 -0.1490  1.6590
14792TIP3   OH265790   3.052   4.630   2.830  0.3465  0.0863 -0.1370
14792TIP3    H165791   3.016   4.571   2.764  0.5766 -0.0917 -0.0998
14792TIP3    H265792   3.007   4.713   2.814  0.4359  0.0556 -0.5430
14793TIP3   OH265793   1.210   3.814  13.792 -0.1834  0.6706 -0.4943
14793TIP3    H165794   1.182   3.904  13.810 -0.7411 -0.2091  3.5902
14793TIP3    H265795   1.305   3.821  13.781 -0.0834  1.6948  0.7609
14794TIP3   OH265796   2.798   3.065  12.597  0.7053  0.0782  0.1791
14794TIP3    H165797   2.891   3.051  12.618  0.2128 -0.5948  2.0520
14794TIP3    H265798   2.751   3.034  12.675 -1.0424  1.4501 -0.2958
14795TIP3   OH265799   3.658   1.707   4.513  0.3508 -0.2485  0.0826
14795TIP3    H165800   3.614   1.790   4.495  0.1811  0.0412  1.7776
14795TIP3    H265801   3.751   1.725   4.497  0.1940 -0.0442 -0.6181
14796TIP3   OH265802   5.837   1.067   0.208  0.5171 -0.4369  0.7193
14796TIP3    H165803   5.794   1.144   0.243  0.0737 -0.4368  0.1825
14796TIP3    H265804   5.769   1.023   0.156  1.0366 -0.6685  0.2296
14797TIP3   OH265805   4.011   1.193  12.321 -0.1527  0.4852  0.0026
14797TIP3    H165806   4.012   1.210  12.415 -0.1800  1.1540 -0.1175
14797TIP3    H265807   3.928   1.228  12.291  1.0807  2.9015 -0.7482
14798TIP3   OH265808   1.402   5.042  14.650 -0.2660  0.6010 -0.8341
14798TIP3    H165809   1.423   4.949  14.643 -1.8535  0.2824 -1.5426
14798TIP3    H265810   1.307   5.044  14.663 -0.4552  2.1876 -2.3394
14799TIP3   OH265811   4.764   1.488  13.186  0.4351  0.0902  0.0099
14799TIP3    H165812   4.674   1.456  13.191  0.6459 -0.3135  1.3223
14799TIP3    H265813   4.795   1.488  13.276  1.7734  0.1688 -0.4354
14800TIP3   OH265814   0.500   3.263  16.947  0.9095 -0.2905  0.2981
14800TIP3    H165815   0.545   3.285  17.029  0.0586  0.8518  0.4827
14800TIP3    H265816   0.466   3.175  16.961 -0.1668  0.3201  1.5985
14801TIP3   OH265817   1.478   4.846  12.057 -0.1612  0.0412  0.1229
14801TIP3    H165818   1.444   4.932  12.034 -1.8395 -0.8359 -0.7829
14801TIP3    H265819   1.561   4.864  12.103  0.0665  2.0561 -1.0333
14802TIP3   OH265820   1.355   4.446  14.894 -0.3414  0.0638 -0.4478
14802TIP3    H165821   1.320   4.535  14.885 -0.8320 -0.1926 -1.1661
14802TIP3    H265822   1.280   4.394  14.924 -0.7838 -0.6082 -2.6001
14803TIP3   OH265823   1.725   3.615  12.150  0.1077 -0.1100  0.3280
14803TIP3    H165824   1.800   3.646  12.200  1.0044  1.7626 -2.1079
14803TIP3    H265825   1.726   3.520  12.162  1.9672  0.0344  1.5204
14804TIP3   OH265826   1.828   0.610  11.890  0.0482 -0.1744  0.4900
14804TIP3    H165827   1.870   0.550  11.827 -2.1324 -0.7496 -0.4650
14804TIP3    H265828   1.901   0.660  11.926  1.5220 -0.7586 -1.5147
14805TIP3   OH265829   4.799   5.329   2.120  0.3348  0.1725  0.2816
14805TIP3    H165830   4.834   5.282   2.195 -0.6874 -0.9445  0.0732
14805TIP3    H265831   4.823   5.420   2.135  1.3046 -0.2388  1.2836
14806TIP3   OH265832   3.410   1.411  12.331  0.3650 -0.1307  0.3459
14806TIP3    H165833   3.456   1.441  12.409  0.2232  1.7678 -0.2942
14806TIP3    H265834   3.431   1.317  12.326  2.4854  0.2592  1.2074
14807TIP3   OH265835   2.390   3.075   3.030 -0.4668  0.1263  0.0229
14807TIP3    H165836   2.317   3.137   3.032 -0.9017 -0.3778 -0.2053
14807TIP3    H265837   2.349   2.989   3.032  0.1457 -0.1566  0.6120
14808TIP3   OH265838   4.983   4.729   1.969  0.0090 -0.2074  0.7023
14808TIP3    H165839   4.920   4.680   1.916 -2.0653  1.1564  1.8088
14808TIP3    H265840   4.929   4.794   2.015  2.4495  2.0143  0.5241
14809TIP3   OH265841   6.501   1.481  15.320  0.4364  0.3238  0.1047
14809TIP3    H165842   6.476   1.474  15.228  1.1712 -0.7600 -0.0114
14809TIP3    H265843   6.466   1.402  15.361 -1.5545  1.7103  1.1579
14810TIP3   OH265844   0.997   2.506   2.669 -0.5799  0.2750 -0.0594
14810TIP3    H165845   0.946   2.575   2.626 -1.0974 -0.4855 -0.6873
14810TIP3    H265846   1.083   2.545   2.682 -0.7994  0.9703 -0.6100
14811TIP3   OH265847   0.990   2.922  15.436 -0.3696 -0.0459  0.9108
14811TIP3    H165848   1.065   2.982  15.437 -0.1684 -0.2171 -1.1040
14811TIP3    H265849   1.028   2.835  15.442 -0.4668 -0.0938  0.8426
14812TIP3   OH265850   2.526   3.892  13.827  0.0069  0.4021  0.2192
14812TIP3    H165851   2.571   3.952  13.768 -2.9382  2.2606 -0.2593
14812TIP3    H265852   2.588   3.820  13.841  1.0926  0.2784 -4.5045
14813TIP3   OH265853   5.305   5.431   4.794 -0.1950  0.0922  0.1261
14813TIP3    H165854   5.234   5.495   4.782  0.4283  0.8951  0.6511
14813TIP3    H265855   5.316   5.424   4.889  0.2252 -0.2562  0.0536
14814TIP3   OH265856   5.289   5.142   1.253  0.5721 -0.1989  0.3474
14814TIP3    H165857   5.292   5.047   1.242 -1.7445 -0.1340 -1.3365
14814TIP3    H265858   5.351   5.176   1.188 -0.0430 -0.5138 -0.4188
14815TIP3   OH265859   5.367   0.736  16.712  0.3033  0.1667 -0.0145
14815TIP3    H165860   5.325   0.820  16.697 -0.8800 -0.7028 -1.7189
14815TIP3    H265861   5.295   0.673  16.717  1.1452 -0.7086  1.6142
14816TIP3   OH265862   4.223   3.579  16.413  0.1864  0.4036  0.7836
14816TIP3    H165863   4.279   3.556  16.486 -1.2380 -1.3685  1.3637
14816TIP3    H265864   4.243   3.514  16.345  0.8766  1.5026 -0.0798
14817TIP3   OH265865   0.503   6.465   6.099 -0.6080  0.4887  0.3340
14817TIP3    H165866   0.576   6.518   6.129  0.6808 -1.3787  0.6265
14817TIP3    H265867   0.441   6.466   6.171  0.9561 -1.1829  1.7810
14818TIP3   OH265868   3.097   4.931   5.050 -0.3382 -0.3300 -0.0332
14818TIP3    H165869   3.098   4.937   5.145  0.9156 -0.6744 -0.0138
14818TIP3    H265870   3.157   4.999   5.021  0.0941 -0.9093 -0.5233
14819TIP3   OH265871   3.480   4.162  15.449  0.1831  0.2421 -0.4654
14819TIP3    H165872   3.386   4.146  15.455  0.4974 -1.0849  1.4831
14819TIP3    H265873   3.489   4.257  15.462 -0.9268  0.4841 -1.4172
14820TIP3   OH265874   2.958   4.377   4.440 -0.2286 -0.5949  0.0927
14820TIP3    H165875   2.992   4.396   4.352 -0.2266 -0.1802  0.1817
14820TIP3    H265876   2.971   4.283   4.450  3.9782  0.0139  1.3940
14821TIP3   OH265877   4.896   1.305  12.074 -0.0016  0.2435  0.5169
14821TIP3    H165878   4.846   1.272  12.149 -0.0144 -0.6920  0.1009
14821TIP3    H265879   4.968   1.355  12.113  0.4627 -0.9271  1.1659
14822TIP3   OH265880   0.179   1.100   1.229 -0.0196  0.1070  0.0236
14822TIP3    H165881   0.265   1.137   1.247 -0.2752  0.7102 -0.0009
14822TIP3    H265882   0.165   1.116   1.136 -0.1948  0.0849  0.0460
14823TIP3   OH265883   1.823   5.835   0.879 -0.0631  0.1448  0.4178
14823TIP3    H165884   1.867   5.795   0.804 -1.1288  2.6475 -1.6206
14823TIP3    H265885   1.875   5.913   0.898 -0.4677  0.1411  1.5429
14824TIP3   OH265886   1.283   4.710  15.606  0.3406 -0.3020  0.7347
14824TIP3    H165887   1.290   4.672  15.693  0.1373  1.5244  1.5607
14824TIP3    H265888   1.372   4.740  15.586  0.3712 -0.6495  0.3255
14825TIP3   OH265889   6.100   2.293  12.550  0.5980  0.8243 -0.8558
14825TIP3    H165890   6.131   2.273  12.638 -0.5706  0.6167 -0.4824
14825TIP3    H265891   6.153   2.368  12.522  0.6775  1.1576  0.1866
14826TIP3   OH265892   4.842   3.988  15.627  0.4634  0.3606  0.0205
14826TIP3    H165893   4.821   4.004  15.535  0.2563 -1.8815 -0.3562
14826TIP3    H265894   4.858   3.893  15.631 -1.5515  0.0829  2.6793
14827TIP3   OH265895   0.245   3.099   4.918  0.0839  0.4309 -0.4110
14827TIP3    H165896   0.234   3.141   4.832  0.1559 -0.7889 -1.0205
14827TIP3    H265897   0.161   3.057   4.936  0.3283  0.0026 -0.2532
14828TIP3   OH265898   0.136   6.764  15.023  0.3863 -0.4170 -0.1319
14828TIP3    H165899   0.168   6.780  14.934 -0.7917 -0.2817 -0.5377
14828TIP3    H265900   0.047   6.799  15.023  0.6866  0.3559  1.3668
14829TIP3   OH265901   3.294   4.361   5.294 -0.6688 -0.2981  0.4428
14829TIP3    H165902   3.217   4.366   5.351 -0.8004  0.9105  0.1810
14829TIP3    H265903   3.316   4.453   5.276  0.1874 -0.6529 -0.3530
14830TIP3   OH265904   0.475   3.399  15.361  0.2943  0.2833  0.1236
14830TIP3    H165905   0.493   3.479  15.312 -0.5605  0.1533 -0.4252
14830TIP3    H265906   0.422   3.427  15.435  0.8788  0.3652  0.5135
14831TIP3   OH265907   0.403   3.238   3.042  0.0170 -0.1646 -0.4745
14831TIP3    H165908   0.485   3.189   3.045  0.5510  0.7508  0.6957
14831TIP3    H265909   0.431   3.330   3.037 -0.9554  0.0829 -1.5179
14832TIP3   OH265910   5.612   1.655  17.238  0.4999 -0.2314  0.2571
14832TIP3    H165911   5.640   1.685  17.151 -0.9604 -1.0713 -0.5265
14832TIP3    H265912   5.545   1.589  17.220  0.6368 -0.8832  2.0200
14833TIP3   OH265913   4.991   4.462  12.390  0.1694  0.0163  0.2156
14833TIP3    H165914   4.968   4.416  12.309 -0.4040 -0.3060  0.5578
14833TIP3    H265915   4.921   4.440  12.451  1.0548 -0.4819  1.0866
14834TIP3   OH265916   3.705   0.772  16.391 -0.1715 -0.0716 -0.2148
14834TIP3    H165917   3.794   0.741  16.375 -0.0827  0.2725 -0.4044
14834TIP3    H265918   3.649   0.711  16.342  0.1947  1.8830 -3.2275
14835TIP3   OH265919   4.214   2.772  17.040  0.2460  0.2019 -0.2317
14835TIP3    H165920   4.161   2.757  17.118  1.0288  0.9462  0.4647
14835TIP3    H265921   4.163   2.736  16.968 -0.6821 -0.1052  0.5746
14836TIP3   OH265922   0.940   0.594   3.404 -0.2099 -0.3260 -0.2594
14836TIP3    H165923   0.985   0.654   3.344 -0.5362 -0.3846 -0.5631
14836TIP3    H265924   0.953   0.633   3.491 -0.7934  0.4194 -0.5026
14837TIP3   OH265925   1.309   5.699  17.135 -0.1028 -0.8341 -0.5978
14837TIP3    H165926   1.294   5.606  17.121  0.4540 -0.8196 -1.3232
14837TIP3    H265927   1.223   5.739  17.129 -0.4319 -1.3794  0.3719
14838TIP3   OH265928   3.367   2.663  13.148 -0.0753  0.0000 -0.3933
14838TIP3    H165929   3.417   2.744  13.156  0.6875 -0.3658 -1.2863
14838TIP3    H265930   3.305   2.664  13.221 -0.2774  1.5282 -0.5818
14839TIP3   OH265931   0.467   4.739  11.465 -0.5142  0.2807 -0.7807
14839TIP3    H165932   0.549   4.697  11.440  0.0984  1.2674 -0.4764
14839TIP3    H265933   0.422   4.755  11.382 -1.2218 -1.8460 -0.8463
14840TIP3   OH265934   5.310   2.083   4.146  0.2316  0.1438  0.2753
14840TIP3    H165935   5.295   2.055   4.236 -2.8922 -1.8486 -0.7666
14840TIP3    H265936   5.322   2.177   4.151 -3.2828  0.5525  2.4427
14841TIP3   OH265937   1.406   0.950  15.173 -0.4182  0.0101 -0.3553
14841TIP3    H165938   1.335   0.981  15.117 -0.0127 -0.2137 -1.0028
14841TIP3    H265939   1.388   0.857  15.186 -1.3045  0.3634  1.0905
14842TIP3   OH265940   0.562   5.908  13.585 -1.0713 -0.6876 -0.9385
14842TIP3    H165941   0.591   5.871  13.668 -2.0905 -0.0687 -0.3010
14842TIP3    H265942   0.557   5.833  13.526 -2.2714 -1.4356  0.1036
14843TIP3   OH265943   6.536   1.950  14.984  0.1875 -0.1893  0.0971
14843TIP3    H165944   6.517   2.042  14.965 -0.5298 -0.3324  0.1303
14843TIP3    H265945   6.600   1.925  14.917 -0.2322  0.0961 -0.4114
14844TIP3   OH265946   3.331   6.462  11.646  0.3581 -0.7738  0.1195
14844TIP3    H165947   3.372   6.389  11.691  0.2139 -0.3463  0.9446
14844TIP3    H265948   3.394   6.534  11.654 -0.4452 -0.1825  1.1838
14845TIP3   OH265949   0.185   2.750  12.590 -0.4745  0.1332  0.0951
14845TIP3    H165950   0.279   2.765  12.596 -0.2224 -1.5577  0.4376
14845TIP3    H265951   0.149   2.835  12.563  1.2372  0.5365 -0.9689
14846TIP3   OH265952   6.546   4.762   6.304  0.2214 -0.8295  0.2771
14846TIP3    H165953   6.577   4.814   6.230 -0.3626  0.7403  1.1086
14846TIP3    H265954   6.536   4.673   6.269  0.2894 -0.1777 -1.4316
14847TIP3   OH265955   3.943   2.644   3.882 -0.2386  0.2868 -0.4365
14847TIP3    H165956   3.853   2.657   3.851 -0.1169  0.2004 -0.8313
14847TIP3    H265957   3.994   2.633   3.802  0.3524  1.7932 -0.2786
14848TIP3   OH265958   5.059   2.943  13.839  0.0244 -0.1373 -0.1824
14848TIP3    H165959   5.102   2.947  13.754 -0.5921  0.1397 -0.4850
14848TIP3    H265960   5.090   2.862  13.878  1.4705  0.4599 -0.0460
14849TIP3   OH265961   1.175   0.265  12.520 -0.2852  0.3721  0.3221
14849TIP3    H165962   1.173   0.182  12.472 -0.5249 -1.2500  3.0146
14849TIP3    H265963   1.102   0.315  12.485 -1.6852 -1.5818  0.3660
14850TIP3   OH265964   4.255   1.616   1.874 -0.1660 -0.4061  0.1646
14850TIP3    H165965   4.208   1.695   1.845  0.0437  0.0687  1.1110
14850TIP3    H265966   4.313   1.595   1.801 -1.7248 -0.9098 -0.9664
14851TIP3   OH265967   6.639   4.645  15.603 -0.9237  0.6962  0.0628
14851TIP3    H165968   6.673   4.586  15.535 -1.1131  0.5657  0.0800
14851TIP3    H265969   6.637   4.590  15.682  0.7481  1.2745  0.5334
14852TIP3   OH265970   6.300   2.495  14.788  0.2265 -0.0605  0.4849
14852TIP3    H165971   6.224   2.444  14.816 -0.2903  0.2857 -0.2930
14852TIP3    H265972   6.330   2.538  14.868  0.4936 -1.3428  1.0896
14853TIP3   OH265973   2.723   0.347  11.725 -0.2371  0.2375 -0.3879
14853TIP3    H165974   2.819   0.353  11.724 -0.3542  2.7142  0.4359
14853TIP3    H265975   2.694   0.406  11.655 -1.1760 -0.0031 -0.2138
14854TIP3   OH265976   2.380   5.589   1.888  0.1584  0.6412  0.6581
14854TIP3    H165977   2.367   5.654   1.819 -2.4924 -0.4527  0.0703
14854TIP3    H265978   2.455   5.537   1.858  1.8318  2.9087  0.7869
14855TIP3   OH265979   0.079   2.996  11.563  0.3079 -0.0282 -0.1358
14855TIP3    H165980   0.033   2.915  11.542  0.2333 -0.5509  1.9179
14855TIP3    H265981   0.102   2.987  11.655  0.2073  2.3149  0.1560
14856TIP3   OH265982   6.416   0.587   5.930  0.4144 -0.2050 -0.6924
14856TIP3    H165983   6.457   0.668   5.961 -1.5093  0.2946  0.6123
14856TIP3    H265984   6.451   0.518   5.986 -0.6070  0.2390  0.5045
14857TIP3   OH265985   5.061   2.608   0.668  0.0040  0.0957 -0.2836
14857TIP3    H165986   5.100   2.541   0.612  0.4612  0.8642 -0.8935
14857TIP3    H265987   4.967   2.606   0.647 -0.2212 -1.3840  0.7942
14858TIP3   OH265988   0.762   1.789   2.762  0.6111  0.0439  0.2245
14858TIP3    H165989   0.798   1.878   2.759  0.9610 -0.1261 -0.7983
14858TIP3    H265990   0.677   1.799   2.804  0.6880  0.8457  0.2024
14859TIP3   OH265991   5.891   2.167  16.291 -0.5043  0.5595  0.6686
14859TIP3    H165992   5.857   2.256  16.302  2.8146  1.8208  1.3482
14859TIP3    H265993   5.890   2.153  16.197  1.2281  2.2999  0.3560
14860TIP3   OH265994   4.378   3.675  13.818  0.1000 -0.4580 -0.1714
14860TIP3    H165995   4.293   3.643  13.849 -0.0223 -0.8757 -0.9323
14860TIP3    H265996   4.359   3.763  13.784  0.1117 -0.2675  0.2973
14861TIP3   OH265997   5.621   5.588  12.031 -0.1003 -0.0638  0.7190
14861TIP3    H165998   5.692   5.634  11.987  0.2998 -1.2124  0.1461
14861TIP3    H265999   5.664   5.526  12.089 -0.6143 -1.3125 -0.2073
14862TIP3   OH266000   6.305   0.769   0.822 -0.4875 -0.4010 -0.3677
14862TIP3    H166001   6.395   0.772   0.855  0.4397  0.4560 -2.8355
14862TIP3    H266002   6.253   0.811   0.891  1.2073  0.3886  0.4670
14863TIP3   OH266003   4.998   1.653  13.063  0.1040  0.0677  0.3396
14863TIP3    H166004   4.950   1.583  13.107 -0.5168  0.2749 -0.0086
14863TIP3    H266005   5.023   1.713  13.133  1.2288 -0.8376  0.7396
14864TIP3   OH266006   3.560   1.591   4.245  0.1602 -0.6107  0.1747
14864TIP3    H166007   3.468   1.567   4.236 -0.2153  0.8646 -0.1764
14864TIP3    H266008   3.574   1.602   4.339 -0.8342  2.0359  0.0675
14865TIP3   OH266009   3.343   4.846  15.541  0.4450 -0.2358 -0.0224
14865TIP3    H166010   3.289   4.877  15.468 -1.5089 -0.4204  1.2966
14865TIP3    H266011   3.411   4.792  15.500  0.0698  0.6101 -1.7865
14866TIP3   OH266012   6.004   0.426  14.242  0.2533 -0.1667  0.2018
14866TIP3    H166013   5.960   0.349  14.278  2.1181 -0.2682  2.3340
14866TIP3    H266014   6.085   0.392  14.203  0.1335  0.4755 -0.6322
14867TIP3   OH266015   2.955   3.459   4.514 -0.0522  0.0699  0.0537
14867TIP3    H166016   2.861   3.475   4.522 -0.2629 -0.6525 -0.8253
14867TIP3    H266017   2.994   3.546   4.507 -0.7946  0.3312 -0.9459
14868TIP3   OH266018   1.814   4.902   4.471  0.2203  0.3953 -0.4216
14868TIP3    H166019   1.846   4.853   4.396  1.0861 -0.4181  0.4527
14868TIP3    H266020   1.729   4.936   4.444 -0.4037 -1.5961 -1.0588
14869TIP3   OH266021   0.498   5.117   2.058  0.0049  0.3178  0.2123
14869TIP3    H166022   0.403   5.116   2.066  0.0534 -1.3559  0.7661
14869TIP3    H266023   0.526   5.031   2.090  1.6492  0.5502 -0.5318
14870TIP3   OH266024   0.603   4.082   1.957 -0.3170 -0.1319 -0.1847
14870TIP3    H166025   0.607   4.175   1.933 -1.0026 -0.2686 -0.8380
14870TIP3    H266026   0.533   4.046   1.903  0.2585 -1.1355 -0.2838
14871TIP3   OH266027   1.008   3.642  14.110 -0.2354 -0.3963  0.0305
14871TIP3    H166028   1.070   3.643  14.183 -0.1956  2.6637  0.0277
14871TIP3    H266029   0.980   3.551  14.104  1.3826 -1.1223  2.4791
14872TIP3   OH266030   5.366   3.140   1.284  0.4746  0.4358 -0.0307
14872TIP3    H166031   5.334   3.087   1.212  0.4494 -0.2515  0.4814
14872TIP3    H266032   5.306   3.123   1.356  0.6257  0.9461  0.2236
14873TIP3   OH266033   3.739   5.440   4.417 -0.6330  0.3333 -0.5468
14873TIP3    H166034   3.689   5.392   4.483  0.4938 -0.5383 -0.2965
14873TIP3    H266035   3.787   5.506   4.467 -1.0577  0.7702 -0.7107
14874TIP3   OH266036   6.257   0.864   6.107 -0.2051 -0.0651  0.4753
14874TIP3    H166037   6.194   0.794   6.125  0.2580 -0.6327 -0.0649
14874TIP3    H266038   6.217   0.943   6.144 -0.8147 -0.5816  0.9358
14875TIP3   OH266039   4.199   5.651   4.604 -0.1173  0.4773 -0.2608
14875TIP3    H166040   4.270   5.670   4.543 -0.5580  1.7264 -0.3935
14875TIP3    H266041   4.234   5.678   4.689 -1.8787  4.9877 -0.8626
14876TIP3   OH266042   6.083   1.702   2.970  0.0578 -0.0420  0.4782
14876TIP3    H166043   6.114   1.640   3.036  0.3989  1.2234  1.5323
14876TIP3    H266044   6.046   1.774   3.020  0.2034  0.8883 -0.7249
14877TIP3   OH266045   6.398   0.316   2.464  0.4686  0.2074  0.2978
14877TIP3    H166046   6.380   0.319   2.370  0.7553  2.1457  0.2718
14877TIP3    H266047   6.348   0.241   2.496 -1.0738  0.6053 -1.1083
14878TIP3   OH266048   4.265   0.634  17.152  0.5623  0.3235 -0.8609
14878TIP3    H166049   4.296   0.579  17.224  1.1399 -0.6065 -1.8153
14878TIP3    H266050   4.186   0.675  17.186  0.3025 -0.8519 -0.0226
14879TIP3   OH266051   4.021   2.249   4.385  0.5623  0.2417 -0.9559
14879TIP3    H166052   4.092   2.312   4.392  0.9827 -0.4196  0.9610
14879TIP3    H266053   4.016   2.207   4.471 -2.4930  0.6472 -0.8661
14880TIP3   OH266054   6.289   5.542   0.945  0.3969  0.2799  0.5470
14880TIP3    H166055   6.351   5.480   0.982  0.1577 -0.2058  0.1460
14880TIP3    H266056   6.205   5.518   0.984  0.1992 -0.0335 -0.0595
14881TIP3   OH266057   4.519   0.949  12.256 -0.7599 -0.4944 -0.0250
14881TIP3    H166058   4.492   1.016  12.318  1.5202  0.0050  0.4746
14881TIP3    H266059   4.601   0.914  12.292 -0.1183 -1.1352 -2.0403
14882TIP3   OH266060   4.998   1.890  16.815  0.6838  0.9320 -0.1239
14882TIP3    H166061   5.090   1.888  16.788  0.6803 -0.0964 -0.0856
14882TIP3    H266062   4.950   1.916  16.736  0.8109 -0.5766 -0.7066
14883TIP3   OH266063   2.662   2.385  15.557 -0.3239 -0.3800  0.0082
14883TIP3    H166064   2.574   2.398  15.593 -0.3426 -0.0961 -0.1363
14883TIP3    H266065   2.685   2.296  15.582 -0.2303 -0.0996  0.9642
14884TIP3   OH266066   3.186   5.236   2.017  0.3565 -0.6100  0.2658
14884TIP3    H166067   3.202   5.206   1.928  0.8714  0.3598  0.0208
14884TIP3    H266068   3.213   5.163   2.072  3.5811  0.1254 -0.2341
14885TIP3   OH266069   1.703   4.743  11.395 -0.1579 -0.0644 -0.7833
14885TIP3    H166070   1.674   4.653  11.412 -0.6288  0.1787 -0.2853
14885TIP3    H266071   1.774   4.733  11.332  1.8357 -0.9891  1.5370
14886TIP3   OH266072   5.855   2.110  15.977 -0.4349  0.4554  0.7003
14886TIP3    H166073   5.821   2.167  15.908 -0.2196 -0.8200 -0.4748
14886TIP3    H266074   5.785   2.107  16.042 -0.6906  1.5682  0.4936
14887TIP3   OH266075   3.436   0.025  14.598  0.1748 -1.1308  0.0850
14887TIP3    H166076   3.417  -0.030  14.674 -0.1617 -0.4673  0.4856
14887TIP3    H266077   3.417   0.114  14.628  1.3524 -0.7271 -0.3486
14888TIP3   OH266078   5.338   3.467   1.309 -0.3301  0.1590  0.2252
14888TIP3    H166079   5.351   3.378   1.274 -0.6885  0.4343 -0.6196
14888TIP3    H266080   5.243   3.475   1.318 -0.2730  0.3130  0.6824
14889TIP3   OH266081   1.482   0.229   2.399  0.5418 -0.5332 -0.2612
14889TIP3    H166082   1.394   0.219   2.433  0.9471 -1.2545  0.6174
14889TIP3    H266083   1.481   0.312   2.351 -0.6671 -0.6627 -0.4651
14890TIP3   OH266084   0.893   3.332  16.609  0.1394 -0.2149  0.2729
14890TIP3    H166085   0.973   3.281  16.594  0.0513 -0.2489 -0.0849
14890TIP3    H266086   0.843   3.280  16.672  0.2618 -0.3415  0.2653
14891TIP3   OH266087   6.648   2.106   4.257  0.7363 -0.1458 -0.3712
14891TIP3    H166088   6.702   2.092   4.335 -0.6955  0.2705  0.7195
14891TIP3    H266089   6.655   2.024   4.208 -0.6182 -1.5053  1.6311
14892TIP3   OH266090   5.482   4.978   4.772  0.2091  0.3868 -0.1155
14892TIP3    H166091   5.459   4.894   4.732 -0.4302 -0.9278  2.8850
14892TIP3    H266092   5.399   5.025   4.778  0.4351  0.9177 -1.0323
14893TIP3   OH266093   1.932   1.460   5.255  0.2143  0.3521 -0.3209
14893TIP3    H166094   1.862   1.401   5.282  1.1790 -0.6696 -0.0004
14893TIP3    H266095   1.992   1.461   5.330  1.0617  0.4042 -0.9973
14894TIP3   OH266096   1.287   3.017  16.433  0.2895  1.3385  0.4267
14894TIP3    H166097   1.245   3.039  16.350  1.0058  0.0624 -0.2909
14894TIP3    H266098   1.361   3.077  16.440 -0.1733  1.9062  0.4829
14895TIP3   OH266099   3.170   6.072  14.624  0.2370 -0.5516  0.2810
14895TIP3    H166100   3.177   6.140  14.691  1.7036  0.8048 -1.1905
14895TIP3    H266101   3.093   6.097  14.572  0.1124 -0.6323  0.4292
14896TIP3   OH266102   1.201   2.114  10.819  1.2577 -0.2998 -0.0253
14896TIP3    H166103   1.218   2.155  10.734  0.3243  0.5727  0.1975
14896TIP3    H266104   1.109   2.086  10.815  1.5614 -1.3541  0.2474
14897TIP3   OH266105   5.882   2.946   5.630 -0.7704 -0.0039  0.5091
14897TIP3    H166106   5.941   2.888   5.679  0.1956 -0.0961 -0.7409
14897TIP3    H266107   5.811   2.964   5.691 -0.9089 -2.2023  1.0626
14898TIP3   OH266108   3.075   5.247   0.567  0.9250 -0.0774  0.0399
14898TIP3    H166109   3.119   5.166   0.592  1.6254  0.1965 -0.2928
14898TIP3    H266110   2.982   5.230   0.585  1.0775 -0.9097  0.0784
14899TIP3   OH266111   4.050   2.991  16.855 -0.2824  0.5669  0.0574
14899TIP3    H166112   4.040   2.950  16.769 -0.6739 -1.9482  1.2527
14899TIP3    H266113   4.144   3.002  16.865 -0.0849 -1.0888  0.1675
14900TIP3   OH266114   2.364   3.726  10.877  1.2402 -0.0770 -0.4898
14900TIP3    H166115   2.286   3.685  10.840  1.7643 -0.8094 -0.7936
14900TIP3    H266116   2.391   3.789  10.810  0.9855  0.0939 -0.4349
14901TIP3   OH266117   2.256   5.868   4.649 -0.0486  0.2648  0.2073
14901TIP3    H166118   2.271   5.805   4.579 -0.5467 -0.9265  1.1477
14901TIP3    H266119   2.184   5.830   4.700  0.3120  1.1038  1.3594
14902TIP3   OH266120   4.047   2.633  15.624  0.1151  0.1711 -1.0353
14902TIP3    H166121   4.126   2.664  15.581 -0.5344  0.0869 -2.2980
14902TIP3    H266122   3.994   2.595  15.554 -1.0122  0.1487 -0.1911
14903TIP3   OH266123   2.214   5.489  15.950 -0.0196  0.0301 -0.1149
14903TIP3    H166124   2.302   5.509  15.983 -0.0690 -1.6657  1.1051
14903TIP3    H266125   2.203   5.548  15.875  1.9100  0.7063  0.0943
14904TIP3   OH266126   4.798   1.921  15.691  0.2300  0.4468 -0.2759
14904TIP3    H166127   4.836   2.008  15.677 -0.5466  0.4163 -2.8972
14904TIP3    H266128   4.847   1.864  15.633 -0.2155 -0.6049  0.3679
14905TIP3   OH266129   2.673   0.517   2.602 -0.0200  0.7989  0.4584
14905TIP3    H166130   2.619   0.473   2.537  1.1961  0.9310 -0.6497
14905TIP3    H266131   2.725   0.580   2.553  1.5507  0.2839  1.4348
14906TIP3   OH266132   4.532   5.167   3.148 -0.0580 -0.0463  0.0886
14906TIP3    H166133   4.446   5.191   3.183 -1.1898 -2.6687 -0.7504
14906TIP3    H266134   4.580   5.131   3.223  0.3108  1.3968  0.5513
14907TIP3   OH266135   5.702   1.168  12.188  0.8078  0.1368  0.8431
14907TIP3    H166136   5.707   1.262  12.207  1.0597 -0.0394  1.7035
14907TIP3    H266137   5.794   1.140  12.188  0.6559 -0.3792  2.0389
14908TIP3   OH266138   0.647   5.565  16.544  0.0590 -0.3508  0.5348
14908TIP3    H166139   0.627   5.619  16.468  0.2706 -0.6147  0.2921
14908TIP3    H266140   0.562   5.540  16.578 -0.0393  0.0033  0.5542
14909TIP3   OH266141   5.716   4.407  12.816 -0.7185 -0.5492 -0.4650
14909TIP3    H166142   5.626   4.388  12.791 -0.7568 -0.1868 -0.5972
14909TIP3    H266143   5.768   4.343  12.767 -0.9230 -0.9384 -0.1800
14910TIP3   OH266144   0.816   0.075   2.596 -0.2399  0.0856 -0.1621
14910TIP3    H166145   0.831   0.105   2.506  0.2374 -1.3248 -0.5580
14910TIP3    H266146   0.768  -0.008   2.587 -0.8567  0.3082  0.9048
14911TIP3   OH266147   6.454   1.239   3.822  0.1302  0.2053  0.3349
14911TIP3    H166148   6.360   1.253   3.827  0.2793  1.2226  0.4047
14911TIP3    H266149   6.491   1.294   3.891  0.7517 -0.4334  0.5207
14912TIP3   OH266150   1.265   1.720  10.877 -1.0470 -0.1224  0.0104
14912TIP3    H166151   1.327   1.647  10.868 -1.3337 -0.3390 -0.2340
14912TIP3    H266152   1.185   1.689  10.834 -0.7022  0.9030 -1.3672
14913TIP3   OH266153   6.711   6.656  16.350 -0.2295 -0.0795 -0.6662
14913TIP3    H166154   6.724   6.561  16.346  2.0054  0.0625  1.9709
14913TIP3    H266155   6.785   6.693  16.302  0.0197  0.3973  0.0880
14914TIP3   OH266156   2.848   2.012   5.139  0.6137 -0.0031 -0.3195
14914TIP3    H166157   2.937   2.044   5.125  0.5777  0.1418 -0.2202
14914TIP3    H266158   2.855   1.917   5.129  1.1331 -0.1785  1.4208
14915TIP3   OH266159   3.942   4.705  12.632 -0.0632 -0.4339 -0.1891
14915TIP3    H166160   4.034   4.678  12.628 -0.2967 -1.1384 -0.9614
14915TIP3    H266161   3.936   4.758  12.711  0.7954 -1.2093  0.4068
14916TIP3   OH266162   5.891   5.612   1.487  0.4276 -0.0363 -0.3363
14916TIP3    H166163   5.840   5.685   1.523  0.7938 -0.6263  1.4192
14916TIP3    H266164   5.882   5.622   1.392 -3.1992 -0.2862 -0.1103
14917TIP3   OH266165   4.033   6.671   2.775  0.2347  0.1893 -0.5818
14917TIP3    H166166   4.020   6.707   2.863  3.1340  0.2431 -0.1083
14917TIP3    H266167   4.106   6.610   2.785  0.7029  0.3007 -2.9678
14918TIP3   OH266168   4.807   2.827   0.131 -0.0501 -0.5363  0.0178
14918TIP3    H166169   4.897   2.857   0.127  0.2751 -1.2249  1.7842
14918TIP3    H266170   4.761   2.895   0.180 -0.4315 -0.3655 -0.5614
14919TIP3   OH266171   3.531   4.965   4.398  0.8092  0.3027  0.2869
14919TIP3    H166172   3.520   4.966   4.493 -1.1056 -1.9489  0.1404
14919TIP3    H266173   3.461   5.022   4.366 -0.3236 -1.1598  0.1166
14920TIP3   OH266174   2.152   0.306  16.431  0.7622  0.0104 -0.2060
14920TIP3    H166175   2.066   0.326  16.393  1.0925 -0.4005 -1.1942
14920TIP3    H266176   2.196   0.254  16.364  0.9703 -1.6432  1.1866
14921TIP3   OH266177   4.160   5.331  11.816  0.1617 -0.4178 -0.4220
14921TIP3    H166178   4.146   5.401  11.753 -0.1977 -1.4106 -1.4680
14921TIP3    H266179   4.233   5.280  11.780 -0.3550 -1.2684 -0.2876
14922TIP3   OH266180   0.567   5.196   3.933 -0.4298 -0.2535 -0.1199
14922TIP3    H166181   0.642   5.207   3.874  0.0309  0.2546  0.5490
14922TIP3    H266182   0.511   5.272   3.915 -1.4316 -1.3096 -1.5405
14923TIP3   OH266183   6.097   3.856  15.636 -0.3222 -0.7674  0.0622
14923TIP3    H166184   6.030   3.816  15.691  0.3392 -2.4945 -0.3834
14923TIP3    H266185   6.049   3.919  15.582 -1.0883  0.4000  2.0441
14924TIP3   OH266186   4.805   0.689   5.911  0.0271 -0.2148 -0.0356
14924TIP3    H166187   4.897   0.680   5.935 -0.4350  0.3429  2.0529
14924TIP3    H266188   4.807   0.735   5.826  1.6600 -0.6144 -0.2361
14925TIP3   OH266189   4.331   5.428   0.705 -0.2179 -0.1780  0.3463
14925TIP3    H166190   4.337   5.334   0.689  1.3438  0.0949 -0.7776
14925TIP3    H266191   4.323   5.467   0.618 -0.0953  0.7723  0.7523
14926TIP3   OH266192   0.964   4.212   4.725  0.1886 -0.5272 -0.5383
14926TIP3    H166193   0.948   4.169   4.641  0.0922 -2.0724  0.2463
14926TIP3    H266194   1.010   4.146   4.777  0.3550  0.4531  0.5948
14927TIP3   OH266195   3.844   2.481   4.276  0.5657 -0.9280  0.0603
14927TIP3    H166196   3.892   2.506   4.198  1.3119  0.7865  1.0346
14927TIP3    H266197   3.883   2.398   4.303  1.2064 -0.8591 -0.6319
14928TIP3   OH266198   1.273   2.096   3.044 -0.0298  0.3370 -0.0421
14928TIP3    H166199   1.297   2.019   2.993 -1.2971  0.1826 -0.4261
14928TIP3    H266200   1.350   2.154   3.039  0.1272  0.0103 -1.5102
14929TIP3   OH266201   6.091   0.490   2.662  0.4077 -0.1114 -0.0661
14929TIP3    H166202   6.185   0.503   2.651  0.8819 -3.0157  0.1814
14929TIP3    H266203   6.075   0.402   2.627 -2.1166  0.1389  0.3872
14930TIP3   OH266204   0.687   0.318  13.704  0.4996  0.4704  0.1487
14930TIP3    H166205   0.688   0.232  13.661  0.4504  1.1495 -1.2320
14930TIP3    H266206   0.764   0.362  13.669  0.3847  1.0920  0.6744
14931TIP3   OH266207   3.330   3.333  16.987  0.0388  0.1330 -0.0543
14931TIP3    H166208   3.385   3.302  17.059 -2.0156  0.3330  1.6363
14931TIP3    H266209   3.275   3.258  16.965  0.1418  0.3104 -0.9306
14932TIP3   OH266210   3.303   2.361   4.214 -0.0626  0.0077 -0.7405
14932TIP3    H166211   3.394   2.361   4.185 -0.2085 -2.6904 -1.4120
14932TIP3    H266212   3.253   2.337   4.136 -0.8873 -2.8409  0.5785
14933TIP3   OH266213   2.485   5.398  11.508 -0.4162 -0.6474 -0.0780
14933TIP3    H166214   2.530   5.336  11.564  1.1539  0.2486 -0.3244
14933TIP3    H266215   2.413   5.348  11.469 -0.5364 -1.6874  1.4556
14934TIP3   OH266216   6.040   3.461   5.360 -0.1431  0.1668 -0.0998
14934TIP3    H166217   6.071   3.552   5.362  0.2226  0.0564 -0.7016
14934TIP3    H266218   6.120   3.409   5.371 -0.5534 -0.0564  2.0054
14935TIP3   OH266219   1.729   3.643   5.332 -0.5187 -0.9037 -0.4872
14935TIP3    H166220   1.666   3.664   5.263 -0.2352  0.7361 -0.2535
14935TIP3    H266221   1.813   3.671   5.297 -0.5095  0.9213  0.9180
14936TIP3   OH266222   3.143   1.232   6.792  0.7900  0.1024  0.0974
14936TIP3    H166223   3.137   1.320   6.755  1.2209  0.6815  1.3590
14936TIP3    H266224   3.053   1.207   6.812  0.7087  0.4261  0.1297
14937TIP3   OH266225   0.965   5.234   3.161 -0.4506 -0.0142 -0.0199
14937TIP3    H166226   0.903   5.234   3.234 -0.3570  0.1981  0.0617
14937TIP3    H266227   0.941   5.312   3.110 -1.4144 -0.9210 -0.9864
14938TIP3   OH266228   1.565   1.717   2.639  0.0492 -0.4860 -0.5178
14938TIP3    H166229   1.487   1.748   2.686  0.2187 -2.2208  0.9201
14938TIP3    H266230   1.530   1.678   2.559 -0.2977  1.6236 -1.4579
14939TIP3   OH266231   6.634   3.534   5.291  0.7872  0.2615  0.0123
14939TIP3    H166232   6.563   3.563   5.234  1.4766  3.0742  0.5049
14939TIP3    H266233   6.647   3.442   5.268 -1.3229  0.3746 -1.8309
14940TIP3   OH266234   3.075   5.205   3.333 -0.1687 -0.8192  0.6121
14940TIP3    H166235   3.022   5.133   3.300 -2.5520  0.3696  1.7490
14940TIP3    H266236   3.118   5.170   3.411 -0.4775 -1.3394  0.5459
14941TIP3   OH266237   5.156   0.458  14.476  0.3533 -0.2444  0.2491
14941TIP3    H166238   5.097   0.478  14.549  1.9679 -0.5066  1.6561
14941TIP3    H266239   5.243   0.459  14.515  1.2630 -0.1651 -1.7448
14942TIP3   OH266240   4.048   5.709  11.858 -0.0470 -0.0295  0.2700
14942TIP3    H166241   3.968   5.675  11.899  0.4136 -0.3089  0.9501
14942TIP3    H266242   4.077   5.779  11.917  0.5232 -0.3136  0.3335
14943TIP3   OH266243   2.458   3.141  17.024 -0.5432 -0.4234  0.0284
14943TIP3    H166244   2.523   3.117  17.089 -1.4217 -2.4551  0.1724
14943TIP3    H266245   2.414   3.218  17.061 -0.4006 -0.9869  1.3737
14944TIP3   OH266246   1.012   3.664  16.530  0.7109 -0.0299 -0.1275
14944TIP3    H166247   1.079   3.600  16.554  0.2695 -0.6541 -0.5315
14944TIP3    H266248   0.929   3.617  16.543  0.3028  1.0654  1.3722
14945TIP3   OH266249   6.723   5.296   1.199 -0.3305  0.0472  0.3766
14945TIP3    H166250   6.750   5.350   1.273 -0.7680 -1.1313  1.4151
14945TIP3    H266251   6.716   5.208   1.235 -1.1943 -0.4303 -0.9281
14946TIP3   OH266252   0.450   1.879  10.453  0.6441  0.4453 -0.4732
14946TIP3    H166253   0.419   1.885  10.543 -0.9920 -1.8506 -0.8419
14946TIP3    H266254   0.527   1.822  10.458 -1.2563 -2.2561 -0.8795
14947TIP3   OH266255   2.225   6.127  15.798  0.5091 -0.3047 -0.2852
14947TIP3    H166256   2.194   6.214  15.824 -0.2594 -0.6555 -0.0080
14947TIP3    H266257   2.246   6.137  15.705 -0.0723  0.0483 -0.3884
14948TIP3   OH266258   4.369   5.706   0.790  0.7428 -0.1351 -0.4822
14948TIP3    H166259   4.341   5.614   0.782  1.9833 -0.4646 -1.2285
14948TIP3    H266260   4.381   5.734   0.699  3.4123 -0.2036 -0.1923
14949TIP3   OH266261   3.284   5.618  11.419 -0.3534  0.2940 -0.2104
14949TIP3    H166262   3.263   5.546  11.478 -0.7888  1.3988  1.0088
14949TIP3    H266263   3.307   5.575  11.337 -0.6523 -1.2307  0.4752
14950TIP3   OH266264   3.041   4.855   1.699  0.1701  0.1190 -0.4348
14950TIP3    H166265   3.081   4.775   1.734  0.6016  0.8448  0.7512
14950TIP3    H266266   3.067   4.856   1.607  1.6848 -0.1736 -0.0223
14951TIP3   OH266267   5.305   2.325  16.703 -0.5320 -0.6719 -0.1661
14951TIP3    H166268   5.258   2.243  16.684 -1.6859  0.5920 -2.9673
14951TIP3    H266269   5.283   2.343  16.795  1.7509 -4.7442  1.3026
14952TIP3   OH266270   3.395   3.222  15.763 -0.7950 -0.2441 -0.4879
14952TIP3    H166271   3.398   3.170  15.843  1.3832  1.1835  0.4123
14952TIP3    H266272   3.332   3.292  15.782 -1.5815 -0.9074 -0.6562
14953TIP3   OH266273   6.120   3.359  12.634  0.1592 -0.4536 -0.9236
14953TIP3    H166274   6.060   3.423  12.673  2.2022  0.5031  0.7684
14953TIP3    H266275   6.096   3.276  12.675  0.0771 -0.0415 -0.1068
14954TIP3   OH266276   5.064   6.466  12.592 -0.0494 -0.4989  0.5388
14954TIP3    H166277   5.004   6.476  12.666  0.6640  0.1523  1.0340
14954TIP3    H266278   5.149   6.492  12.626  0.2688 -0.1025 -0.5379
14955TIP3   OH266279   0.971   1.321  14.672  0.2345  0.7131  0.5567
14955TIP3    H166280   0.895   1.301  14.725 -0.9138  0.2531 -1.2111
14955TIP3    H266281   1.030   1.246  14.684 -1.1403 -0.6101 -0.8175
14956TIP3   OH266282   4.382   0.041  15.258  0.1216  0.0359  0.9592
14956TIP3    H166283   4.405  -0.024  15.192 -0.0329 -1.5989  2.4892
14956TIP3    H266284   4.414   0.004  15.340 -1.4727  1.1307  2.0863
14957TIP3   OH266285   0.970   1.513   6.651  0.5441  0.0801 -0.8081
14957TIP3    H166286   1.044   1.571   6.631  0.9352  0.1773  0.8650
14957TIP3    H266287   1.011   1.430   6.673  0.1140 -0.0833 -0.6234
14958TIP3   OH266288   3.602   0.993   3.211 -0.1557 -0.1596  0.2308
14958TIP3    H166289   3.508   0.973   3.214 -0.2826  0.2383 -0.8405
14958TIP3    H266290   3.614   1.038   3.128  0.7556  1.0606  1.0180
14959TIP3   OH266291   3.619   3.197   3.125 -0.1265  0.3391 -0.0157
14959TIP3    H166292   3.671   3.267   3.088 -0.7083  1.0161  0.4198
14959TIP3    H266293   3.623   3.211   3.220  0.9635 -1.0878  0.1705
14960TIP3   OH266294   4.268   2.754  11.955 -0.2790  0.0329  0.0164
14960TIP3    H166295   4.354   2.796  11.951 -0.5432  0.7085  1.1164
14960TIP3    H266296   4.283   2.670  11.998 -0.3405  0.6578  1.2885
14961TIP3   OH266297   5.656   5.058  11.641 -0.0725 -0.0368 -0.2644
14961TIP3    H166298   5.722   5.045  11.573 -0.3994  1.9317 -1.0114
14961TIP3    H266299   5.605   5.134  11.610 -1.5588 -0.4310  1.1498
14962TIP3   OH266300   4.186   1.619  14.685 -0.7951 -0.2270 -0.0184
14962TIP3    H166301   4.177   1.531  14.721  0.4908 -0.0411  0.7963
14962TIP3    H266302   4.195   1.606  14.590  1.4648 -1.1484  0.2857
14963TIP3   OH266303   6.182   5.860  13.529 -0.4751 -0.8323  0.1016
14963TIP3    H166304   6.206   5.877  13.438  1.4848 -0.4938  0.6582
14963TIP3    H266305   6.132   5.937  13.556  0.7229  0.0184 -0.0745
14964TIP3   OH266306   2.042   3.605   1.769  0.7010  0.5070  0.7735
14964TIP3    H166307   2.046   3.659   1.690  0.2872 -1.1478 -0.4229
14964TIP3    H266308   1.957   3.562   1.764  0.3187  1.0393  2.5832
14965TIP3   OH266309   4.184   5.506  16.495  0.0736  0.1483  0.2935
14965TIP3    H166310   4.124   5.580  16.488 -0.9336 -0.8430 -1.9215
14965TIP3    H266311   4.217   5.493  16.406  1.3825 -1.1334  0.9493
14966TIP3   OH266312   2.860   4.291   0.949  0.0672  0.3051  0.5104
14966TIP3    H166313   2.767   4.289   0.974  0.1006  0.6426  0.6684
14966TIP3    H266314   2.900   4.354   1.009  0.4754 -0.1242  0.6855
14967TIP3   OH266315   2.445   6.081   1.941 -0.0911  0.4633  0.2172
14967TIP3    H166316   2.349   6.084   1.937 -0.1320 -0.7956 -0.0822
14967TIP3    H266317   2.473   6.172   1.932 -1.2771  0.8874  0.7609
14968TIP3   OH266318   0.930   4.865   2.320  0.2238 -0.0407  0.3966
14968TIP3    H166319   0.993   4.897   2.256  1.3625  0.7531  1.8886
14968TIP3    H266320   0.983   4.838   2.395 -1.0644 -1.2399  0.8885
14969TIP3   OH266321   0.817   0.291   3.997  0.1335  0.5284 -0.5198
14969TIP3    H166322   0.883   0.252   3.940  1.5162  1.1598  0.6359
14969TIP3    H266323   0.761   0.341   3.937  0.4949 -0.2829 -1.5467
14970TIP3   OH266324   1.709   0.017   0.308 -0.0096  0.1716  0.1406
14970TIP3    H166325   1.776  -0.027   0.360 -0.4646  0.2266  0.7810
14970TIP3    H266326   1.740   0.108   0.301  1.1386 -0.3192 -1.5401
14971TIP3   OH266327   5.805   6.308   3.613  1.1770 -0.2745  0.5473
14971TIP3    H166328   5.710   6.307   3.626  0.7131  0.4172 -2.3092
14971TIP3    H266329   5.838   6.361   3.685 -1.3215  4.8613 -1.7746
14972TIP3   OH266330   0.420   2.819   1.227  0.1532  0.2826  0.4987
14972TIP3    H166331   0.343   2.853   1.273  0.5510  0.8483  0.7476
14972TIP3    H266332   0.491   2.879   1.250  1.0509 -1.1764  1.5843
14973TIP3   OH266333   3.049   1.640  14.701 -0.3578  0.6319 -0.5142
14973TIP3    H166334   3.101   1.720  14.691  0.7212 -0.3322 -3.2046
14973TIP3    H266335   2.966   1.660  14.659 -0.8247  0.9679  0.5542
14974TIP3   OH266336   1.568   4.056   4.288 -0.3556 -0.1128 -0.2700
14974TIP3    H166337   1.625   4.127   4.258  0.6307 -0.5093  0.6391
14974TIP3    H266338   1.493   4.101   4.326  0.7440  0.4724  1.2451
14975TIP3   OH266339   3.199   2.081   3.325 -0.2252  0.6068 -0.1942
14975TIP3    H166340   3.181   2.002   3.274 -0.2612  0.4826  0.0110
14975TIP3    H266341   3.163   2.152   3.271  0.5720  0.5743 -0.7741
14976TIP3   OH266342   0.159   4.834   0.182 -0.4689 -0.1592  0.5319
14976TIP3    H166343   0.187   4.906   0.125  0.7634 -0.3458  0.9072
14976TIP3    H266344   0.191   4.755   0.140  0.5150 -0.2952  1.5184
14977TIP3   OH266345   4.991   4.211   4.513 -0.3160  0.0449  0.2484
14977TIP3    H166346   5.053   4.254   4.454 -1.2391  0.1422 -0.6608
14977TIP3    H266347   5.024   4.122   4.521 -0.1170  0.0633 -0.3209
14978TIP3   OH266348   6.480   1.554   1.206  0.3467 -0.4681  0.4647
14978TIP3    H166349   6.544   1.515   1.265 -0.9389 -0.4297  1.9330
14978TIP3    H266350   6.399   1.557   1.257 -1.0165 -1.1470 -1.5715
14979TIP3   OH266351   5.557   6.755  11.735 -0.2250  0.2342  0.0727
14979TIP3    H166352   5.582   6.840  11.770  2.0162  0.2805 -1.4855
14979TIP3    H266353   5.498   6.775  11.663 -0.8883  0.3864  0.6553
14980TIP3   OH266354   2.565   5.872   2.337  0.0297  0.2329  0.3772
14980TIP3    H166355   2.482   5.920   2.342 -1.2571 -1.7452 -1.3173
14980TIP3    H266356   2.627   5.934   2.299 -0.6951  1.6660  1.4849
14981TIP3   OH266357   0.927   5.537  15.313  0.4874 -0.0120 -0.6402
14981TIP3    H166358   0.943   5.456  15.362  1.0969  0.3538 -0.2226
14981TIP3    H266359   0.873   5.590  15.372  1.1585  0.3987 -0.3871
14982TIP3   OH266360   5.105   0.716  11.102 -0.0548  0.5069  1.1172
14982TIP3    H166361   5.132   0.759  11.184  2.5009  0.8362  0.1458
14982TIP3    H266362   5.173   0.652  11.085 -1.4651 -0.7602  0.1007
14983TIP3   OH266363   3.789   2.192   0.273 -0.0215  1.0161 -0.5756
14983TIP3    H166364   3.702   2.231   0.260  0.3460  2.2003  0.3493
14983TIP3    H266365   3.843   2.231   0.204  0.0884  1.3323 -0.3150
14984TIP3   OH266366   6.358   5.266   4.159 -0.3272  0.7262  0.3447
14984TIP3    H166367   6.403   5.200   4.107 -1.4547  1.3261 -1.4429
14984TIP3    H266368   6.400   5.262   4.245  0.6107 -1.2677 -0.1799
14985TIP3   OH266369   1.677   0.776   4.656 -0.4235  0.1397  0.1557
14985TIP3    H166370   1.733   0.847   4.686 -0.3990 -0.2606  1.0817
14985TIP3    H266371   1.645   0.805   4.570  0.5021  0.7489  0.0097
14986TIP3   OH266372   5.706   0.210   2.934  0.1235 -0.4436 -0.0477
14986TIP3    H166373   5.635   0.275   2.939 -0.1883 -0.8507  1.0898
14986TIP3    H266374   5.783   0.261   2.911 -0.2189  0.2627  0.3456
14987TIP3   OH266375   0.396   6.325   0.412  0.3864 -0.0065 -0.0104
14987TIP3    H166376   0.481   6.363   0.437  0.0162  1.2425 -0.5908
14987TIP3    H266377   0.333   6.366   0.471  0.1722 -0.9266  0.4109
14988TIP3   OH266378   4.651   3.501  12.218  0.5303 -0.8673  0.2553
14988TIP3    H166379   4.591   3.524  12.148 -0.6010 -2.1237  0.8022
14988TIP3    H266380   4.726   3.462  12.173  0.7404  0.2340 -0.3861
14989TIP3   OH266381   1.762   6.473   2.269 -0.0157  0.2384  0.4191
14989TIP3    H166382   1.696   6.500   2.333 -1.9266  0.8063 -1.7214
14989TIP3    H266383   1.810   6.553   2.250 -0.9117  0.5526 -0.5189
14990TIP3   OH266384   1.084   5.147  11.448  0.0743  0.0741  0.0468
14990TIP3    H166385   1.068   5.241  11.449 -1.0535 -0.0943 -1.4425
14990TIP3    H266386   1.124   5.129  11.534  0.1711  1.8706  0.3961
14991TIP3   OH266387   2.801   2.449   2.564 -0.2068 -0.0444 -0.9483
14991TIP3    H166388   2.813   2.480   2.474 -0.0741  0.4415 -0.7667
14991TIP3    H266389   2.889   2.449   2.602 -0.4515  1.2720 -0.3384
14992TIP3   OH266390   0.218   4.306   3.553  0.0630  0.7789  0.0446
14992TIP3    H166391   0.185   4.291   3.464 -0.8393 -3.2021  0.9639
14992TIP3    H266392   0.141   4.331   3.604  0.1947  0.9074  0.1816
14993TIP3   OH266393   3.401   0.733   4.921  0.7340  0.4975  0.0330
14993TIP3    H166394   3.470   0.667   4.923 -0.0338 -0.3892 -1.6049
14993TIP3    H266395   3.426   0.791   4.849  0.5615  1.0823  0.4366
14994TIP3   OH266396   2.285   4.604  11.019 -0.1283  0.0858 -0.2387
14994TIP3    H166397   2.374   4.568  11.013 -0.3781 -0.8283  1.2145
14994TIP3    H266398   2.298   4.695  11.043  0.4347  0.0795 -0.4940
14995TIP3   OH266399   2.605   0.604   3.816  0.2260 -0.3554  0.1879
14995TIP3    H166400   2.670   0.572   3.878 -0.6610 -1.4147  0.5908
14995TIP3    H266401   2.562   0.677   3.861  0.6115 -0.1542  0.2270
14996TIP3   OH266402   2.069   0.465  15.258 -0.1005  0.0223  0.1377
14996TIP3    H166403   2.062   0.377  15.223 -0.1710  0.3548 -0.7039
14996TIP3    H266404   2.163   0.484  15.256 -0.0681 -0.1083  0.4982
14997TIP3   OH266405   4.554   5.107   1.859 -0.5638 -0.3087  0.4553
14997TIP3    H166406   4.464   5.106   1.892 -0.7545 -2.8606 -0.0631
14997TIP3    H266407   4.554   5.044   1.788  1.3182  0.7208 -0.4889
14998TIP3   OH266408   3.735   0.211   0.625  0.6550  0.2001 -0.2323
14998TIP3    H166409   3.814   0.265   0.630  1.2875 -0.6295 -1.1604
14998TIP3    H266410   3.741   0.153   0.701  1.6336 -0.7799 -1.0402
14999TIP3   OH266411   5.024   1.537  15.509 -0.9197  0.1222 -0.2790
14999TIP3    H166412   5.055   1.461  15.558  0.0456  1.6958  1.6269
14999TIP3    H266413   5.061   1.526  15.421 -1.2670 -1.8948 -0.1759
15000TIP3   OH266414   2.806   4.588  13.741 -0.4102  0.5067 -0.3342
15000TIP3    H166415   2.758   4.666  13.769 -0.7236  0.4232 -0.6442
15000TIP3    H266416   2.771   4.567  13.655 -1.0140 -0.5598  0.1674
15001TIP3   OH266417   5.650   6.634  13.186  0.5481 -0.0867 -0.6058
15001TIP3    H166418   5.611   6.561  13.136 -1.3264 -0.5994  1.5284
15001TIP3    H266419   5.576   6.691  13.206  1.6463  1.2334 -0.2582
15002TIP3   OH266420   2.784   5.660  16.253  0.3589  0.0602 -0.5203
15002TIP3    H166421   2.835   5.580  16.260  1.2871  0.4200 -2.7695
15002TIP3    H266422   2.848   5.728  16.232 -0.5128  1.2639  0.6290
15003TIP3   OH266423   3.645   0.575   2.167  0.3853  0.1106 -0.0313
15003TIP3    H166424   3.561   0.560   2.212 -0.3610  1.1380 -1.0638
15003TIP3    H266425   3.711   0.564   2.236 -0.7257  1.3149  1.2566
15004TIP3   OH266426   4.485   5.716  16.600 -0.0530  0.5553 -0.3131
15004TIP3    H166427   4.527   5.658  16.664  0.6483 -0.1076 -1.3559
15004TIP3    H266428   4.554   5.735  16.536 -1.0936  0.1467 -1.5885
15005TIP3   OH266429   5.941   1.730  12.288 -0.3824 -0.0198 -0.5383
15005TIP3    H166430   5.859   1.779  12.282 -0.0355  0.5929 -0.3564
15005TIP3    H266431   5.945   1.700  12.379 -2.2930 -3.4068 -1.4640
15006TIP3   OH266432   1.263   4.981  11.304  0.0681  0.3081 -0.2108
15006TIP3    H166433   1.229   5.060  11.345  0.0836 -0.6312  1.6415
15006TIP3    H266434   1.193   4.952  11.245  0.8279  2.7625 -2.4370
15007TIP3   OH266435   6.401   3.121  10.543 -0.6135  0.4075 -0.1988
15007TIP3    H166436   6.335   3.107  10.610 -0.8162  0.6534 -0.3472
15007TIP3    H266437   6.361   3.089  10.462 -0.0661 -0.6467 -0.0683
15008TIP3   OH266438   3.574   0.719   6.150  0.2302 -0.1130 -0.5059
15008TIP3    H166439   3.522   0.787   6.193 -0.4966 -0.3685 -0.9643
15008TIP3    H266440   3.648   0.705   6.209 -0.2420  0.2217  0.1817
15009TIP3   OH266441   6.566   5.939  10.294  0.0496  0.2019  0.0379
15009TIP3    H166442   6.566   6.003  10.365 -0.0876 -1.9803  2.0495
15009TIP3    H266443   6.497   5.968  10.235  1.2791  2.9857 -0.1033
15010TIP3   OH266444   4.701   5.397  13.962 -0.6327 -0.4323  0.3538
15010TIP3    H166445   4.700   5.401  13.867  0.7332  0.2167  0.3531
15010TIP3    H266446   4.713   5.488  13.990 -2.3586 -0.4307  1.1908
15011TIP3   OH266447   1.670   6.558   5.516  0.0741  0.1393  0.7221
15011TIP3    H166448   1.723   6.562   5.436  0.6756 -1.4953  1.0128
15011TIP3    H266449   1.585   6.594   5.491  0.0426 -0.9766 -0.8579
15012TIP3   OH266450   0.127   1.992  13.016  0.4022 -0.3235 -0.8721
15012TIP3    H166451   0.164   1.986  12.929 -1.3158  2.2771 -1.8520
15012TIP3    H266452   0.043   2.037  13.004 -0.0101 -0.1668  2.0591
15013TIP3   OH266453   0.975   3.778  14.460  0.1470  0.2252 -0.2803
15013TIP3    H166454   0.891   3.740  14.436 -1.1004  1.9938  1.1002
15013TIP3    H266455   0.959   3.873  14.461  1.9600  0.5473  0.6862
15014TIP3   OH266456   1.465   3.053   3.134  0.5020 -0.4024  0.1088
15014TIP3    H166457   1.540   3.112   3.122  1.2853 -1.5801 -0.8400
15014TIP3    H266458   1.484   3.008   3.217 -1.4629  2.6295  2.3307
15015TIP3   OH266459   3.261   3.808   1.624  0.2968  0.4114  0.1196
15015TIP3    H166460   3.297   3.730   1.666 -4.6930 -2.0298  0.2145
15015TIP3    H266461   3.219   3.857   1.695 -1.2287  0.3771 -0.7289
15016TIP3   OH266462   1.145   2.663   3.226  0.0842  0.4112 -0.4276
15016TIP3    H166463   1.120   2.753   3.248 -1.1553 -0.4294  1.7903
15016TIP3    H266464   1.228   2.650   3.270  0.8002  0.7903 -1.6368
15017TIP3   OH266465   5.604   3.237  13.192  0.4864  0.2729  0.3376
15017TIP3    H166466   5.693   3.203  13.185  0.1606 -0.8719  1.5486
15017TIP3    H266467   5.560   3.177  13.253 -0.7783  1.5189  0.6795
15018TIP3   OH266468   3.334   3.907   5.475  0.0224 -0.2058  0.2631
15018TIP3    H166469   3.396   3.970   5.439  1.0256 -0.1989  1.9050
15018TIP3    H266470   3.293   3.954   5.548 -0.6041 -0.8141  0.3044
15019TIP3   OH266471   1.096   3.519   4.638  0.2908 -0.0397 -0.5443
15019TIP3    H166472   1.169   3.505   4.579 -0.0875 -0.5539 -0.8957
15019TIP3    H266473   1.019   3.522   4.581  0.1546  1.7122 -0.3155
15020TIP3   OH266474   1.585   3.483   0.313 -0.0982  0.3521  0.6329
15020TIP3    H166475   1.679   3.501   0.301 -0.3876  0.8137 -1.2245
15020TIP3    H266476   1.545   3.570   0.316 -0.5938  0.1450  0.1627
15021TIP3   OH266477   4.961   2.007  11.874  0.2647 -0.2178  0.6672
15021TIP3    H166478   4.952   2.102  11.869  1.3169 -0.1827 -1.7351
15021TIP3    H266479   4.882   1.977  11.918 -1.5017  1.5509 -1.1990
15022TIP3   OH266480   5.583   4.464  15.237 -0.2582 -0.1345 -0.1384
15022TIP3    H166481   5.580   4.410  15.159 -0.4250 -1.8589  1.0322
15022TIP3    H266482   5.513   4.429  15.293  0.0773  0.8570  0.9183
15023TIP3   OH266483   2.977   6.209  13.172  0.3535  0.3582  0.0600
15023TIP3    H166484   2.896   6.205  13.222  1.0175  0.7787  1.1804
15023TIP3    H266485   2.951   6.189  13.082 -0.9662  0.3651  0.4374
15024TIP3   OH266486   2.333   1.499   0.503  0.6055  0.0562  0.3222
15024TIP3    H166487   2.313   1.569   0.565  0.5834 -0.8823  1.3761
15024TIP3    H266488   2.268   1.431   0.521  2.1048 -1.2587  0.9419
15025TIP3   OH266489   4.608   4.038   4.781 -0.2596 -0.2975 -0.2267
15025TIP3    H166490   4.560   4.080   4.852  0.2934  1.1650 -0.6863
15025TIP3    H266491   4.679   3.990   4.824 -0.0446  0.4192  0.2237
15026TIP3   OH266492   4.796   3.510   5.016 -0.7962 -0.4046  0.6262
15026TIP3    H166493   4.794   3.467   4.930 -3.3737  0.1807  0.3627
15026TIP3    H266494   4.735   3.583   5.008  2.1088  2.2249  1.6750
15027TIP3   OH266495   1.823   0.133  16.669  0.5565 -0.9307 -0.5933
15027TIP3    H166496   1.844   0.138  16.762 -1.2401 -0.1570 -0.2081
15027TIP3    H266497   1.792   0.221  16.646 -0.8129 -1.6098 -1.4420
15028TIP3   OH266498   6.011   6.300  15.384  0.4556 -0.0409  0.0588
15028TIP3    H166499   6.030   6.244  15.459 -0.2353 -1.1048 -0.5571
15028TIP3    H266500   6.050   6.255  15.309  1.6134  1.2825 -0.1588
15029TIP3   OH266501   6.173   6.232  16.363 -0.1975 -0.1155  0.3040
15029TIP3    H166502   6.123   6.310  16.337 -0.1733  0.3287  1.5261
15029TIP3    H266503   6.175   6.236  16.459  0.7351 -1.0459  0.3348
15030TIP3   OH266504   3.286   2.581  11.681 -0.3120 -0.1487  0.4805
15030TIP3    H166505   3.244   2.567  11.596  1.3936 -1.1561 -0.2096
15030TIP3    H266506   3.220   2.554  11.745 -1.3475 -0.0589 -0.5398
15031TIP3   OH266507   1.990   1.012  13.902 -0.1519 -0.0873  0.1400
15031TIP3    H166508   2.003   0.996  13.808 -0.5790  1.9770 -0.3128
15031TIP3    H266509   1.895   1.008  13.914 -0.2841  2.0473 -0.0197
15032TIP3   OH266510   4.495   0.988   1.987  0.9285  0.5692  0.3020
15032TIP3    H166511   4.483   1.029   2.073 -0.1108  1.1955 -0.1273
15032TIP3    H266512   4.422   0.926   1.980  1.9109 -0.6404  0.5208
15033TIP3   OH266513   5.454   4.833  12.620 -0.3531 -0.7356  0.1133
15033TIP3    H166514   5.547   4.807  12.613 -0.2858 -0.7021  0.8545
15033TIP3    H266515   5.442   4.853  12.713 -0.2772  2.4261 -0.4924
15034TIP3   OH266516   2.861   6.028  11.512 -0.6317 -0.5870  0.6967
15034TIP3    H166517   2.894   5.987  11.432  0.9479  0.2811  0.8862
15034TIP3    H266518   2.925   6.004  11.579 -2.4126 -2.0722  1.9226
15035TIP3   OH266519   5.505   0.926   3.785 -0.3782  0.2438  0.3624
15035TIP3    H166520   5.429   0.869   3.797 -1.4224  1.5725  0.2117
15035TIP3    H266521   5.501   0.986   3.860 -0.4222  1.3768 -0.5478
15036TIP3   OH266522   0.097   5.130  11.641 -0.1774  0.8395 -0.0651
15036TIP3    H166523   0.165   5.073  11.677 -0.8466  0.4894  0.6624
15036TIP3    H266524   0.136   5.167  11.562  0.2789 -0.5918 -0.5272
15037TIP3   OH266525   1.574   1.221   1.209 -0.1648  0.2572 -0.1990
15037TIP3    H166526   1.668   1.210   1.221 -0.1235 -0.1210 -0.8513
15037TIP3    H266527   1.566   1.260   1.122 -0.5424  1.4282  0.3454
15038TIP3   OH266528   3.700   3.361   2.045 -0.0139 -0.9559  0.3443
15038TIP3    H166529   3.772   3.303   2.021  1.6389  0.5033  1.6642
15038TIP3    H266530   3.694   3.355   2.140  0.4326  1.3038  0.5476
15039TIP3   OH266531   0.875   2.840   3.761 -0.2873 -0.4830 -0.0697
15039TIP3    H166532   0.811   2.776   3.792 -1.9563  0.5950 -1.2681
15039TIP3    H266533   0.899   2.810   3.673 -0.9973  0.4711 -0.5970
15040TIP3   OH266534   4.958   1.498   4.734 -0.6701  0.2864 -0.1200
15040TIP3    H166535   4.968   1.489   4.829 -1.1921 -0.7016 -0.1552
15040TIP3    H266536   4.863   1.500   4.720 -0.6696 -2.7916 -0.9006
15041TIP3   OH266537   5.333   5.399   5.804  0.4542  0.0540 -0.2407
15041TIP3    H166538   5.250   5.379   5.848 -0.4749  0.1699 -1.9114
15041TIP3    H266539   5.359   5.483   5.841 -0.3900  0.2316 -0.0177
15042TIP3   OH266540   3.286   2.574  14.386  0.6383 -0.0601  0.0707
15042TIP3    H166541   3.292   2.662  14.350  1.9157 -0.5693 -1.0129
15042TIP3    H266542   3.221   2.530  14.331 -0.4201  0.3735  0.9724
15043TIP3   OH266543   0.594   1.927  15.266  0.2490  0.5324 -0.3019
15043TIP3    H166544   0.503   1.941  15.292 -0.8216 -2.3613 -2.1743
15043TIP3    H266545   0.604   1.832  15.263  2.9151  0.7957 -1.5604
15044TIP3   OH266546   2.872   2.272  11.678 -0.6431  0.4042 -0.2316
15044TIP3    H166547   2.827   2.267  11.593 -0.6290 -0.3953 -0.1955
15044TIP3    H266548   2.835   2.349  11.720 -1.1886  0.3814 -0.6563
15045TIP3   OH266549   5.390   4.078  16.460 -0.1004  0.2060  0.3488
15045TIP3    H166550   5.398   4.153  16.402  0.7831 -0.2514 -0.1293
15045TIP3    H266551   5.336   4.109  16.533 -2.5172  0.3475 -1.4656
15046TIP3   OH266552   5.730   4.142   2.694 -0.1801 -0.5824 -0.2517
15046TIP3    H166553   5.798   4.083   2.725 -0.5320 -1.4642 -1.1041
15046TIP3    H266554   5.648   4.102   2.723 -0.4201 -0.4873 -0.7845
15047TIP3   OH266555   1.610   3.595   2.734  0.3985 -0.3369 -0.1553
15047TIP3    H166556   1.544   3.627   2.795  0.8787 -1.5805  1.0414
15047TIP3    H266557   1.614   3.501   2.749  2.6557 -0.2622  0.0265
15048TIP3   OH266558   2.750   4.330  15.499  0.1968 -0.3401  0.4646
15048TIP3    H166559   2.691   4.284  15.557 -1.4101  0.1267 -0.7637
15048TIP3    H266560   2.758   4.273  15.422 -0.5385  0.6655 -0.3726
15049TIP3   OH266561   1.403   6.130  11.603  0.2614 -0.7787  0.2649
15049TIP3    H166562   1.339   6.141  11.532  3.0531  1.7225 -2.0120
15049TIP3    H266563   1.425   6.037  11.601  0.6527 -0.6767 -2.5455
15050TIP3   OH266564   4.758   0.470  10.336  0.1713  0.1345  0.1246
15050TIP3    H166565   4.704   0.533  10.384 -1.4987 -0.4501 -0.9395
15050TIP3    H266566   4.806   0.424  10.404 -1.9275 -0.4761  1.2476
15051TIP3   OH266567   5.487   4.335   3.501 -0.0791  0.6626 -0.5276
15051TIP3    H166568   5.402   4.368   3.473  0.6927  2.4064 -0.8891
15051TIP3    H266569   5.532   4.412   3.537  1.1461 -0.3470  0.1472
15052TIP3   OH266570   3.909   3.326   2.458 -0.3447 -0.0741 -0.1855
15052TIP3    H166571   3.971   3.253   2.458  0.7102  0.7669 -2.1013
15052TIP3    H266572   3.955   3.396   2.506 -0.5736 -0.0449 -0.0069
15053TIP3   OH266573   0.176   4.117  13.218 -0.1841 -1.0119  0.0303
15053TIP3    H166574   0.210   4.028  13.213  2.1624 -0.1695  0.3615
15053TIP3    H266575   0.137   4.133  13.132  1.9130 -1.4055 -1.0281
15054TIP3   OH266576   0.994   2.463  13.107 -0.5287 -0.1896  0.2497
15054TIP3    H166577   1.057   2.480  13.038  0.3193 -0.4478  0.9561
15054TIP3    H266578   1.037   2.491  13.188 -1.2747 -0.4522  0.7526
15055TIP3   OH266579   5.467   3.730   2.606  0.1395  0.3664 -0.0674
15055TIP3    H166580   5.510   3.696   2.684  0.7761  1.5441  0.1029
15055TIP3    H266581   5.532   3.720   2.536 -0.9211 -1.9953 -0.7809
15056TIP3   OH266582   1.346   3.824  16.312 -0.3566 -0.4422 -0.1840
15056TIP3    H166583   1.441   3.826  16.297  0.1319 -0.4414  2.7265
15056TIP3    H266584   1.320   3.916  16.315  0.0309 -0.3738  1.7111
15057TIP3   OH266585   3.245   1.043   2.452  0.2850 -0.0376  0.2548
15057TIP3    H166586   3.246   0.961   2.500 -0.3107 -0.0016  0.3300
15057TIP3    H266587   3.257   1.111   2.518  1.1009 -0.0774  0.1544
15058TIP3   OH266588   0.181   4.007   1.721  0.4731  0.4762 -0.1075
15058TIP3    H166589   0.264   3.988   1.676  0.9070 -0.5476  1.0824
15058TIP3    H266590   0.167   3.930   1.777 -1.2158  0.7100 -0.2010
15059TIP3   OH266591   5.357   1.369  11.340 -0.0593  0.6515 -0.3767
15059TIP3    H166592   5.353   1.385  11.246 -0.5050  2.3935 -0.0833
15059TIP3    H266593   5.448   1.388  11.364 -0.6385  3.0373  0.0060
15060TIP3   OH266594   2.299   5.308   3.503  0.3061 -0.1147  0.0332
15060TIP3    H166595   2.257   5.229   3.538 -0.4164  0.2753  0.0655
15060TIP3    H266596   2.280   5.376   3.568  0.2881  0.2571 -0.3616
15061TIP3   OH266597   5.050   6.337  15.110 -0.0205  0.6343 -0.1219
15061TIP3    H166598   4.987   6.381  15.168 -0.4835 -2.0246  1.4812
15061TIP3    H266599   4.998   6.314  15.032 -0.7995 -0.5251  0.7091
15062TIP3   OH266600   5.169   0.128   5.230 -0.4264 -0.5768 -0.2295
15062TIP3    H166601   5.110   0.118   5.305  1.1701 -0.1013  1.1011
15062TIP3    H266602   5.160   0.221   5.206 -0.9631 -0.7368 -0.6507
15063TIP3   OH266603   3.208   1.123  14.082 -0.2642 -0.4452  0.5630
15063TIP3    H166604   3.204   1.045  14.138  2.7230 -1.2569 -0.2421
15063TIP3    H266605   3.240   1.192  14.139 -0.8929 -0.3032  0.7551
15064TIP3   OH266606   5.833   0.608   4.784 -0.5157  0.0110  0.3844
15064TIP3    H166607   5.850   0.532   4.840 -0.3265  0.7138  1.3060
15064TIP3    H266608   5.910   0.664   4.796 -0.1596 -0.1430 -1.1290
15065TIP3   OH266609   1.758   0.977   5.051  0.4423 -0.3021 -0.1275
15065TIP3    H166610   1.709   1.018   5.122 -1.5839 -1.1914 -0.9595
15065TIP3    H266611   1.691   0.932   4.999  2.1362 -1.4089 -1.4094
15066TIP3   OH266612   3.140   4.985  15.380  0.2562  0.0471  0.1374
15066TIP3    H166613   3.079   5.034  15.434  0.4651  0.5053 -0.0429
15066TIP3    H266614   3.085   4.925  15.330  0.0981 -0.7167  1.1978
15067TIP3   OH266615   0.752   1.402  11.167 -0.6990  0.5880 -0.1803
15067TIP3    H166616   0.770   1.387  11.075 -0.7328  2.2661 -0.4768
15067TIP3    H266617   0.804   1.479  11.190 -0.2514 -0.1546  1.3468
15068TIP3   OH266618   6.115   0.365   3.109  0.2086 -0.1210 -0.4962
15068TIP3    H166619   6.080   0.277   3.090 -1.7807  0.3416  0.8803
15068TIP3    H266620   6.137   0.362   3.201  0.6889  0.6422 -0.5860
15069TIP3   OH266621   5.797   1.341  11.972  0.3610 -0.5974  0.2344
15069TIP3    H166622   5.859   1.386  12.030  0.0263  0.3375 -0.1185
15069TIP3    H266623   5.720   1.398  11.970  0.4849 -0.4648 -1.3642
15070TIP3   OH266624   4.743   2.768  16.729 -0.9250 -0.5367 -0.5943
15070TIP3    H166625   4.682   2.756  16.801 -0.4295  2.2011  0.3487
15070TIP3    H266626   4.828   2.743  16.765 -1.1055 -2.0569 -1.1833
15071TIP3   OH266627   4.294   5.150   0.781 -0.3824 -0.3355 -0.3851
15071TIP3    H166628   4.202   5.163   0.760 -0.1303  1.1990 -0.6190
15071TIP3    H266629   4.339   5.157   0.696  0.2445  2.0065  0.1039
15072TIP3   OH266630   1.965   6.297  13.360  0.3385  0.0321 -0.0774
15072TIP3    H166631   2.026   6.361  13.397 -0.7194  0.4804  0.9361
15072TIP3    H266632   1.929   6.340  13.282 -0.0162  0.4823  0.3354
15073TIP3   OH266633   3.227   3.904  11.184  0.2187  0.2940  0.1964
15073TIP3    H166634   3.259   3.822  11.145  1.2171 -0.0419  1.6473
15073TIP3    H266635   3.226   3.966  11.111 -0.9280 -1.1031 -1.0104
15074TIP3   OH266636   6.118   0.199   4.093 -0.3088 -0.2877  0.6862
15074TIP3    H166637   6.112   0.288   4.058  1.6150 -0.1828  0.6116
15074TIP3    H266638   6.148   0.146   4.020 -1.1625 -0.9654  0.8143
15075TIP3   OH266639   2.509   0.596   4.766  0.5521  1.0119  0.1930
15075TIP3    H166640   2.420   0.560   4.763  0.0687  2.2739 -1.2421
15075TIP3    H266641   2.565   0.524   4.736  0.0292  0.1867  1.1952
15076TIP3   OH266642   3.359   3.857  12.657 -0.0695 -0.1448  0.4318
15076TIP3    H166643   3.411   3.778  12.641  0.1241 -0.3155  1.7756
15076TIP3    H266644   3.387   3.886  12.744 -1.1768  0.5860  0.5558
15077TIP3   OH266645   0.846   2.695  11.819  0.0569 -0.1728  0.0421
15077TIP3    H166646   0.774   2.710  11.880 -1.4884 -0.6723 -1.6125
15077TIP3    H266647   0.836   2.764  11.753  0.5881 -0.7535 -0.6517
15078TIP3   OH266648   4.274   2.263   1.406 -0.4795 -0.5968 -0.2729
15078TIP3    H166649   4.277   2.193   1.340  0.3623  0.6991 -1.6208
15078TIP3    H266650   4.195   2.312   1.386 -0.5183 -0.5332  0.0301
15079TIP3   OH266651   4.822   4.505  13.644  0.2174  0.2842  0.1029
15079TIP3    H166652   4.884   4.496  13.572  0.8663  1.0062  0.5592
15079TIP3    H266653   4.821   4.599  13.663 -1.7317  0.4002 -0.5105
15080TIP3   OH266654   2.388   3.356   1.330  0.2502  0.6063 -0.2755
15080TIP3    H166655   2.305   3.315   1.302 -0.5651  2.1624 -0.2000
15080TIP3    H266656   2.400   3.326   1.420 -0.4542  0.6987 -0.1438
15081TIP3   OH266657   5.612   3.446   0.596  0.2168 -0.6821  0.8964
15081TIP3    H166658   5.646   3.502   0.665  0.7517  0.3732 -0.2022
15081TIP3    H266659   5.690   3.406   0.557 -0.3319 -5.7743  4.5672
15082TIP3   OH266660   3.529   4.810  17.117 -0.3233 -0.4601 -0.1533
15082TIP3    H166661   3.497   4.896  17.090  1.0368 -0.2330 -1.0691
15082TIP3    H266662   3.609   4.829  17.165  0.9399 -1.3277 -1.8936
15083TIP3   OH266663   1.424   1.164   3.037 -0.2202  0.5633 -0.1580
15083TIP3    H166664   1.407   1.107   2.963  0.6525  0.3376 -0.1904
15083TIP3    H266665   1.432   1.105   3.112 -1.1941  0.7969  0.1372
15084TIP3   OH266666   0.871   1.395  11.463 -0.0326 -0.1523 -0.1755
15084TIP3    H166667   0.780   1.407  11.438  0.5276  2.3004 -1.2129
15084TIP3    H266668   0.867   1.370  11.556 -1.8052 -2.1850 -0.7601
15085TIP3   OH266669   2.055   0.067  16.528  0.2389 -0.0253  0.2212
15085TIP3    H166670   1.969   0.072  16.570 -0.7968  1.5453 -1.9842
15085TIP3    H266671   2.078   0.158  16.507  0.9429 -0.6899 -2.0901
15086TIP3   OH266672   5.807   6.010  16.375 -0.4333  0.1875 -0.5253
15086TIP3    H166673   5.776   5.922  16.400  1.6963 -0.3615  0.3066
15086TIP3    H266674   5.876   5.993  16.311  0.7741  1.2052  0.4958
15087TIP3   OH266675   2.367   5.282  14.812 -0.4724  0.0308  0.3645
15087TIP3    H166676   2.282   5.275  14.768  1.1787 -0.6486 -2.8635
15087TIP3    H266677   2.398   5.370  14.789 -0.8258  0.7889  2.6378
15088TIP3   OH266678   3.941   3.192  14.840 -0.4524 -0.2135 -0.3413
15088TIP3    H166679   3.857   3.180  14.796  0.1461 -2.6319 -0.8943
15088TIP3    H266680   4.004   3.144  14.786  1.5335  2.5157 -0.5802
15089TIP3   OH266681   6.487   6.259   1.526  0.5547  0.0317 -0.1250
15089TIP3    H166682   6.399   6.221   1.524  0.6715 -0.4699  2.2332
15089TIP3    H266683   6.526   6.234   1.443 -1.1206 -0.7595 -0.7018
15090TIP3   OH266684   2.988   3.186   0.734 -0.2976  0.2416  0.1284
15090TIP3    H166685   2.955   3.276   0.741 -0.3968  0.0927  1.7591
15090TIP3    H266686   3.071   3.187   0.780 -0.2687 -0.4972  0.1017
15091TIP3   OH266687   6.766   0.230   1.308 -0.2678 -0.5083  0.1644
15091TIP3    H166688   6.856   0.248   1.334 -0.2777 -1.8397  1.1864
15091TIP3    H266689   6.750   0.288   1.234  1.9160 -1.3158 -0.9811
15092TIP3   OH266690   4.027   3.856  11.540  0.6427 -0.2271  0.0876
15092TIP3    H166691   3.944   3.820  11.570  0.0262  1.1937  0.1332
15092TIP3    H266692   4.068   3.890  11.620  0.8025 -0.0264 -0.0788
15093TIP3   OH266693   0.473   3.104   2.511 -0.0396  0.3045  0.3404
15093TIP3    H166694   0.503   3.168   2.446  0.7142 -0.3776  0.0137
15093TIP3    H266695   0.384   3.081   2.483  0.3224 -0.0746 -0.5137
15094TIP3   OH266696   2.829   3.211  12.284 -0.4929  0.1176 -0.7565
15094TIP3    H166697   2.790   3.138  12.235  2.2390  0.0706 -3.0151
15094TIP3    H266698   2.847   3.174  12.371  0.5603 -1.8344 -1.7727
15095TIP3   OH266699   1.792   2.995   5.298  0.2656 -0.0459 -0.8920
15095TIP3    H166700   1.796   2.955   5.385 -1.2166 -1.2403 -1.3433
15095TIP3    H266701   1.848   3.072   5.304  0.1127 -0.0698  1.1558
15096TIP3   OH266702   4.294   3.631   5.935 -0.8288  0.7579  0.1463
15096TIP3    H166703   4.256   3.704   5.983 -0.4168  0.3351  1.1334
15096TIP3    H266704   4.301   3.561   6.000  0.7056  0.5084 -0.2637
15097TIP3   OH266705   3.631   6.105  10.519  0.6434  0.1837 -0.1710
15097TIP3    H166706   3.646   6.012  10.499  3.1137  0.5688 -0.2822
15097TIP3    H266707   3.559   6.130  10.462  0.2147 -1.5767 -0.4359
15098TIP3   OH266708   4.415   5.641   3.578 -0.1360  0.6394  0.4188
15098TIP3    H166709   4.414   5.564   3.521  2.3147  0.2089  0.8905
15098TIP3    H266710   4.470   5.615   3.653 -0.6199  2.2934  1.3793
15099TIP3   OH266711   1.417   3.563   2.494  0.5406 -0.1457  0.1066
15099TIP3    H166712   1.507   3.593   2.508  0.9405 -0.6657 -1.2651
15099TIP3    H266713   1.378   3.628   2.436  1.3884 -2.1601 -2.8121
15100TIP3   OH266714   0.399   1.464   4.241  0.0277 -1.0405 -0.4458
15100TIP3    H166715   0.359   1.425   4.319 -1.4521 -4.3322 -2.6899
15100TIP3    H266716   0.343   1.539   4.220  0.2283 -0.3519  1.4081
15101TIP3   OH266717   3.004   0.962   2.115  0.0904 -0.4236  0.1990
15101TIP3    H166718   2.974   0.996   2.031 -0.8147  0.3448  0.8286
15101TIP3    H266719   3.100   0.971   2.112  0.1808 -1.6348 -1.2698
15102TIP3   OH266720   0.986   2.477  11.908  0.0254 -0.1628  0.3327
15102TIP3    H166721   0.933   2.540  11.859 -0.5960  0.6286  1.9847
15102TIP3    H266722   0.928   2.404  11.925 -0.0066 -0.0836  0.5721
15103TIP3   OH266723   2.566   5.796   3.889  0.2088  0.2869 -0.0137
15103TIP3    H166724   2.576   5.872   3.946 -0.4586 -0.1902  0.7588
15103TIP3    H266725   2.473   5.774   3.894  0.1027  0.3614 -1.4674
15104TIP3   OH266726   3.342   4.048  13.421 -0.0568  0.2445  0.0266
15104TIP3    H166727   3.376   4.093  13.343  2.2838  3.1328  2.5772
15104TIP3    H266728   3.418   4.040  13.479 -1.4883 -2.8909  1.5951
15105TIP3   OH266729   0.517   2.209  14.674  0.3633 -0.3850  0.1002
15105TIP3    H166730   0.445   2.220  14.736  0.0884 -0.5904 -0.1827
15105TIP3    H266731   0.596   2.227  14.726  0.1102 -0.1243  0.4025
15106TIP3   OH266732   6.646   1.394   4.739  0.2347 -0.5538  0.6217
15106TIP3    H166733   6.554   1.418   4.729 -0.0127 -0.9984  1.7361
15106TIP3    H266734   6.691   1.477   4.752 -0.3395 -0.5122  2.4623
15107TIP3   OH266735   1.989   2.958   2.663 -0.4438 -0.8100  0.4439
15107TIP3    H166736   2.010   2.871   2.698  0.9033  0.2019  2.2786
15107TIP3    H266737   1.895   2.956   2.648 -0.4418 -2.5463  0.5904
15108TIP3   OH266738   5.607   1.293  16.800  0.1264 -0.3213  0.2192
15108TIP3    H166739   5.610   1.209  16.846 -1.8283 -0.8630 -0.5879
15108TIP3    H266740   5.547   1.278  16.727 -1.3140  2.1720  0.8341
15109TIP3   OH266741   0.229   3.291   5.420 -0.0917  0.1680  0.4972
15109TIP3    H166742   0.205   3.201   5.396  0.3704  0.6263 -1.8439
15109TIP3    H266743   0.324   3.295   5.406  0.1441  0.5766  2.1442
15110TIP3   OH266744   4.458   6.026  14.039  0.5640  0.1274  0.4738
15110TIP3    H166745   4.452   5.944  13.989 -4.2398  0.3857  0.4187
15110TIP3    H266746   4.497   6.088  13.977 -1.4934 -0.5861 -1.6254
15111TIP3   OH266747   6.475   2.022   2.488 -0.4823  0.1514 -0.4936
15111TIP3    H166748   6.453   2.047   2.399 -0.1205  1.6104 -0.1802
15111TIP3    H266749   6.471   2.103   2.538 -2.5433 -0.9462  1.2095
15112TIP3   OH266750   4.775   2.476   6.614 -0.0273 -0.2581 -0.0946
15112TIP3    H166751   4.703   2.421   6.580 -0.9551 -0.1525  1.6561
15112TIP3    H266752   4.731   2.546   6.661  1.2115  1.0297 -0.8192
15113TIP3   OH266753   4.433   2.295  14.128 -0.5506  0.0471  0.1466
15113TIP3    H166754   4.442   2.367  14.065 -0.9312 -0.6796 -0.7641
15113TIP3    H266755   4.379   2.230  14.082 -1.6077 -0.1167  1.5689
15114TIP3   OH266756   5.726   2.114   0.873  0.0636  0.2550 -0.1237
15114TIP3    H166757   5.722   2.123   0.968  1.0376  0.1136 -0.0700
15114TIP3    H266758   5.740   2.021   0.858 -0.8127  0.1674 -0.4333
15115TIP3   OH266759   0.977   5.897  13.447  0.2568 -0.4941 -0.8931
15115TIP3    H166760   0.945   5.807  13.459  1.5940 -1.2497 -2.6543
15115TIP3    H266761   1.054   5.887  13.391  2.0493  1.4920  1.0909
15116TIP3   OH266762   1.318   0.468   2.261 -0.6604  0.1102  0.1285
15116TIP3    H166763   1.290   0.549   2.218  1.0739  0.3327 -0.5948
15116TIP3    H266764   1.273   0.399   2.213 -0.4390  0.5070 -0.6530
15117TIP3   OH266765   1.970   2.571  12.336 -0.4491  0.1198 -0.0380
15117TIP3    H166766   1.892   2.621  12.358 -0.2635  0.3928  0.0066
15117TIP3    H266767   1.944   2.516  12.262 -0.9379 -0.4531  0.5559
15118TIP3   OH266768   1.395   5.531   5.091  0.1243 -0.3591 -0.1200
15118TIP3    H166769   1.421   5.617   5.124 -0.7483 -0.4739  0.8575
15118TIP3    H266770   1.300   5.531   5.096  0.1420 -1.5126  0.1744
15119TIP3   OH266771   6.388   2.498   5.811 -0.2665  0.5236  0.4562
15119TIP3    H166772   6.338   2.476   5.890 -0.9743  1.5510  0.3142
15119TIP3    H266773   6.354   2.440   5.744 -1.5746  1.4636  0.2670
15120TIP3   OH266774   5.824   2.573  13.300  0.7834  0.4431 -0.3295
15120TIP3    H166775   5.858   2.605  13.384  1.9379  0.0850 -0.6449
15120TIP3    H266776   5.736   2.543  13.320  1.2574 -0.1904  0.8993
15121TIP3   OH266777   3.856   3.652   3.433  0.0574  0.2573  0.3757
15121TIP3    H166778   3.914   3.578   3.418  0.4655  0.4292  1.1240
15121TIP3    H266779   3.852   3.697   3.348  0.8005  0.0943  0.2554
15122TIP3   OH266780   2.659   3.609   2.043  0.0023 -0.1998 -0.1544
15122TIP3    H166781   2.640   3.523   2.006  0.2687  0.0065 -0.7820
15122TIP3    H266782   2.661   3.668   1.967  0.4998  0.2394  0.1933
15123TIP3   OH266783   3.559   1.434   6.145  0.4225  0.0574 -0.4932
15123TIP3    H166784   3.588   1.500   6.208  0.9408 -1.7711  1.2268
15123TIP3    H266785   3.638   1.383   6.126  0.4103  0.9039 -3.0923
15124TIP3   OH266786   3.519   4.133   3.181  0.3162 -0.5343  0.2940
15124TIP3    H166787   3.583   4.187   3.134 -1.1268  0.4510 -0.5452
15124TIP3    H266788   3.496   4.183   3.259  1.7018 -1.5812  1.4177
15125TIP3   OH266789   3.998   4.750  11.634 -0.0580 -0.4176  0.4300
15125TIP3    H166790   4.070   4.767  11.694 -0.5833 -0.1596  0.9935
15125TIP3    H266791   4.032   4.774  11.548  0.7770 -1.0321  0.5882
15126TIP3   OH266792   4.230   4.525  14.878  0.1108 -0.1242  0.1230
15126TIP3    H166793   4.189   4.582  14.814 -2.0791  0.2463  1.7858
15126TIP3    H266794   4.197   4.437  14.858 -1.5692  0.1729  1.4584
15127TIP3   OH266795   1.685   3.068  15.538 -0.0749  0.4069 -0.6506
15127TIP3    H166796   1.645   3.092  15.621 -0.1511 -2.1843  0.1040
15127TIP3    H266797   1.743   3.141  15.517 -1.5409  1.9860  0.6660
15128TIP3   OH266798   4.132   1.439  16.355 -0.0094 -0.6405  0.3711
15128TIP3    H166799   4.149   1.368  16.293  2.1291 -0.2493  0.4776
15128TIP3    H266800   4.184   1.512  16.323 -1.4803  0.6201  0.7838
15129TIP3   OH266801   4.359   0.470   3.837  0.1438  0.3085  0.4873
15129TIP3    H166802   4.423   0.537   3.861 -2.4292  4.0761 -2.5618
15129TIP3    H266803   4.280   0.494   3.886 -0.1261 -1.9855  1.2301
15130TIP3   OH266804   2.564   1.687   3.710  0.4952 -0.4268 -0.4878
15130TIP3    H166805   2.599   1.599   3.697 -1.0506 -1.2449  0.6833
15130TIP3    H266806   2.495   1.676   3.776  0.7067  1.7636  0.1496
15131TIP3   OH266807   1.217   2.898   5.315 -0.1777 -0.5812 -0.4211
15131TIP3    H166808   1.167   2.919   5.236 -0.8867  1.1024  0.4684
15131TIP3    H266809   1.268   2.977   5.333 -0.5200 -0.7170  1.1882
15132TIP3   OH266810   3.985   4.961   3.639 -0.0318  0.7583 -0.0454
15132TIP3    H166811   4.028   5.011   3.569 -1.8938 -0.3204 -2.0026
15132TIP3    H266812   3.944   5.027   3.694 -0.8322  1.4898 -1.5028
15133TIP3   OH266813   6.518   0.239  13.111  0.2271  0.2626  0.2642
15133TIP3    H166814   6.433   0.280  13.131  0.3814  1.7204 -1.8261
15133TIP3    H266815   6.546   0.200  13.193 -2.1664  0.3326  1.1640
15134TIP3   OH266816   4.598   5.631   5.784  0.2476  1.1451  0.2816
15134TIP3    H166817   4.515   5.594   5.814  0.3906 -0.8452 -1.6861
15134TIP3    H266818   4.575   5.683   5.707  1.2290 -2.4152 -2.5482
15135TIP3   OH266819   6.753   2.106   6.847  0.4870  0.0299 -0.1372
15135TIP3    H166820   6.672   2.073   6.886  0.1643  3.1738  2.0042
15135TIP3    H266821   6.757   2.065   6.760 -1.9366 -2.3320  0.8220
15136TIP3   OH266822   5.028   5.018  11.755 -0.3308  0.3754 -0.0718
15136TIP3    H166823   5.083   4.966  11.814 -1.8956 -1.1223  0.1167
15136TIP3    H266824   5.088   5.081  11.715  1.4342 -1.0028  0.3653
15137TIP3   OH266825   1.627   5.018  16.480  0.0265 -0.4852 -0.3078
15137TIP3    H166826   1.652   5.024  16.388  1.2479  2.2777  0.1544
15137TIP3    H266827   1.532   5.004  16.478  0.2040 -1.5231 -1.9894
15138TIP3   OH266828   0.345   1.861  13.665 -0.3008 -0.2950  0.6909
15138TIP3    H166829   0.264   1.820  13.698  0.8886  0.6810  5.1231
15138TIP3    H266830   0.352   1.943  13.715  2.5686  0.4467 -0.8651
15139TIP3   OH266831   2.027   1.342   2.589 -0.3051 -0.3242  0.5249
15139TIP3    H166832   2.016   1.247   2.593 -0.8939 -0.2613  0.3833
15139TIP3    H266833   2.096   1.361   2.653 -0.4561 -0.8055  0.8331
15140TIP3   OH266834   2.882   3.292  11.225 -0.1132 -0.3201 -0.4663
15140TIP3    H166835   2.836   3.348  11.162  1.0095  0.4148 -0.6538
15140TIP3    H266836   2.894   3.209  11.179  0.7461  0.2287 -1.2691
15141TIP3   OH266837   1.960   2.996   2.278 -0.0132  0.2712  0.2092
15141TIP3    H166838   2.045   3.033   2.254 -0.6813  0.4290 -2.0065
15141TIP3    H266839   1.921   3.061   2.336 -0.0229  1.8047 -1.4761
15142TIP3   OH266840   0.235   0.175   6.475 -0.0712  0.0829 -0.5592
15142TIP3    H166841   0.225   0.119   6.398  1.5655 -0.4804 -0.3813
15142TIP3    H266842   0.249   0.114   6.547  0.0103  0.6599 -0.0873
15143TIP3   OH266843   5.020   1.666  17.101  0.0932 -0.0797  0.7561
15143TIP3    H166844   4.940   1.647  17.151 -1.7321  2.8471 -0.9215
15143TIP3    H266845   5.076   1.713  17.162 -1.5873  2.3109  0.5183
15144TIP3   OH266846   3.425   5.547  16.534  0.4555 -0.2966 -0.1318
15144TIP3    H166847   3.361   5.489  16.575  0.7313 -1.1912 -0.9435
15144TIP3    H266848   3.394   5.635  16.554 -0.0220 -0.7169  1.0396
15145TIP3   OH266849   2.757   3.046  15.442  0.8963  0.3875 -0.2676
15145TIP3    H166850   2.731   3.058  15.351 -0.7114 -1.8343 -0.1292
15145TIP3    H266851   2.850   3.065  15.443  0.5341  2.4392 -1.9751
15146TIP3   OH266852   2.080   1.802  10.560  0.9222 -0.0250  0.2878
15146TIP3    H166853   2.109   1.732  10.500  0.2919  1.5682 -1.9615
15146TIP3    H266854   2.151   1.809  10.624  2.3305 -0.8176 -1.1400
15147TIP3   OH266855   1.442   0.941   5.437 -0.0429  0.1888 -0.0174
15147TIP3    H166856   1.380   0.889   5.386  0.6201 -0.7673  0.1342
15147TIP3    H266857   1.474   0.880   5.504  0.3301  0.9566  0.5036
15148TIP3   OH266858   1.968   3.710   5.221 -0.3296 -0.3960 -0.0724
15148TIP3    H166859   2.032   3.757   5.273  0.3258 -1.8094  0.4254
15148TIP3    H266860   1.973   3.750   5.134  0.6393  0.0398  0.1822
15149TIP3   OH266861   4.068   6.224  14.635  0.7510  0.3302  0.2311
15149TIP3    H166862   4.027   6.260  14.714 -0.6175  0.4550 -0.5330
15149TIP3    H266863   4.085   6.132  14.657 -0.3254  0.1711  0.3885
15150TIP3   OH266864   2.085   1.714  17.184  0.2888  0.8406  0.7968
15150TIP3    H166865   2.162   1.693  17.131 -0.5655 -2.9354  0.8992
15150TIP3    H266866   2.116   1.707  17.274 -0.2865 -1.2217  0.8423
15151TIP3   OH266867   2.571   0.096  13.893 -0.0885  0.1175 -0.0086
15151TIP3    H166868   2.555   0.089  13.799 -0.4232  2.9250 -0.2150
15151TIP3    H266869   2.664   0.075  13.903 -0.3604 -1.4811 -0.7900
15152TIP3   OH266870   0.909   6.374  12.892 -0.0346 -0.2037  0.1086
15152TIP3    H166871   0.896   6.283  12.865  0.9829 -0.8187  1.6182
15152TIP3    H266872   0.830   6.397  12.941 -0.1825 -0.3704 -0.0557
15153TIP3   OH266873   2.474   4.514  14.147  0.7833  0.9547  0.0021
15153TIP3    H166874   2.488   4.535  14.054 -0.6738  0.0781 -0.4184
15153TIP3    H266875   2.434   4.427  14.146  2.2859  0.2211  1.5345
15154TIP3   OH266876   3.709   3.053  12.557 -0.1182 -0.2495 -0.3268
15154TIP3    H166877   3.754   2.969  12.564 -1.2934 -1.0019 -1.5807
15154TIP3    H266878   3.621   3.031  12.528 -2.4654  0.9517  5.3192
15155TIP3   OH266879   3.889   2.910  15.699 -0.1274 -0.0432  0.0709
15155TIP3    H166880   3.914   2.827  15.659  0.5067  0.1185  0.1143
15155TIP3    H266881   3.866   2.888  15.789  1.2726 -0.0002  0.4532
15156TIP3   OH266882   0.376   3.177  14.460 -0.7856  0.0934  0.2931
15156TIP3    H166883   0.336   3.129  14.533 -0.4163 -1.0483 -0.2470
15156TIP3    H266884   0.467   3.146  14.458 -0.6134  0.6242 -0.2349
15157TIP3   OH266885   6.582   3.136  14.804  0.3094  0.3781 -0.0786
15157TIP3    H166886   6.632   3.176  14.734  3.5579 -3.0855  0.0883
15157TIP3    H266887   6.638   3.143  14.881 -0.8312 -0.7545  0.8993
15158TIP3   OH266888   3.955   3.587  15.367  0.3985 -0.4926  0.4011
15158TIP3    H166889   3.955   3.500  15.407  1.1129 -0.2597  0.9373
15158TIP3    H266890   3.985   3.645  15.438  0.2129  0.1406 -0.0375
15159TIP3   OH266891   6.768   2.365  15.588 -0.0941  0.1788 -0.0123
15159TIP3    H166892   6.780   2.403  15.501  0.0850  1.9829  0.7726
15159TIP3    H266893   6.703   2.296  15.576  0.7280 -0.3034 -1.7643
15160TIP3   OH266894   6.214   4.280   5.530  0.6534 -0.1500  0.5769
15160TIP3    H166895   6.159   4.315   5.460  2.1413 -2.7172 -1.9566
15160TIP3    H266896   6.162   4.210   5.569  0.0655  0.8911  1.7231
15161TIP3   OH266897   0.690   4.541  12.297 -0.3325 -0.0026 -0.4954
15161TIP3    H166898   0.679   4.605  12.227 -2.3936  0.9362  0.6402
15161TIP3    H266899   0.605   4.496  12.301 -0.1760 -0.1409  1.3041
15162TIP3   OH266900   5.122   4.266   1.931  0.0098  0.0032  0.1546
15162TIP3    H166901   5.078   4.316   1.862  1.1855  1.1625  0.2338
15162TIP3    H266902   5.060   4.196   1.952 -2.5028  2.4482  1.3115
15163TIP3   OH266903   3.853   4.002  13.634  0.1855 -0.4230 -0.0559
15163TIP3    H166904   3.917   3.951  13.585  1.2574  1.4679 -0.6799
15163TIP3    H266905   3.863   4.091  13.601 -2.4057  0.0002  0.2230
15164TIP3   OH266906   3.478   2.942   4.679 -0.1733 -0.2498  0.2758
15164TIP3    H166907   3.480   3.021   4.733 -0.6912  0.5049 -0.7683
15164TIP3    H266908   3.387   2.912   4.683  0.2828 -1.4616  1.6004
15165TIP3   OH266909   0.462   5.722   5.644 -0.3519 -0.1696 -0.0785
15165TIP3    H166910   0.403   5.647   5.639 -0.1610 -0.3968  1.0959
15165TIP3    H266911   0.465   5.744   5.737  1.5680 -0.2753 -0.1072
15166TIP3   OH266912   2.356   3.742   3.254 -0.3753 -0.0730 -0.1481
15166TIP3    H166913   2.297   3.796   3.202  0.5990  1.4966  0.3357
15166TIP3    H266914   2.356   3.657   3.210 -2.8128 -0.0595 -0.2793
15167TIP3   OH266915   6.184   4.249  12.009 -0.0095  0.0096  0.6036
15167TIP3    H166916   6.161   4.286  11.924  1.7888 -0.7674 -0.2559
15167TIP3    H266917   6.102   4.216  12.045 -0.7924  0.4518 -0.7949
15168TIP3   OH266918   3.937   5.016  14.317  0.8083  0.1908  0.2251
15168TIP3    H166919   3.998   5.089  14.303 -1.0364  1.4434 -1.5020
15168TIP3    H266920   3.978   4.943  14.271  1.3893  0.8374 -0.3193
15169TIP3   OH266921   5.054   0.419   3.002  0.3084 -0.0077  0.4196
15169TIP3    H166922   5.048   0.499   3.055  0.5466  0.6274 -0.5011
15169TIP3    H266923   5.123   0.437   2.939 -0.1540 -0.6626 -0.2825
15170TIP3   OH266924   4.322   4.713  14.459  0.5429  0.4208 -0.6200
15170TIP3    H166925   4.261   4.698  14.387  1.0778 -2.4214 -0.5528
15170TIP3    H266926   4.270   4.700  14.538  1.0322 -1.3808 -0.5609
15171TIP3   OH266927   4.900   2.319  12.751 -0.3474 -0.0363  0.3064
15171TIP3    H166928   4.986   2.359  12.758 -0.7435  0.4257  2.8365
15171TIP3    H266929   4.901   2.274  12.666  2.4599 -0.3023  0.4583
15172TIP3   OH266930   2.612   3.447   5.202  0.6112 -0.1181 -0.3577
15172TIP3    H166931   2.657   3.362   5.204  0.0467 -0.4199 -0.5989
15172TIP3    H266932   2.651   3.495   5.275  1.3594 -0.3641 -0.5877
15173TIP3   OH266933   6.607   2.005  12.708  0.0377 -0.2492 -0.2560
15173TIP3    H166934   6.543   2.027  12.640  0.6304 -1.1024 -1.0925
15173TIP3    H266935   6.631   1.915  12.690 -1.9968 -1.4716  2.8500
15174TIP3   OH266936   4.827   1.015   4.819  0.4867 -0.5698  0.2523
15174TIP3    H166937   4.848   1.063   4.739 -0.4223 -1.5200 -0.5855
15174TIP3    H266938   4.820   1.082   4.886 -0.1765  0.4076 -0.7701
15175TIP3   OH266939   6.474   4.138   0.760 -0.4733 -0.0656 -0.4428
15175TIP3    H166940   6.561   4.169   0.736  0.0480 -1.2973 -0.1805
15175TIP3    H266941   6.489   4.077   0.833 -1.7040  0.8979  0.6253
15176TIP3   OH266942   0.385   3.665   3.542 -0.1022 -0.7913 -0.3099
15176TIP3    H166943   0.326   3.594   3.568 -1.0122 -0.4092 -1.3106
15176TIP3    H266944   0.400   3.714   3.623 -1.5787 -0.5969 -0.1446
15177TIP3   OH266945   4.845   3.938   2.449  0.1151 -0.1703 -0.1062
15177TIP3    H166946   4.765   3.989   2.435 -0.4803 -1.2798 -0.7398
15177TIP3    H266947   4.881   3.925   2.362 -0.1237 -1.4552 -0.0239
15178TIP3   OH266948   2.139   1.535  10.450  0.7415 -0.0670 -0.4263
15178TIP3    H166949   2.169   1.474  10.383  0.8932 -1.4012  0.8325
15178TIP3    H266950   2.162   1.493  10.533 -1.2001  0.6358  0.5046
15179TIP3   OH266951   1.904   0.510   0.794 -0.5544 -0.5221 -0.1420
15179TIP3    H166952   1.931   0.571   0.725  0.1343 -1.8705 -1.0967
15179TIP3    H266953   1.916   0.558   0.875 -0.3220  0.7154 -0.8899
15180TIP3   OH266954   2.752   0.733   0.294 -0.4081 -0.3080  0.1583
15180TIP3    H166955   2.697   0.769   0.224 -0.3053  0.0014  0.2356
15180TIP3    H266956   2.707   0.654   0.321 -0.9502  0.0829  0.3966
15181TIP3   OH266957   0.939   4.864   0.757  0.1733 -0.0205 -0.7048
15181TIP3    H166958   0.846   4.886   0.766  0.2413  0.1796 -0.5037
15181TIP3    H266959   0.965   4.835   0.845  0.7514  1.5925 -0.3401
15182TIP3   OH266960   0.083   0.145  15.641 -0.4005  0.4491  0.8655
15182TIP3    H166961   0.084   0.190  15.556  2.8422 -0.3697  0.3948
15182TIP3    H266962   0.071   0.052  15.619 -0.8234  0.3785  1.3921
15183TIP3   OH266963   5.480   4.195  11.789  0.1195  0.1119  0.4719
15183TIP3    H166964   5.480   4.263  11.856 -0.6870 -1.0523  1.6906
15183TIP3    H266965   5.571   4.169  11.780  0.4353  1.3480 -0.0228
15184TIP3   OH266966   2.250   5.543  17.079 -0.1038  0.2838 -0.7289
15184TIP3    H166967   2.162   5.540  17.117  0.7455  0.5143  1.3428
15184TIP3    H266968   2.308   5.541  17.155  1.6681  1.0500 -2.0405
15185TIP3   OH266969   2.716   5.286   3.365 -0.1571 -0.1098 -0.5441
15185TIP3    H166970   2.661   5.285   3.287 -1.2966 -1.7308  0.2510
15185TIP3    H266971   2.779   5.356   3.349 -1.5712  0.8473 -2.0751
15186TIP3   OH266972   5.285   1.383   3.130 -0.0407 -0.3849 -0.1149
15186TIP3    H166973   5.319   1.344   3.049  1.6948 -0.5471  0.6797
15186TIP3    H266974   5.243   1.465   3.101 -0.5459 -1.0610 -1.3310
15187TIP3   OH266975   3.692   5.647   3.195 -0.0910 -0.1211 -0.3126
15187TIP3    H166976   3.766   5.590   3.214 -0.0370  0.2474  0.6055
15187TIP3    H266977   3.616   5.590   3.201 -0.2653  0.3577  2.9939
15188TIP3   OH266978   1.281   2.846  10.656  0.4892 -0.4387 -0.2825
15188TIP3    H166979   1.210   2.819  10.597  0.8143 -2.9689  0.4375
15188TIP3    H266980   1.311   2.764  10.697  0.1870  1.2806  3.5197
15189TIP3   OH266981   5.085   5.523   0.903  0.2288 -0.7085 -0.0945
15189TIP3    H166982   5.027   5.462   0.858 -0.6692 -0.8179  1.1828
15189TIP3    H266983   5.036   5.550   0.980 -0.2832  3.2552 -1.6646
15190TIP3   OH266984   0.642   3.880   3.216 -0.1489 -0.0710 -0.2824
15190TIP3    H166985   0.655   3.845   3.305 -0.0393 -1.7249 -0.9300
15190TIP3    H266986   0.568   3.940   3.224  1.2269  1.4804  1.3584
15191TIP3   OH266987   5.814   4.789   0.964 -0.1896  0.2646 -0.4188
15191TIP3    H166988   5.738   4.843   0.942 -0.5334  1.0590  2.4756
15191TIP3    H266989   5.886   4.851   0.975  0.4153 -0.2892 -1.2018
15192TIP3   OH266990   3.448   3.924   2.445  0.3915 -0.3365  0.2225
15192TIP3    H166991   3.475   3.845   2.492  1.6999  0.9148  1.6525
15192TIP3    H266992   3.444   3.898   2.353 -0.2853 -2.3387  0.7928
15193TIP3   OH266993   6.725   4.299  14.111 -0.0101  0.4881 -0.0679
15193TIP3    H166994   6.808   4.315  14.156 -0.8593  1.2339  1.2881
15193TIP3    H266995   6.725   4.206  14.092  1.8187  0.7566 -1.4656
15194TIP3   OH266996   3.738   1.850   2.769  0.1632 -0.3794 -0.4568
15194TIP3    H166997   3.689   1.923   2.806 -0.8206 -1.5530  0.5895
15194TIP3    H266998   3.676   1.806   2.710  0.5280 -0.7749 -0.5548
15195TIP3   OH266999   3.417   4.970  14.281 -0.0981  0.5072 -0.4806
15195TIP3    H167000   3.447   5.046  14.330 -0.0304 -0.4252  0.9653
15195TIP3    H267001   3.383   4.910  14.348 -1.4958 -0.1205 -1.7248
15196TIP3   OH267002   6.617   0.724   5.242  0.3214 -0.1611 -0.1025
15196TIP3    H167003   6.647   0.668   5.170  0.0426 -0.0475 -0.3097
15196TIP3    H267004   6.586   0.663   5.309  0.2432 -0.2603 -0.2289
15197TIP3   OH267005   4.934   4.251   2.462 -0.4669 -0.2168 -0.2419
15197TIP3    H167006   4.851   4.294   2.441 -0.0603  0.0255 -1.3642
15197TIP3    H267007   5.000   4.320   2.453 -0.2392 -0.1784  1.5493
15198TIP3   OH267008   6.350   5.576   2.879  0.3409  0.4454 -0.6041
15198TIP3    H167009   6.333   5.485   2.856 -0.8268  0.5106 -0.0470
15198TIP3    H267010   6.320   5.626   2.803 -0.6435  0.4660 -0.2120
15199TIP3   OH267011   6.311   2.503   1.200  0.4266 -0.4475  0.1523
15199TIP3    H167012   6.401   2.530   1.220 -0.4244  2.7598 -0.2051
15199TIP3    H267013   6.311   2.486   1.106  1.4849 -4.0147  0.7034
15200TIP3   OH267014   5.763   3.836  14.439  0.2712 -0.0729 -0.6160
15200TIP3    H167015   5.736   3.861  14.351 -1.1837 -0.4018 -0.2900
15200TIP3    H267016   5.683   3.802  14.479  0.9962 -0.2418  0.7158
15201TIP3   OH267017   0.642   1.649  12.966  0.2144 -0.2450 -0.4339
15201TIP3    H167018   0.641   1.562  12.926  1.2328 -0.5947  0.2872
15201TIP3    H267019   0.566   1.649  13.024  0.2432 -0.6760 -0.3913
15202TIP3   OH267020   3.422   4.031  11.348 -0.0547 -0.0185  0.2627
15202TIP3    H167021   3.419   4.122  11.318 -0.0041 -0.2007 -0.2927
15202TIP3    H267022   3.345   3.990  11.308 -0.0028 -0.2551  0.4035
15203TIP3   OH267023   0.136   5.687  15.929 -0.2190 -0.5427  0.2249
15203TIP3    H167024   0.103   5.606  15.891 -0.8906  0.5892 -1.7055
15203TIP3    H267025   0.064   5.721  15.982 -0.7990 -0.0246 -0.8793
15204TIP3   OH267026   0.523   3.461   1.805 -0.5440  0.1493  0.3095
15204TIP3    H167027   0.431   3.446   1.781 -0.5295 -2.6435  1.7799
15204TIP3    H267028   0.573   3.415   1.738 -0.2159  1.4555 -0.3469
15205TIP3   OH267029   1.108   0.917   4.152 -0.1341 -0.1687 -0.1329
15205TIP3    H167030   1.108   0.834   4.200  1.1275 -0.1295 -0.0500
15205TIP3    H267031   1.081   0.982   4.217  2.8091  0.0762  0.9020
15206TIP3   OH267032   5.510   4.106   0.652 -0.0494  0.0442  0.2116
15206TIP3    H167033   5.455   4.032   0.626  0.7302  0.0274 -1.5035
15206TIP3    H267034   5.475   4.180   0.603 -0.0049  0.5291  0.9112
15207TIP3   OH267035   5.333   5.257  13.780  0.2506 -0.0408 -0.2161
15207TIP3    H167036   5.291   5.341  13.800 -1.7860 -0.6028 -1.8812
15207TIP3    H267037   5.296   5.197  13.845  1.9001  0.3823  1.1341
15208TIP3   OH267038   1.304   2.828  12.391 -0.3414 -0.1064  0.4568
15208TIP3    H167039   1.316   2.743  12.348  0.1802  0.4833 -0.5678
15208TIP3    H267040   1.212   2.849  12.376 -0.6087 -0.7372  1.1728
15209TIP3   OH267041   5.801   6.532  12.138  0.1159 -0.0325 -0.3475
15209TIP3    H167042   5.755   6.450  12.118  0.9543 -0.1798 -1.6783
15209TIP3    H267043   5.777   6.591  12.067  2.2519 -0.2132 -1.2458
15210TIP3   OH267044   0.613   2.778   3.855 -0.3903 -0.0172 -0.2182
15210TIP3    H167045   0.621   2.838   3.929 -1.1738  1.4177 -1.2795
15210TIP3    H267046   0.559   2.706   3.888 -0.2502  0.3211  0.7691
15211TIP3   OH267047   0.476   5.259  15.690 -0.5600  0.1185  0.0221
15211TIP3    H167048   0.563   5.226  15.665 -0.5188  0.4480 -0.2764
15211TIP3    H267049   0.437   5.187  15.739 -0.8713 -0.7615 -1.4859
15212TIP3   OH267050   0.412   2.175  12.858 -0.2994  0.0730 -0.0884
15212TIP3    H167051   0.474   2.245  12.873  0.3394 -0.9497  2.2959
15212TIP3    H267052   0.447   2.127  12.782 -0.6473  2.1619 -1.5948
15213TIP3   OH267053   3.809   5.283   5.675 -0.1305 -0.4302  0.1486
15213TIP3    H167054   3.750   5.228   5.624 -0.1846 -0.5602  0.3516
15213TIP3    H267055   3.791   5.373   5.644  0.2601 -0.5642 -0.4882
15214TIP3   OH267056   6.094   6.380   1.768 -0.0147  0.1808  0.1543
15214TIP3    H167057   6.101   6.452   1.705 -0.9806  0.5939  0.5080
15214TIP3    H267058   6.118   6.302   1.718 -2.2693  0.3017 -1.1482
15215TIP3   OH267059   5.537   4.336  13.222  0.0300  0.3073  0.3084
15215TIP3    H167060   5.504   4.417  13.185 -1.5680  0.1422  1.3344
15215TIP3    H267061   5.496   4.267  13.171  0.2225  0.1309  0.3910
15216TIP3   OH267062   3.261   3.153   0.733  0.1595 -0.3514  0.3793
15216TIP3    H167063   3.280   3.128   0.643 -1.4879 -1.8403  0.4352
15216TIP3    H267064   3.305   3.087   0.786  0.8295  0.3209  0.6704
15217TIP3   OH267065   2.088   3.817  14.147  0.8598  0.1209 -0.4232
15217TIP3    H167066   2.091   3.753  14.218  0.2911  0.5867  0.0255
15217TIP3    H267067   2.176   3.855  14.144  1.2957 -0.9044 -0.9079
15218TIP3   OH267068   3.702   0.318   1.965  0.2366  0.2538  0.6914
15218TIP3    H167069   3.684   0.225   1.982  0.6924 -0.0101 -0.2549
15218TIP3    H267070   3.655   0.364   2.035 -2.3272 -0.5301 -0.4760
15219TIP3   OH267071   0.440   2.290  12.013 -0.3074 -0.8555  0.3268
15219TIP3    H167072   0.477   2.209  11.980 -0.1066 -0.8085  0.4381
15219TIP3    H267073   0.374   2.315  11.948  0.1001 -0.7515 -0.0456
15220TIP3   OH267074   5.992   5.634  13.979 -0.1176  0.1923  0.1860
15220TIP3    H167075   5.914   5.593  14.017  1.9351 -1.3630  2.8641
15220TIP3    H267076   6.038   5.561  13.937  2.8238 -0.0824  3.7155
15221TIP3   OH267077   6.318   5.184  10.496  0.4724 -0.0394  0.1826
15221TIP3    H167078   6.338   5.268  10.538  1.7326 -0.9549  1.4631
15221TIP3    H267079   6.386   5.125  10.527 -0.8211 -1.7313 -0.1345
15222TIP3   OH267080   4.424   4.515  14.198 -0.2120 -0.0788 -0.5002
15222TIP3    H167081   4.488   4.586  14.192 -1.5138  1.1634  0.2356
15222TIP3    H267082   4.345   4.551  14.158 -0.6291 -1.4147 -0.8903
15223TIP3   OH267083   5.741   3.756  11.777 -0.0743  0.2846 -0.7061
15223TIP3    H167084   5.704   3.820  11.715 -0.0149  1.3506  0.3305
15223TIP3    H267085   5.666   3.710  11.813 -0.1687  0.2581 -0.9347
15224TIP3   OH267086   0.669   4.040  13.767  0.0286  0.0317  0.3739
15224TIP3    H167087   0.741   3.978  13.756  1.0579  1.8489 -4.4216
15224TIP3    H267088   0.591   3.988  13.749  0.5842 -0.7656  0.1910
15225TIP3   OH267089   5.785   5.002   1.512 -0.2390  0.1306  0.0153
15225TIP3    H167090   5.759   5.074   1.569 -0.2356 -0.0362  0.2271
15225TIP3    H267091   5.745   4.924   1.551 -1.7510  0.2611 -1.2054
15226TIP3   OH267092   1.255   3.275  11.069 -0.5877 -0.4104  0.2710
15226TIP3    H167093   1.224   3.308  10.984  0.2307 -1.7589 -0.5678
15226TIP3    H267094   1.327   3.216  11.047 -1.0857 -1.6400  1.8327
15227TIP3   OH267095   2.208   1.529   6.282 -0.7395  0.2419 -0.3180
15227TIP3    H167096   2.222   1.602   6.343 -1.3630 -0.2216  0.3840
15227TIP3    H267097   2.157   1.465   6.332  0.8455 -1.2298 -0.4924
15228TIP3   OH267098   1.999   0.151  14.304 -0.1632 -0.0189 -0.2450
15228TIP3    H167099   1.912   0.185  14.281 -0.2979  0.8172  1.4425
15228TIP3    H267100   1.983   0.060  14.329 -0.4481 -0.0660 -0.5812
15229TIP3   OH267101   2.557   2.230  13.249  0.5868  0.9959  0.3826
15229TIP3    H167102   2.578   2.167  13.319  1.2783  2.3741  1.4387
15229TIP3    H267103   2.618   2.210  13.179 -0.5862 -0.8782 -0.1383
15230TIP3   OH267104   0.005   2.498   3.532 -0.2048  0.3367 -0.1933
15230TIP3    H167105  -0.064   2.546   3.578 -0.5859  0.1688 -0.5931
15230TIP3    H267106   0.086   2.546   3.554 -0.6896  1.7015 -1.3168
15231TIP3   OH267107   2.444   4.934   1.644  0.8433  0.4948 -0.2457
15231TIP3    H167108   2.379   4.924   1.714  0.3886  0.4144 -0.6702
15231TIP3    H267109   2.488   4.850   1.639 -1.3194 -0.5799 -2.1946
15232TIP3   OH267110   5.941   2.077   5.348  0.1894  0.1775 -0.3383
15232TIP3    H167111   5.909   2.094   5.259 -0.7555  1.7028  0.2687
15232TIP3    H267112   5.881   2.011   5.383 -1.0773  1.5376  0.0841
15233TIP3   OH267113   4.356   5.926   1.441  0.0567 -0.3663 -0.4323
15233TIP3    H167114   4.421   5.929   1.511 -0.2015  2.3195 -0.2285
15233TIP3    H267115   4.322   5.837   1.443  1.6849 -0.9841  1.3440
15234TIP3   OH267116   5.472   1.691  12.481 -0.3881 -0.1418  0.4660
15234TIP3    H167117   5.410   1.704  12.409  1.4051 -0.4591 -1.1899
15234TIP3    H267118   5.461   1.768  12.536 -0.2564  1.2239 -1.3575
15235TIP3   OH267119   2.500   1.683  14.604 -0.0048 -0.3681  0.0491
15235TIP3    H167120   2.483   1.763  14.554  0.3159 -1.1745 -1.3678
15235TIP3    H267121   2.470   1.703  14.693 -0.6928  1.0369 -0.4966
15236TIP3   OH267122   6.720   5.931  10.653 -0.0229  0.0085 -0.6432
15236TIP3    H167123   6.786   5.897  10.593  0.4705 -0.0072 -0.0908
15236TIP3    H267124   6.672   5.995  10.601  0.3799 -0.0330 -1.0685
15237TIP3   OH267125   0.885   2.188   1.681 -0.1959  0.0931  0.1442
15237TIP3    H167126   0.912   2.217   1.594  1.0925  0.0512  0.5183
15237TIP3    H267127   0.934   2.107   1.695  1.4439  1.3555  1.8685
15238TIP3   OH267128   6.524   1.112   0.690 -0.2030  0.3347  0.1155
15238TIP3    H167129   6.477   1.039   0.732  1.3664 -1.1676 -0.6859
15238TIP3    H267130   6.487   1.117   0.602 -0.4924  0.7003  0.2538
15239TIP3   OH267131   5.866   3.028  11.591 -0.2308  0.5589 -0.1797
15239TIP3    H167132   5.848   3.085  11.665 -0.2181 -1.5301  1.4583
15239TIP3    H267133   5.937   3.072  11.544  0.5289  1.3495  1.6673
15240TIP3   OH267134   2.491   1.134  15.222 -0.1575 -0.1521 -0.3134
15240TIP3    H167135   2.513   1.172  15.307 -0.6137  0.0523 -0.2808
15240TIP3    H267136   2.433   1.061  15.244  0.1028 -0.3907 -0.4205
15241TIP3   OH267137   6.173   2.541   1.708 -0.2687  0.2957 -0.0309
15241TIP3    H167138   6.095   2.526   1.655 -0.9495 -0.0089  1.0494
15241TIP3    H267139   6.245   2.535   1.646 -1.1519  1.4080 -1.1867
15242TIP3   OH267140   5.017   4.838   1.188 -0.7081  0.0514 -0.8859
15242TIP3    H167141   5.097   4.875   1.149 -0.1917 -0.4345 -0.2923
15242TIP3    H267142   5.047   4.799   1.270 -1.5908  0.0113 -0.5858
15243TIP3   OH267143   6.530   5.056  16.885  0.1312  0.2365  0.0072
15243TIP3    H167144   6.499   5.147  16.877 -1.1859 -0.1654  0.4168
15243TIP3    H267145   6.477   5.008  16.822  2.4610  0.1309 -1.9194
15244TIP3   OH267146   4.035   3.589   0.854 -0.4035  0.0486 -0.0981
15244TIP3    H167147   3.944   3.588   0.825 -0.7183  1.1254  0.8098
15244TIP3    H267148   4.043   3.512   0.911 -0.2514 -1.0700 -1.5946
15245TIP3   OH267149   6.235   2.741   0.782 -0.3628  0.0166 -0.1600
15245TIP3    H167150   6.184   2.733   0.701 -0.7640  1.0968 -0.0216
15245TIP3    H267151   6.204   2.822   0.821  0.4079 -0.0955  0.6799
15246TIP3   OH267152   2.284   2.922   4.145 -0.2313 -0.3532 -0.2274
15246TIP3    H167153   2.371   2.931   4.105 -0.2596  0.7096 -0.0647
15246TIP3    H267154   2.296   2.854   4.211  0.6292  0.1563  0.1641
15247TIP3   OH267155   2.683   3.823   1.863  0.1157  0.2264  0.4531
15247TIP3    H167156   2.632   3.896   1.830 -1.0987 -0.4265  0.8665
15247TIP3    H267157   2.751   3.809   1.797  0.0053  1.3528  0.0996
15248TIP3   OH267158   5.492   4.745  15.011  0.3324 -0.5665 -0.1551
15248TIP3    H167159   5.494   4.838  14.986  0.0635 -0.8247 -1.1373
15248TIP3    H267160   5.399   4.723  15.010  0.3772 -0.7723  0.3647
15249TIP3   OH267161   5.252   0.983   0.892  0.2376 -0.0756 -0.1637
15249TIP3    H167162   5.203   0.971   0.973  0.8813 -1.5148  0.0342
15249TIP3    H267163   5.343   0.967   0.915  0.7249  1.7596 -0.7118
15250TIP3   OH267164   6.145   2.099  15.968  0.5975 -0.5925  0.2508
15250TIP3    H167165   6.187   2.174  16.011 -0.3952  0.6348 -0.9151
15250TIP3    H267166   6.051   2.114  15.979  0.3780 -1.3813 -0.4981
15251TIP3   OH267167   4.908   0.561   6.823 -0.0172  0.4119  0.3740
15251TIP3    H167168   4.836   0.611   6.783 -0.3746 -1.1900 -0.9965
15251TIP3    H267169   4.907   0.477   6.779  0.0505 -1.1525  3.2483
15252TIP3   OH267170   5.947   5.179   3.185 -0.2641  0.0659  0.3465
15252TIP3    H167171   5.865   5.175   3.135 -0.5715  0.0101  0.8501
15252TIP3    H267172   5.919   5.185   3.276  0.3013 -2.5384  0.7112
15253TIP3   OH267173   0.110   3.325  11.658  0.2016  0.1430 -0.2029
15253TIP3    H167174   0.040   3.354  11.716  1.0066 -0.3014  1.0168
15253TIP3    H267175   0.083   3.238  11.629  0.6868 -0.4451  1.0501
15254TIP3   OH267176   3.972   4.721  13.590 -0.6454  0.8077  0.2244
15254TIP3    H167177   4.036   4.792  13.602 -1.3168  1.0921  2.4838
15254TIP3    H267178   3.888   4.762  13.610 -1.3603  0.0447 -1.1871
15255TIP3   OH267179   4.664   5.625  17.168 -0.6496 -0.9090 -0.1663
15255TIP3    H167180   4.625   5.620  17.081  0.9946 -2.9301 -0.8122
15255TIP3    H267181   4.598   5.587  17.226 -2.7110  2.5131 -0.1334
15256TIP3   OH267182   5.560   3.877  12.262 -0.3989  0.6496 -0.0624
15256TIP3    H167183   5.476   3.903  12.300 -0.1240 -0.0998  1.0751
15256TIP3    H267184   5.618   3.867  12.337  0.1477 -0.8956 -0.6727
15257TIP3   OH267185   0.895   5.315   1.656  0.6008  0.1259 -0.1192
15257TIP3    H167186   0.843   5.280   1.583 -0.7408  0.2935  0.7468
15257TIP3    H267187   0.832   5.361   1.711  1.7873  0.9587  0.5751
15258TIP3   OH267188   2.899   3.759   2.608 -0.0223  0.1128  0.1756
15258TIP3    H167189   2.947   3.680   2.634 -0.3823 -0.3621 -0.5754
15258TIP3    H267190   2.964   3.812   2.563 -0.0090 -0.1808 -0.1527
15259TIP3   OH267191   2.793   2.499   3.058  0.0557 -0.0561 -0.0350
15259TIP3    H167192   2.759   2.462   3.139 -1.6857 -2.1764 -1.6754
15259TIP3    H267193   2.818   2.589   3.081 -1.3160 -0.2953  2.5824
15260TIP3   OH267194   5.470   6.740  12.811  0.5703  0.7874 -0.8327
15260TIP3    H167195   5.446   6.758  12.720 -1.5455  1.3386 -0.1861
15260TIP3    H267196   5.563   6.717  12.807  1.0306  2.8711 -2.8647
15261TIP3   OH267197   1.901   2.741   0.855  0.5965  0.0100 -0.8232
15261TIP3    H167198   1.928   2.681   0.924  0.9867  2.0704  0.8992
15261TIP3    H267199   1.978   2.748   0.798  1.6517  1.1436  0.6642
15262TIP3   OH267200   3.189   3.578   5.541 -0.0261  0.4734  0.0293
15262TIP3    H167201   3.196   3.593   5.635 -3.6948 -1.9781  0.7901
15262TIP3    H267202   3.240   3.499   5.525 -1.3101 -0.4323  0.3777
15263TIP3   OH267203   0.109   4.682   0.832 -0.2255  0.2721  0.2956
15263TIP3    H167204   0.106   4.730   0.750 -0.0301 -0.1988  0.0067
15263TIP3    H267205   0.202   4.668   0.848 -0.2726  0.1611  0.4770
15264TIP3   OH267206   6.567   3.623  12.648 -0.5892  0.0585  0.7809
15264TIP3    H167207   6.539   3.532  12.664  3.3761 -1.8858 -2.5340
15264TIP3    H267208   6.639   3.637  12.710 -0.3094  0.4692  0.3661
15265TIP3   OH267209   1.470   4.242   2.813 -0.4152 -0.1506 -0.0307
15265TIP3    H167210   1.484   4.155   2.775 -1.1606 -0.2031 -0.2017
15265TIP3    H267211   1.448   4.225   2.904 -1.4929 -0.2146 -0.2862
15266TIP3   OH267212   3.204   4.410   0.855 -0.4639  0.2550  0.6567
15266TIP3    H167213   3.183   4.372   0.941 -0.2263 -0.6840  0.3067
15266TIP3    H267214   3.215   4.334   0.798  1.4766  0.7932  0.2712
15267TIP3   OH267215   3.712   0.793  10.474  0.1681  0.1682  0.5530
15267TIP3    H167216   3.795   0.831  10.448  1.0439 -2.4367 -0.6406
15267TIP3    H267217   3.731   0.745  10.555 -0.8594  2.0118  1.9159
15268TIP3   OH267218   0.957   5.952   1.562  0.5893  0.1058 -0.1097
15268TIP3    H167219   0.938   5.973   1.471 -0.9017 -3.3642 -0.7027
15268TIP3    H267220   0.879   5.907   1.593  0.9719  1.4775  3.0076
15269TIP3   OH267221   3.667   4.415   1.222  0.0284  0.2041  0.2982
15269TIP3    H167222   3.721   4.487   1.256  0.5164  0.0075 -0.0527
15269TIP3    H267223   3.580   4.453   1.212  0.5086  1.0336 -0.8311
15270TIP3   OH267224   4.181   2.156  14.822  0.2233  0.6024  0.3992
15270TIP3    H167225   4.106   2.122  14.872  0.6195 -1.2713 -0.2111
15270TIP3    H267226   4.251   2.162  14.886  0.4281 -0.7628  0.3361
15271TIP3   OH267227   2.768   1.902  11.730 -0.7025 -0.6840 -0.1016
15271TIP3    H167228   2.786   1.811  11.706  0.0233 -0.7505  0.6659
15271TIP3    H267229   2.693   1.897  11.790  0.4471 -0.9605  1.3582
15272TIP3   OH267230   2.105   3.907  14.882  0.6219 -0.1213  0.5613
15272TIP3    H167231   2.043   3.944  14.820  0.6526 -3.0844 -1.2952
15272TIP3    H267232   2.181   3.966  14.878  0.4206  0.0274 -1.8384
15273TIP3   OH267233   4.570   4.703  16.701  0.6386  0.0002 -0.5073
15273TIP3    H167234   4.494   4.659  16.738  0.6548  0.6350  0.2843
15273TIP3    H267235   4.637   4.697  16.770  1.0709  0.0690 -0.9200
15274TIP3   OH267236   3.917   6.117  16.771 -0.1094 -0.0477 -0.1243
15274TIP3    H167237   3.824   6.118  16.750 -0.0071  0.5988 -0.5581
15274TIP3    H267238   3.925   6.168  16.852  0.2428  2.5720 -1.7404
15275TIP3   OH267239   3.968   1.131  15.577  0.0843 -0.3034 -0.0024
15275TIP3    H167240   3.934   1.047  15.608 -0.2762 -0.0462  0.3111
15275TIP3    H267241   3.939   1.136  15.486  1.0411 -1.0076 -0.3551
15276TIP3   OH267242   6.168   6.383   5.626  0.4258  0.1708 -0.2603
15276TIP3    H167243   6.233   6.453   5.626 -0.0873  0.6630  1.4206
15276TIP3    H267244   6.090   6.422   5.664  0.9515 -1.9980  3.2174
15277TIP3   OH267245   5.134   4.279   4.277  0.0089  0.3189 -0.0828
15277TIP3    H167246   5.204   4.289   4.211  0.8139 -0.6523  0.6069
15277TIP3    H267247   5.135   4.186   4.298  0.2848  0.7434  1.8773
15278TIP3   OH267248   2.344   3.922  14.186 -0.5308  0.1625 -0.3340
15278TIP3    H167249   2.435   3.917  14.158 -0.2269  1.3030  0.4129
15278TIP3    H267250   2.337   4.007  14.231 -1.5846 -0.5789  0.9368
15279TIP3   OH267251   2.943   4.134  12.003 -0.3486 -0.0526  0.0207
15279TIP3    H167252   2.966   4.042  11.985 -0.1598  0.2306 -1.2395
15279TIP3    H267253   2.983   4.152  12.088 -1.1275 -1.3953  0.6927
15280TIP3   OH267254   5.954   4.577   1.506 -0.0753  0.8869 -0.0942
15280TIP3    H167255   5.960   4.610   1.416 -2.7384  2.0720  0.1258
15280TIP3    H267256   5.946   4.483   1.496 -0.2325  0.9946 -1.1055
15281TIP3   OH267257   5.531   5.271  11.575  0.6157 -0.3072 -0.6922
15281TIP3    H167258   5.607   5.276  11.517  0.8032 -0.2582 -0.4481
15281TIP3    H267259   5.514   5.362  11.600  2.1428 -0.5447  1.3680
15282TIP3   OH267260   1.129   5.737  15.654  0.0542 -0.7430  0.2695
15282TIP3    H167261   1.095   5.652  15.683  0.1123 -0.7351  0.3601
15282TIP3    H267262   1.067   5.801  15.689 -2.0969 -0.9543 -2.8785
15283TIP3   OH267263   3.548   3.975   4.960 -0.9056  0.1999  0.3765
15283TIP3    H167264   3.564   4.037   4.889  0.3824 -0.6688 -0.1033
15283TIP3    H267265   3.498   3.904   4.920  0.2008 -0.5029  0.2284
15284TIP3   OH267266   2.631   3.601   0.409 -0.4089 -0.3398  0.3297
15284TIP3    H167267   2.579   3.522   0.393 -1.0198  0.3678 -1.2799
15284TIP3    H267268   2.721   3.571   0.407 -0.6180 -0.9266 -0.8170
15285TIP3   OH267269   2.791   2.768  10.827 -0.4890  0.3813 -0.0243
15285TIP3    H167270   2.874   2.735  10.860 -1.3995  0.1493  2.1181
15285TIP3    H267271   2.811   2.799  10.738  2.1609  1.4796  0.8989
15286TIP3   OH267272   1.038   1.476   3.637 -0.3396 -0.0934  0.0225
15286TIP3    H167273   0.949   1.485   3.605 -0.9455 -1.3158  1.3159
15286TIP3    H267274   1.038   1.520   3.722 -0.0431 -1.1498  0.5839
15287TIP3   OH267275   1.788   2.927   5.906  0.7954  0.2238  0.5135
15287TIP3    H167276   1.777   2.975   5.988 -0.6072 -0.0760  0.5224
15287TIP3    H267277   1.776   2.835   5.929  2.1377 -0.0252  0.2632
15288TIP3   OH267278   1.596   1.597   2.266  0.4256  0.1129 -0.2938
15288TIP3    H167279   1.560   1.520   2.222  0.8115  0.4550 -1.2313
15288TIP3    H267280   1.568   1.671   2.211 -0.5335  0.7093  0.9680
15289TIP3   OH267281   0.214   1.372   3.327 -0.2502  0.6101  0.0576
15289TIP3    H167282   0.162   1.450   3.309  0.9395  1.1273 -1.1642
15289TIP3    H267283   0.164   1.326   3.395 -2.5558  0.8133 -1.4668
15290TIP3   OH267284   5.022   3.947  11.113  0.2268 -0.1715 -0.2554
15290TIP3    H167285   4.973   3.946  11.031 -0.2432  0.2819  0.0205
15290TIP3    H267286   4.963   3.906  11.177  1.9423 -3.9075 -0.8950
15291TIP3   OH267287   6.303   4.598  12.838 -0.0997 -0.5201 -0.0753
15291TIP3    H167288   6.303   4.503  12.844  3.0696 -0.5112  0.9761
15291TIP3    H267289   6.365   4.618  12.767 -0.4185  0.7474 -0.0100
15292TIP3   OH267290   2.104   3.082  14.018 -0.1624 -0.3590 -0.5220
15292TIP3    H167291   2.167   3.133  14.070 -1.5943  0.8085  0.0956
15292TIP3    H267292   2.122   2.991  14.041  1.8552 -0.1167 -0.9810
15293TIP3   OH267293   0.773   5.100   6.288  0.3030 -0.3670  0.2268
15293TIP3    H167294   0.733   5.028   6.338  0.2523 -1.4879 -1.4012
15293TIP3    H267295   0.835   5.057   6.229 -1.2210  0.7195 -2.2490
15294TIP3   OH267296   0.273   1.314   4.427  0.0642  0.3978 -0.6299
15294TIP3    H167297   0.225   1.387   4.466  0.7504  1.5816 -1.9746
15294TIP3    H267298   0.212   1.240   4.433 -0.7517  1.1485  0.4768
15295TIP3   OH267299   6.006   1.421   0.470  0.0325 -0.1653  0.0011
15295TIP3    H167300   5.948   1.407   0.395  2.6817 -0.8174 -2.0082
15295TIP3    H267301   5.978   1.505   0.506 -2.2098 -0.5149 -0.8388
15296TIP3   OH267302   1.959   3.534  11.637  0.3894  0.2024  0.4406
15296TIP3    H167303   1.914   3.590  11.700  0.2994  1.5881 -0.8508
15296TIP3    H267304   1.909   3.541  11.556  1.6640  0.0674 -0.3897
15297TIP3   OH267305   1.707   3.223   0.065 -0.4031 -0.0798 -0.1359
15297TIP3    H167306   1.727   3.184  -0.020  1.3644 -0.7018  0.5495
15297TIP3    H267307   1.641   3.165   0.104 -2.9674  1.4702 -2.0233
15298TIP3   OH267308   0.502   2.678   0.110 -0.5851  0.3706 -0.0561
15298TIP3    H167309   0.533   2.712   0.195  0.6685 -2.3576  0.6151
15298TIP3    H267310   0.523   2.748   0.048  0.0339  1.7165  1.6107
15299TIP3   OH267311   3.315   0.860   0.131  0.1680 -0.2397 -0.4948
15299TIP3    H167312   3.228   0.823   0.144 -0.8047  1.5732 -1.6710
15299TIP3    H267313   3.331   0.912   0.210 -0.5701  0.8433 -1.0473
15300TIP3   OH267314   4.221   5.660  15.952 -0.5487 -0.1917  0.1572
15300TIP3    H167315   4.220   5.753  15.977 -0.6357 -0.2940  0.5422
15300TIP3    H267316   4.150   5.651  15.889  0.3034  0.2783 -0.8887
15301TIP3   OH267317   6.756   2.592  13.513 -0.1910  0.5473  0.1001
15301TIP3    H167318   6.838   2.638  13.529  1.1881 -1.5126 -0.8309
15301TIP3    H267319   6.780   2.499  13.511 -3.1682 -0.4321  3.7900
15302TIP3   OH267320   1.770   4.642   4.327  0.0622  0.4414  0.3867
15302TIP3    H167321   1.686   4.644   4.372 -0.4079 -1.0485 -0.3779
15302TIP3    H267322   1.758   4.577   4.258  1.9653 -0.0429  0.4956
15303TIP3   OH267323   2.694   0.990   2.463 -0.1964 -0.0374  0.4278
15303TIP3    H167324   2.652   1.049   2.399 -1.8759  1.0055  2.4281
15303TIP3    H267325   2.776   0.963   2.421  0.0176  2.7594 -1.0609
15304TIP3   OH267326   4.911   5.379  11.022  0.0682 -0.0446  0.0722
15304TIP3    H167327   4.975   5.356  10.955 -0.2611  0.9144 -0.5838
15304TIP3    H267328   4.879   5.465  10.996 -1.7624 -0.6716  0.1938
15305TIP3   OH267329   4.874   1.442  13.721  0.0634  0.0202 -0.2631
15305TIP3    H167330   4.894   1.467  13.630 -3.5141  0.1411 -1.1014
15305TIP3    H267331   4.864   1.347  13.717  1.7867 -0.1970  0.4204
15306TIP3   OH267332   2.691   2.185  11.213 -0.2465 -0.2506  0.9605
15306TIP3    H167333   2.766   2.203  11.156 -0.1570  0.2612  1.2365
15306TIP3    H267334   2.615   2.214  11.163 -0.1694  0.1809  1.0970
15307TIP3   OH267335   4.352   0.313   2.841  0.2177  0.1646  0.4630
15307TIP3    H167336   4.360   0.290   2.933 -0.7988 -0.6704  0.3542
15307TIP3    H267337   4.321   0.403   2.840 -0.0690  0.0695  0.9360
15308TIP3   OH267338   4.495   0.694   1.385  0.1262  0.3658 -0.4092
15308TIP3    H167339   4.583   0.683   1.422  0.2698  0.2684 -0.7718
15308TIP3    H267340   4.496   0.641   1.305  0.1883  1.4624 -1.1414
15309TIP3   OH267341   3.734   6.749   0.776 -0.3925 -0.1270  0.3608
15309TIP3    H167342   3.657   6.695   0.793  0.2805 -1.3922 -0.4648
15309TIP3    H267343   3.767   6.773   0.863  1.7275 -4.6367  0.9688
15310TIP3   OH267344   3.094   4.222   2.789 -0.2397 -0.1830 -0.4025
15310TIP3    H167345   3.106   4.127   2.792 -0.3158 -0.2064 -0.8404
15310TIP3    H267346   2.999   4.233   2.787 -0.2152 -0.1395 -1.7303
15311TIP3   OH267347   4.493   2.245   5.168 -0.8920  0.0833  0.4612
15311TIP3    H167348   4.455   2.296   5.240 -2.4466 -0.0590 -0.2176
15311TIP3    H267349   4.538   2.172   5.210 -3.3849 -1.0585  1.2506
15312TIP3   OH267350   6.716   4.370  12.874 -0.5115 -0.1300  0.3619
15312TIP3    H167351   6.776   4.445  12.877 -1.1725  0.4839 -0.9935
15312TIP3    H267352   6.642   4.397  12.928  0.6730 -1.1257  2.5177
15313TIP3   OH267353   6.288   6.566  10.905  0.2644  0.4167  0.5080
15313TIP3    H167354   6.335   6.649  10.916 -0.0425  0.3897  2.1838
15313TIP3    H267355   6.345   6.501  10.946  0.2252 -0.1262 -0.2792
15314TIP3   OH267356   3.501   5.538   4.279  0.6018 -0.4428  0.1637
15314TIP3    H167357   3.574   5.537   4.217 -0.6240 -2.1048 -1.3171
15314TIP3    H267358   3.532   5.484   4.352  1.1569 -0.4692 -0.0845
15315TIP3   OH267359   6.624   3.668   4.310 -0.3077 -0.0897 -0.5484
15315TIP3    H167360   6.550   3.714   4.348 -1.2248 -0.8166 -1.4430
15315TIP3    H267361   6.625   3.583   4.355 -0.0125 -0.0865 -0.5446
15316TIP3   OH267362   3.014   5.442   3.879  0.1147 -0.1615  0.2988
15316TIP3    H167363   2.936   5.448   3.824  0.5326  1.1116 -0.1737
15316TIP3    H267364   3.084   5.417   3.819  0.2745 -0.2764  0.5311
15317TIP3   OH267365   1.281   1.778   2.724 -0.1840  0.5673  0.1738
15317TIP3    H167366   1.188   1.786   2.705 -0.0971 -1.3031 -1.1903
15317TIP3    H267367   1.285   1.727   2.805 -0.3493 -0.7917 -0.6445
15318TIP3   OH267368   1.488   6.582   0.795  0.0638 -0.3804  0.0966
15318TIP3    H167369   1.442   6.662   0.768  2.1416  0.0501 -2.2849
15318TIP3    H267370   1.450   6.513   0.741  1.2128 -0.2674 -0.8621
15319TIP3   OH267371   4.199   2.208   6.865  0.4472  0.1670 -0.2619
15319TIP3    H167372   4.177   2.287   6.915 -0.5045 -1.1511  1.4553
15319TIP3    H267373   4.290   2.189   6.890  1.1964  1.5621 -1.8515
15320TIP3   OH267374   1.449   3.113   5.854  0.2450  1.0965  0.4456
15320TIP3    H167375   1.506   3.091   5.928 -0.1934  1.5120  0.9085
15320TIP3    H267376   1.361   3.091   5.883  0.2911 -0.7347 -0.7420
15321TIP3   OH267377   5.338   6.023  11.557 -0.2632  0.1445  0.2386
15321TIP3    H167378   5.373   6.075  11.629 -1.5961  1.6975 -0.1959
15321TIP3    H267379   5.408   6.021  11.492  0.5442 -0.3478  1.1044
15322TIP3   OH267380   5.687   2.038  16.615 -0.3858  0.8481  0.8933
15322TIP3    H167381   5.665   2.131  16.623 -0.3154  0.9139  0.3172
15322TIP3    H267382   5.628   2.005  16.547  0.3496  0.7180  0.3146
15323TIP3   OH267383   1.022   1.827   2.630 -0.0420  0.2336 -0.1129
15323TIP3    H167384   0.959   1.755   2.636  1.6806 -1.3536 -0.6685
15323TIP3    H267385   0.988   1.894   2.689 -1.7902 -0.9442  0.2448
15324TIP3   OH267386   0.010   4.539   5.573 -0.4023 -0.2438 -0.3197
15324TIP3    H167387  -0.056   4.559   5.506  0.8065 -0.9708 -1.7495
15324TIP3    H267388   0.032   4.623   5.612 -1.6556  0.0891 -0.3069
15325TIP3   OH267389   6.171   5.621  12.068 -0.6256  0.4244 -0.1180
15325TIP3    H167390   6.089   5.573  12.056 -1.9145  2.5776 -0.0663
15325TIP3    H267391   6.157   5.673  12.146  0.9343  0.5663  0.0817
15326TIP3   OH267392   1.412   0.728   0.752 -0.1589 -0.5456  0.0904
15326TIP3    H167393   1.426   0.686   0.667 -0.4111  0.4261 -0.4339
15326TIP3    H267394   1.345   0.795   0.735  0.6862  0.4863  0.7938
15327TIP3   OH267395   3.644   0.938   2.509 -0.1544 -0.6381  0.0922
15327TIP3    H167396   3.639   0.892   2.425 -0.6265 -0.3648 -0.0348
15327TIP3    H267397   3.666   0.870   2.572  0.0923 -0.8663 -0.2389
15328TIP3   OH267398   0.028   0.917   5.421 -0.3009 -0.6374  0.2897
15328TIP3    H167399   0.029   0.887   5.330  2.0335 -2.2577  0.7973
15328TIP3    H267400   0.113   0.960   5.432 -1.4702  1.5768  1.1055
15329TIP3   OH267401   4.684   1.542   4.213 -0.0228 -0.1594  0.2121
15329TIP3    H167402   4.745   1.577   4.149 -0.6316  0.6079  0.0422
15329TIP3    H267403   4.633   1.478   4.164  1.4919 -1.7501  0.6706
15330TIP3   OH267404   6.345   3.936  16.312  0.2069  0.1107 -0.5229
15330TIP3    H167405   6.392   3.963  16.234  0.9348  0.5084  0.0479
15330TIP3    H267406   6.347   3.841  16.311  1.2421  0.1311 -0.3732
15331TIP3   OH267407   2.149   5.176   4.842  0.0574 -0.2748  0.0183
15331TIP3    H167408   2.224   5.133   4.802  0.5315 -0.2354  0.8606
15331TIP3    H267409   2.085   5.106   4.855  0.2779 -0.4660  0.0802
15332TIP3   OH267410   3.149   6.407  16.653 -0.0719  0.0429 -0.1233
15332TIP3    H167411   3.181   6.497  16.661 -1.7341  0.6358 -0.0729
15332TIP3    H267412   3.055   6.413  16.670 -0.9481 -1.1028 -4.1313
15333TIP3   OH267413   1.592   3.137   1.952 -0.2790  0.2889 -0.0134
15333TIP3    H167414   1.532   3.120   2.025 -0.9129  0.0874 -0.5738
15333TIP3    H267415   1.679   3.130   1.990 -0.6215  1.0391  0.9043
15334TIP3   OH267416   4.551   0.504   4.289 -0.1190 -0.2798 -0.3697
15334TIP3    H167417   4.519   0.424   4.249  1.4751 -0.7831 -0.6764
15334TIP3    H267418   4.568   0.563   4.214 -0.6060  0.0893 -0.1926
15335TIP3   OH267419   0.905   5.456   4.461  0.5309  0.3037 -0.1977
15335TIP3    H167420   0.975   5.520   4.448  0.4742  0.6501  1.1828
15335TIP3    H267421   0.885   5.425   4.373  1.3638  1.3257 -0.7578
15336TIP3   OH267422   0.378   3.810  16.251 -0.6541 -0.0922 -0.7483
15336TIP3    H167423   0.430   3.803  16.172 -2.1169 -0.6813 -1.6755
15336TIP3    H267424   0.391   3.727  16.296 -0.2426  0.0359 -0.6332
15337TIP3   OH267425   1.150   1.056  11.532  0.1636 -0.0281  0.6083
15337TIP3    H167426   1.233   1.097  11.510 -0.3275  1.5615  1.5900
15337TIP3    H267427   1.137   1.076  11.625 -1.7927  0.6668  0.2147
15338TIP3   OH267428   0.595   2.606   0.944 -0.0003 -0.2862 -0.1046
15338TIP3    H167429   0.613   2.513   0.958  1.0447 -0.1392 -0.3709
15338TIP3    H267430   0.607   2.647   1.030 -0.2456 -0.3736 -0.0312
15339TIP3   OH267431   0.795   5.173   1.169  0.4373 -0.1592 -0.1031
15339TIP3    H167432   0.764   5.227   1.097 -0.8958  0.5409  0.9846
15339TIP3    H267433   0.890   5.185   1.169  0.2191  1.7859 -0.2164
15340TIP3   OH267434   3.433   0.821   4.212 -0.1711  0.9557  0.3218
15340TIP3    H167435   3.461   0.887   4.276 -0.6745  1.5969 -0.1141
15340TIP3    H267436   3.343   0.845   4.190  0.5941  1.8519 -2.0112
15341TIP3   OH267437   3.057   0.775  13.895  0.3007 -0.6944  0.0118
15341TIP3    H167438   3.111   0.846  13.931  1.3368 -1.5523  0.1775
15341TIP3    H267439   3.066   0.704  13.959 -1.9701 -0.4718  0.6456
15342TIP3   OH267440   6.407   1.387  15.789  0.1866 -1.0117 -0.5423
15342TIP3    H167441   6.329   1.368  15.738 -1.5012 -1.3012  2.0571
15342TIP3    H267442   6.386   1.466  15.839  0.8840 -2.0697  1.4893
15343TIP3   OH267443   6.021   2.454  17.186 -0.7183 -0.2706  0.9617
15343TIP3    H167444   5.958   2.445  17.257 -0.7892 -0.9211  0.8202
15343TIP3    H267445   6.011   2.374  17.134  1.6686 -1.4023  2.1235
15344TIP3   OH267446   3.990   1.031  14.169 -0.4232  0.6014 -0.0369
15344TIP3    H167447   4.049   1.020  14.244 -1.3045 -0.0329  0.5675
15344TIP3    H267448   4.023   0.971  14.103 -0.4040  0.2274  0.3111
15345TIP3   OH267449   6.599   6.133  10.518 -0.0361  0.5879 -0.6892
15345TIP3    H167450   6.555   6.157  10.599  1.4870 -0.6435  0.5274
15345TIP3    H267451   6.640   6.214  10.488  0.0497  0.8635  0.1702
15346TIP3   OH267452   3.278   1.054  15.256 -0.6061 -0.1128 -0.3369
15346TIP3    H167453   3.372   1.043  15.268 -0.3688  0.7363 -1.3751
15346TIP3    H267454   3.258   1.003  15.177 -0.9460  0.0936 -0.3862
15347TIP3   OH267455   2.093   4.027   0.418  0.0094  0.3599  0.4524
15347TIP3    H167456   2.052   3.965   0.478  2.6962 -0.6175  1.3292
15347TIP3    H267457   2.175   4.052   0.461  0.7526  1.6464 -1.6217
15348TIP3   OH267458   0.577   0.702   3.215 -0.4076  0.0267  0.0435
15348TIP3    H167459   0.623   0.747   3.287 -0.1002 -1.1017  0.5582
15348TIP3    H267460   0.602   0.610   3.225 -0.0297 -0.0809 -1.7689
15349TIP3   OH267461   0.374   5.943   6.324 -0.0140  0.3193  0.2647
15349TIP3    H167462   0.431   5.925   6.249 -1.0850 -0.8861 -0.2749
15349TIP3    H267463   0.430   5.926   6.400  0.5599 -0.1550 -0.2536
15350TIP3   OH267464   6.463   5.654  16.496  0.5660  0.2553  0.3126
15350TIP3    H167465   6.464   5.568  16.455  1.9763  0.5590 -0.3409
15350TIP3    H267466   6.379   5.659  16.542 -0.4328 -0.6234 -1.4080
15351TIP3   OH267467   4.293   0.617  13.549  0.2248 -0.4346 -0.5275
15351TIP3    H167468   4.235   0.572  13.488  0.8706 -1.7070 -0.2156
15351TIP3    H267469   4.292   0.563  13.628  0.5476  0.4166  0.0723
15352TIP3   OH267470   3.587   0.450  10.541  0.3254  0.6954  0.6953
15352TIP3    H167471   3.627   0.424  10.624 -3.9812 -1.4616  2.2320
15352TIP3    H267472   3.627   0.393  10.476 -0.2128 -1.4558  2.1871
15353TIP3   OH267473   5.444   4.252  14.480 -0.0205  0.0759 -0.4435
15353TIP3    H167474   5.365   4.300  14.455  0.9581  2.0963  0.2174
15353TIP3    H267475   5.507   4.273  14.411  0.3911 -0.3378 -0.1909
15354TIP3   OH267476   5.852   3.842  12.173 -0.3080 -0.0617 -0.0795
15354TIP3    H167477   5.874   3.890  12.093 -1.9601  0.9211  0.0345
15354TIP3    H267478   5.859   3.750  12.149 -0.6528  0.2318 -1.3126
15355TIP3   OH267479   0.927   3.188   4.289 -1.1977  0.6327  0.0633
15355TIP3    H167480   0.878   3.240   4.225  0.8045  2.8083  0.2428
15355TIP3    H267481   1.014   3.178   4.250 -0.5107  0.3913  1.6451
15356TIP3   OH267482   2.884   0.567  14.251 -0.3148 -0.2066  0.0679
15356TIP3    H167483   2.838   0.485  14.273  0.3646 -0.5170  0.3310
15356TIP3    H267484   2.816   0.622  14.213 -1.5288  0.3680  2.9530
15357TIP3   OH267485   2.290   3.026  12.596 -0.3669  0.2371 -0.4578
15357TIP3    H167486   2.282   2.941  12.553  0.3886  0.7482 -1.6275
15357TIP3    H267487   2.318   3.006  12.685 -0.8393 -0.7668 -0.5347
15358TIP3   OH267488   0.288   4.851   4.913 -0.2489 -0.5231 -0.2984
15358TIP3    H167489   0.197   4.869   4.936 -0.1165 -1.3826  0.9235
15358TIP3    H267490   0.301   4.759   4.935  1.1336 -0.2164  0.2305
15359TIP3   OH267491   6.192   4.659  16.106  0.5991 -0.3186 -0.4536
15359TIP3    H167492   6.174   4.602  16.180  0.6459  2.3821  1.7039
15359TIP3    H267493   6.106   4.694  16.081  0.8764  0.5854 -0.1582
15360TIP3   OH267494   2.221   1.838  11.643 -0.4492 -0.2169  0.3338
15360TIP3    H167495   2.254   1.780  11.574  0.8247 -1.8833  2.2972
15360TIP3    H267496   2.250   1.925  11.617  0.0304 -0.8172 -1.2098
15361TIP3   OH267497   1.768   4.122  15.702  0.3739 -0.7356 -0.3080
15361TIP3    H167498   1.803   4.120  15.791  0.9600  0.3985 -0.4981
15361TIP3    H267499   1.841   4.091  15.647  0.8522  0.8629 -0.6219
15362TIP3   OH267500   5.655   6.700   4.306  0.8635  0.0906  0.3177
15362TIP3    H167501   5.560   6.712   4.311  0.6158 -0.6320 -1.9582
15362TIP3    H267502   5.689   6.785   4.277  0.7285 -0.1481 -0.5464
15363TIP3   OH267503   2.668   2.262  14.052  0.5111 -0.1567 -0.0396
15363TIP3    H167504   2.657   2.305  13.967  0.6388  1.1000  0.5588
15363TIP3    H267505   2.637   2.173  14.038  0.0454  0.1795 -1.2716
15364TIP3   OH267506   0.233   6.732   6.309  0.4716  0.2958  0.7131
15364TIP3    H167507   0.163   6.740   6.244 -0.9724 -0.7397  2.1022
15364TIP3    H267508   0.246   6.637   6.319 -0.5850  0.3692  3.2192
15365TIP3   OH267509   5.198   1.289  15.378 -0.2961  0.0611 -0.0671
15365TIP3    H167510   5.175   1.368  15.330 -0.3598 -0.7027 -1.3081
15365TIP3    H267511   5.137   1.222  15.346  1.9390 -1.3602 -1.5867
15366TIP3   OH267512   0.691   1.055  14.547  0.1998 -0.2068 -0.0253
15366TIP3    H167513   0.771   1.006  14.531  0.4953 -0.8237  3.0399
15366TIP3    H267514   0.689   1.068  14.642 -3.1729  0.0563 -0.0675
15367TIP3   OH267515   1.341   6.450  16.822  0.5620 -0.0451  0.1387
15367TIP3    H167516   1.380   6.529  16.785 -0.5824 -0.0970 -1.1965
15367TIP3    H267517   1.287   6.481  16.894 -0.0073  0.4204 -0.4789
15368TIP3   OH267518   1.992   2.219  16.282 -0.8804  0.1935  0.2413
15368TIP3    H167519   1.928   2.212  16.210 -0.7127  2.4293 -0.1744
15368TIP3    H267520   1.953   2.284  16.341  1.2481  2.0346 -0.3190
15369TIP3   OH267521   5.785   1.076  16.592 -0.3105 -0.3456  0.1590
15369TIP3    H167522   5.823   1.094  16.678 -0.6869 -1.1516  0.5085
15369TIP3    H267523   5.834   1.000  16.560 -1.5559 -1.3469  0.5833
15370TIP3   OH267524   6.610   3.929  15.687  0.4165  0.0238  0.0586
15370TIP3    H167525   6.664   3.887  15.754  1.5123  0.1339 -0.7458
15370TIP3    H267526   6.536   3.869  15.675  1.5927 -1.3385 -0.5667
15371TIP3   OH267527   0.099   2.444   4.450 -0.2702 -0.4609 -0.1828
15371TIP3    H167528   0.132   2.519   4.400 -1.5723  0.0168 -0.3493
15371TIP3    H267529   0.149   2.369   4.416 -0.4950 -0.0077 -1.5584
15372TIP3   OH267530   5.179   0.516  15.160 -0.2829  0.1314 -0.0380
15372TIP3    H167531   5.221   0.475  15.084 -2.5997 -0.5895 -0.9565
15372TIP3    H267532   5.225   0.479  15.235  1.8016  0.5716 -1.0377
15373TIP3   OH267533   1.580   1.749  10.349  0.4760 -0.2463  0.7648
15373TIP3    H167534   1.613   1.697  10.275  0.5358  0.0907  0.5527
15373TIP3    H267535   1.617   1.836  10.335 -0.0222 -0.0185  0.8513
15374TIP3   OH267536   6.599   1.860   4.787  0.4920  0.0783  0.0707
15374TIP3    H167537   6.519   1.845   4.839  0.1813  1.9120  0.1383
15374TIP3    H267538   6.620   1.952   4.801  1.6870  0.0241 -1.2788
15375TIP3   OH267539   4.475   0.446  15.961  0.0601 -0.2444 -0.1275
15375TIP3    H167540   4.558   0.485  15.933 -0.1050  0.4390  0.3417
15375TIP3    H267541   4.413   0.519  15.961  0.0540 -0.2412  2.0480
15376TIP3   OH267542   3.885   0.219  12.986 -0.0520 -0.2977 -0.4609
15376TIP3    H167543   3.845   0.147  12.937 -0.7815 -0.3649  0.2236
15376TIP3    H267544   3.962   0.180  13.028  0.3225 -0.3466 -1.1823
15377TIP3   OH267545   3.951   2.613  16.345  0.1858  0.3769 -0.4517
15377TIP3    H167546   3.896   2.679  16.387 -0.9867  0.2452 -1.7551
15377TIP3    H267547   3.890   2.546  16.315  1.0968  0.0147 -1.5383
15378TIP3   OH267548   0.115   0.279   4.489 -0.0816  0.1072  0.3951
15378TIP3    H167549   0.150   0.300   4.575  0.4743  0.9774 -0.0398
15378TIP3    H267550   0.191   0.247   4.439  0.1910  2.3700 -0.6744
15379TIP3   OH267551   4.203   5.085   5.625  0.1744 -0.0782 -0.2227
15379TIP3    H167552   4.206   5.047   5.713 -4.4002  3.1556  1.5143
15379TIP3    H267553   4.161   5.017   5.571 -1.6324 -0.2078  1.2901
15380TIP3   OH267554   2.358   2.967   0.975 -0.1819 -0.0135 -0.0370
15380TIP3    H167555   2.359   2.959   1.070  2.5606  1.8356  0.1643
15380TIP3    H267556   2.275   3.008   0.954 -0.5572  0.0872  1.6071
15381TIP3   OH267557   4.384   3.201   6.397 -0.3666 -0.4501  0.1757
15381TIP3    H167558   4.365   3.107   6.396  0.6809 -0.6590 -0.4240
15381TIP3    H267559   4.307   3.240   6.438 -1.3763 -1.4544 -0.7268
15382TIP3   OH267560   4.536   6.460  13.512  0.6984 -0.0228 -0.4275
15382TIP3    H167561   4.483   6.380  13.521  1.1178 -0.0867  1.9723
15382TIP3    H267562   4.619   6.429  13.475  0.7706 -0.6831  0.2575
15383TIP3   OH267563   1.140   0.009   4.709 -0.1354 -0.1735 -0.4371
15383TIP3    H167564   1.216  -0.049   4.711 -0.6609 -0.8392  1.8387
15383TIP3    H267565   1.176   0.097   4.712  0.5627 -0.4808  0.4413
15384TIP3   OH267566   4.121   3.812  12.483  0.7774  0.3798  0.2728
15384TIP3    H167567   4.048   3.751  12.495  0.7052  0.5765  0.8362
15384TIP3    H267568   4.085   3.897  12.506  0.5703  0.8053 -1.5956
15385TIP3   OH267569   2.189   3.586  11.929  0.4318 -0.1357 -0.0352
15385TIP3    H167570   2.266   3.584  11.987 -0.0703 -2.3972  0.6067
15385TIP3    H267571   2.165   3.494  11.918 -0.6896  0.3839 -2.2644
15386TIP3   OH267572   6.489   6.764  16.700 -0.4839  0.0093 -0.5040
15386TIP3    H167573   6.569   6.804  16.665 -0.7505  1.3824  0.4008
15386TIP3    H267574   6.518   6.719  16.779 -0.5041  0.0111 -0.4955
15387TIP3   OH267575   1.161   2.357  15.668  0.5867 -0.1845 -0.7640
15387TIP3    H167576   1.075   2.314  15.663  1.5034 -2.0043 -1.2661
15387TIP3    H267577   1.212   2.300  15.726  1.4626  0.8973 -0.4679
15388TIP3   OH267578   0.072   6.770   0.650  0.1781  0.6788  0.5302
15388TIP3    H167579   0.014   6.798   0.579  1.5496  1.1977 -0.4153
15388TIP3    H267580   0.028   6.694   0.688 -0.0453 -0.3123 -1.6274
15389TIP3   OH267581   1.149   1.844  14.298 -0.1897 -0.0177  0.5737
15389TIP3    H167582   1.070   1.850  14.245  0.1487 -1.5979 -0.1645
15389TIP3    H267583   1.141   1.914  14.362 -0.5546  2.0395 -1.6357
15390TIP3   OH267584   3.933   5.126  14.562  0.5169 -0.5628 -0.7459
15390TIP3    H167585   3.950   5.063  14.632  2.1853  0.6624  0.0017
15390TIP3    H267586   3.955   5.079  14.481 -1.9841 -2.1773 -0.5467
15391TIP3   OH267587   3.513   2.375   5.671  0.2766 -0.4105  0.9299
15391TIP3    H167588   3.533   2.296   5.720  2.8743 -0.3583  0.0177
15391TIP3    H267589   3.556   2.446   5.719  0.3448  0.0515  0.2075
15392TIP3   OH267590   1.160   0.996  15.007  0.3764  0.6061 -0.1631
15392TIP3    H167591   1.155   1.062  14.937 -0.5333  0.0650 -0.6129
15392TIP3    H267592   1.099   0.928  14.979  0.1321  0.3157  1.0916
15393TIP3   OH267593   4.585   6.730  15.449 -0.2126  0.1938  0.3995
15393TIP3    H167594   4.588   6.697  15.539  2.2422  0.6907  0.5420
15393TIP3    H267595   4.630   6.664  15.397  0.2695  0.9053 -0.1085
15394TIP3   OH267596   4.780   3.991  14.382 -0.1281  0.2395 -0.7230
15394TIP3    H167597   4.710   4.008  14.319 -0.4100  0.5891 -0.3220
15394TIP3    H267598   4.819   4.077  14.399  1.2238 -0.1218 -1.8937
15395TIP3   OH267599   5.995   5.198   5.223 -0.3515  0.7963 -0.1608
15395TIP3    H167600   6.089   5.212   5.222 -0.3772  1.3873  1.8524
15395TIP3    H267601   5.980   5.136   5.294 -1.1984 -1.9702 -2.6706
15396TIP3   OH267602   2.657   3.459   6.505  0.1345  0.4508 -0.0346
15396TIP3    H167603   2.683   3.532   6.449  0.7089 -0.1127 -0.5116
15396TIP3    H267604   2.720   3.460   6.577  1.5528 -0.9314 -1.2043
15397TIP3   OH267605   4.273   0.564  16.489 -0.2690  0.3834 -0.0636
15397TIP3    H167606   4.197   0.513  16.514 -0.0706 -0.0824 -0.4008
15397TIP3    H267607   4.274   0.638  16.550 -0.2333 -0.3161  0.7846
15398TIP3   OH267608   6.751   3.748   3.225 -0.0548  0.0311 -0.2373
15398TIP3    H167609   6.842   3.720   3.224  0.0929  0.1661  3.4867
15398TIP3    H267610   6.701   3.667   3.236 -0.1751  0.2559  0.9480
15399TIP3   OH267611   6.282   6.450  16.183 -0.4761  0.2536 -0.6101
15399TIP3    H167612   6.342   6.377  16.168 -0.2942  0.0375  1.1087
15399TIP3    H267613   6.315   6.493  16.262 -0.7892  1.9885 -1.3983
15400TIP3   OH267614   6.318   6.585  13.537  0.0166  0.4645 -0.4075
15400TIP3    H167615   6.292   6.615  13.449  0.5464  1.5339 -0.2068
15400TIP3    H267616   6.299   6.492  13.536 -1.5168  0.7564 -1.1162
15401TIP3   OH267617   3.335   1.417   3.553 -0.0931  0.3983  0.5283
15401TIP3    H167618   3.423   1.441   3.582  0.0535 -0.0579  0.4679
15401TIP3    H267619   3.348   1.339   3.499 -0.6926 -0.5349  1.7151
15402TIP3   OH267620   5.804   4.540  15.413 -0.1729 -0.4535  0.4058
15402TIP3    H167621   5.740   4.563  15.481  0.4093 -1.8581  1.4476
15402TIP3    H267622   5.756   4.487  15.351 -0.9280  1.5471 -0.7714
15403TIP3   OH267623   2.604   1.734   4.190 -0.0724  0.0605 -0.1395
15403TIP3    H167624   2.542   1.749   4.261  0.4116  2.3895 -0.1558
15403TIP3    H267625   2.641   1.821   4.172  2.1076 -1.0244 -1.1129
15404TIP3   OH267626   0.276   4.797  16.644 -0.5880 -0.0199  0.3484
15404TIP3    H167627   0.235   4.741  16.578  1.7045 -0.9742 -0.2992
15404TIP3    H267628   0.245   4.761  16.728 -4.4424  1.9042 -0.1073
15405TIP3   OH267629   5.020   4.522   3.159 -0.4397 -0.1370 -0.6251
15405TIP3    H167630   4.987   4.600   3.203 -1.0017  0.3666 -1.9016
15405TIP3    H267631   5.077   4.556   3.090  1.1231 -0.9377  0.2640
15406TIP3   OH267632   4.125   6.271  16.620  0.2509  0.0719  0.6729
15406TIP3    H167633   4.178   6.214  16.563  0.0679  0.9989 -0.4398
15406TIP3    H267634   4.064   6.211  16.663  0.4446 -0.6654 -0.0590
15407TIP3   OH267635   2.354   1.501  11.905  0.3927 -0.3644  0.1190
15407TIP3    H167636   2.427   1.441  11.896 -1.2161 -2.0230 -2.3947
15407TIP3    H267637   2.297   1.460  11.970 -0.4841 -1.3991 -1.2651
15408TIP3   OH267638   6.657   5.137  17.122 -0.1491 -0.4229 -0.3913
15408TIP3    H167639   6.725   5.142  17.055  0.3657 -0.6292  0.1103
15408TIP3    H267640   6.584   5.093  17.078  0.3311 -0.9217 -0.7002
15409TIP3   OH267641   6.095   3.584  12.102  0.0322 -0.9768  0.2304
15409TIP3    H167642   6.059   3.508  12.057 -1.0506 -0.4953  0.2565
15409TIP3    H267643   6.078   3.657  12.043 -0.9737 -0.4145  1.1891
15410TIP3   OH267644   1.558   1.111   4.804  0.3218  0.5638 -0.1287
15410TIP3    H167645   1.563   1.078   4.714  0.0460  0.0389  0.0486
15410TIP3    H267646   1.648   1.135   4.826  0.2546  1.5715 -0.8718
15411TIP3   OH267647   3.512   6.388   3.161  0.0627  0.6694 -0.6409
15411TIP3    H167648   3.503   6.366   3.254  1.5929 -1.0522 -0.8508
15411TIP3    H267649   3.605   6.409   3.151 -0.4533  2.6666 -1.4382
15412TIP3   OH267650   5.722   0.851   5.256 -0.1032 -0.0288  0.0299
15412TIP3    H167651   5.729   0.916   5.186  1.5418  0.2234  0.4112
15412TIP3    H267652   5.640   0.806   5.238 -0.7196  1.4101 -0.8812
15413TIP3   OH267653   0.396   0.638   0.952  0.2384  0.1633  0.0476
15413TIP3    H167654   0.430   0.616   0.865  1.5810 -0.5529  0.7545
15413TIP3    H267655   0.338   0.566   0.974 -0.0684  0.3228 -0.2291
15414TIP3   OH267656   0.482   6.010   5.434 -0.0859  0.1342  0.2656
15414TIP3    H167657   0.556   6.012   5.496  0.0622 -2.3909  0.2141
15414TIP3    H267658   0.415   5.958   5.479  0.0816 -1.8569 -1.7459
15415TIP3   OH267659   1.914   4.675  13.318 -0.4533  0.0695 -0.3066
15415TIP3    H167660   1.874   4.708  13.237 -1.6157 -1.5780 -0.4416
15415TIP3    H267661   1.993   4.630  13.290  1.1310  2.6660 -0.1223
15416TIP3   OH267662   2.425   4.361  14.891  0.2545 -0.1650 -0.0519
15416TIP3    H167663   2.462   4.432  14.945  1.8970 -1.0324 -0.0117
15416TIP3    H267664   2.386   4.406  14.816  2.6922  0.7008 -0.8408
15417TIP3   OH267665   5.447   4.739  10.791 -0.1846  0.8356  0.5721
15417TIP3    H167666   5.397   4.783  10.723  0.3406  0.6874  0.0901
15417TIP3    H267667   5.537   4.769  10.778 -0.0181  0.5174  0.9663
15418TIP3   OH267668   6.313   3.883   1.213  0.1286 -1.0924 -0.2165
15418TIP3    H167669   6.247   3.871   1.144 -0.5823 -1.1115  0.4628
15418TIP3    H267670   6.265   3.927   1.284  1.0257 -0.4519 -0.0031
15419TIP3   OH267671   3.494   3.834  14.534  0.1401 -0.2762 -0.7563
15419TIP3    H167672   3.513   3.787  14.453  1.9700  0.8223 -1.0091
15419TIP3    H267673   3.576   3.829  14.584  0.0069  1.6383 -0.3052
15420TIP3   OH267674   5.575   6.057   0.129 -0.2062 -0.3284  0.3782
15420TIP3    H167675   5.549   6.130   0.186 -0.6919 -1.4858  1.6910
15420TIP3    H267676   5.649   6.090   0.078 -1.3902  1.5771 -0.1616
15421TIP3   OH267677   4.949   1.077  10.564  0.0526  0.8045 -0.8111
15421TIP3    H167678   5.025   1.022  10.580 -1.0488 -1.0556 -1.7655
15421TIP3    H267679   4.985   1.161  10.537  1.7640  0.3080 -0.1359
15422TIP3   OH267680   2.939   3.203  14.571 -0.3122  0.6136 -0.4253
15422TIP3    H167681   2.947   3.262  14.496  0.5465  0.9572 -0.0651
15422TIP3    H267682   2.852   3.222  14.607  0.5678  2.7225  0.5895
15423TIP3   OH267683   2.218   0.721   2.076  0.0372  0.1004  0.0957
15423TIP3    H167684   2.236   0.668   1.999 -0.0647 -0.4893  0.4788
15423TIP3    H267685   2.129   0.753   2.063  0.1045  0.1918 -0.1422
15424TIP3   OH267686   5.896   1.627  10.798  0.1467 -0.8451 -0.0776
15424TIP3    H167687   5.929   1.706  10.754  3.1231 -2.1090 -0.2333
15424TIP3    H267688   5.865   1.659  10.883 -0.2373  0.7409 -0.7953
15425TIP3   OH267689   0.731   1.906   3.555  0.3120 -0.5713 -0.0509
15425TIP3    H167690   0.743   1.917   3.461 -0.1779  0.5012  0.0031
15425TIP3    H267691   0.672   1.978   3.580  0.8774 -0.5244  1.1613
15426TIP3   OH267692   5.920   4.843  11.890 -0.3563 -0.2036  0.2352
15426TIP3    H167693   5.990   4.833  11.956 -0.9809  0.4439  1.0087
15426TIP3    H267694   5.960   4.812  11.809  1.0744  0.7828  0.5310
15427TIP3   OH267695   0.867   3.471  17.146  0.7042  0.4233 -0.6693
15427TIP3    H167696   0.806   3.459  17.074 -0.6777  0.0749  0.5326
15427TIP3    H267697   0.861   3.564  17.168  0.1428  0.2731 -0.1638
15428TIP3   OH267698   2.696   0.840   1.868  0.0572  0.3050  0.0707
15428TIP3    H167699   2.700   0.790   1.787  1.5577 -1.0104  0.9176
15428TIP3    H267700   2.778   0.889   1.871  0.4837 -0.4497  1.2627
15429TIP3   OH267701   1.237   5.292   4.957 -0.8429 -0.1530  0.1741
15429TIP3    H167702   1.226   5.382   4.988  0.1394  0.2324 -0.5930
15429TIP3    H267703   1.164   5.245   4.997 -0.4688  0.6472  1.8875
15430TIP3   OH267704   1.793   2.867   0.421  0.4851 -0.3985  0.1536
15430TIP3    H167705   1.716   2.814   0.439  0.5912 -0.6368 -0.0850
15430TIP3    H267706   1.760   2.956   0.413 -0.5963 -1.1294 -5.2862
15431TIP3   OH267707   1.514   5.332   6.316 -0.7538 -0.0716 -0.2545
15431TIP3    H167708   1.538   5.422   6.291 -0.1872  0.2546  1.3482
15431TIP3    H267709   1.482   5.341   6.406  0.1735 -1.5984  0.2349
15432TIP3   OH267710   1.837   3.515   0.423  0.0314 -0.0814 -0.4390
15432TIP3    H167711   1.922   3.474   0.410 -0.2301 -0.7105 -0.1923
15432TIP3    H267712   1.845   3.601   0.382  1.3422  0.5437  1.0566
15433TIP3   OH267713   1.132   5.251   0.309  0.0653  0.4869 -0.8577
15433TIP3    H167714   1.213   5.205   0.288 -0.4053 -1.2100  0.9829
15433TIP3    H267715   1.143   5.279   0.400 -2.4598 -2.0500  0.2703
15434TIP3   OH267716   4.691   2.590   3.367 -0.4644 -0.4811  0.1898
15434TIP3    H167717   4.744   2.646   3.310 -1.4762 -0.6463 -0.9265
15434TIP3    H267718   4.712   2.620   3.456  2.0420 -1.0092 -0.1691
15435TIP3   OH267719   3.408   2.689   3.695 -0.0173  0.5627 -0.5966
15435TIP3    H167720   3.396   2.737   3.613 -0.0455 -0.9512 -1.4866
15435TIP3    H267721   3.338   2.720   3.752 -0.7825  0.6748 -1.5869
15436TIP3   OH267722   0.465   3.130   0.678  0.0456  0.6498 -1.2325
15436TIP3    H167723   0.420   3.053   0.711 -0.5886  1.1379 -0.9483
15436TIP3    H267724   0.530   3.095   0.617 -0.6413 -0.0684 -1.5659
15437TIP3   OH267725   1.636   5.082  11.860 -0.0930 -0.1193  0.4683
15437TIP3    H167726   1.562   5.130  11.899 -0.0975  0.3735 -0.1331
15437TIP3    H267727   1.711   5.139  11.875 -0.5570  1.3823 -2.6566
15438TIP3   OH267728   3.245   6.480  16.355  0.3892 -0.2106 -0.0382
15438TIP3    H167729   3.230   6.417  16.284  0.1631  0.1914 -0.3564
15438TIP3    H267730   3.157   6.513  16.376  0.4784 -0.1918  0.3013
15439TIP3   OH267731   5.387   6.423   4.994  0.2176 -0.3008  0.0190
15439TIP3    H167732   5.478   6.439   5.019  0.2086 -2.2499  1.4130
15439TIP3    H267733   5.336   6.468   5.061  0.1262  0.8782 -0.8194
15440TIP3   OH267734   1.987   6.265   5.896 -0.0778 -0.4330  0.0160
15440TIP3    H167735   1.990   6.341   5.953 -0.2831 -1.0349  0.8513
15440TIP3    H267736   1.932   6.292   5.823 -0.6697  0.0159  0.6183
15441TIP3   OH267737   4.658   3.194  12.758 -0.2446  0.5998 -0.7677
15441TIP3    H167738   4.651   3.237  12.843 -1.3298 -0.7878 -0.1368
15441TIP3    H267739   4.644   3.264  12.695 -0.8719  1.3837  0.2179
15442TIP3   OH267740   1.254   6.502   0.327 -0.3409  0.2714 -0.2395
15442TIP3    H167741   1.212   6.586   0.350 -1.0608 -0.5092  1.3797
15442TIP3    H267742   1.199   6.467   0.256 -0.1847  1.0363 -0.7508
15443TIP3   OH267743   3.517   2.612   6.278 -0.6948 -0.0387  0.0983
15443TIP3    H167744   3.598   2.660   6.294  0.5385 -2.3023  0.9356
15443TIP3    H267745   3.540   2.548   6.210 -1.7140 -0.8182  0.4725
15444TIP3   OH267746   2.111   3.617  16.908  0.3863 -0.4433 -0.1927
15444TIP3    H167747   2.158   3.696  16.934 -2.0944  1.7308 -2.0958
15444TIP3    H267748   2.140   3.601  16.818 -0.5858 -0.5533 -0.4908
15445TIP3   OH267749   2.913   5.235  13.933  0.1458  0.8850  0.0412
15445TIP3    H167750   2.978   5.288  13.978  0.5153 -1.1297  1.9872
15445TIP3    H267751   2.853   5.208  14.002 -1.2510  0.5276 -1.2875
15446TIP3   OH267752   2.704   4.480   0.253  0.2704  0.2513 -0.4612
15446TIP3    H167753   2.625   4.511   0.209  0.3060  1.4930  0.3077
15446TIP3    H267754   2.685   4.493   0.346  0.8945 -0.6276 -0.2097
15447TIP3   OH267755   2.390   2.476  13.394 -0.2834  0.2132 -0.0200
15447TIP3    H167756   2.299   2.496  13.371  0.0164  1.6957  0.0553
15447TIP3    H267757   2.386   2.386  13.428 -1.7771  0.4036  0.3632
15448TIP3   OH267758   1.423   4.561   2.140  0.4963  0.0765 -0.7736
15448TIP3    H167759   1.356   4.628   2.151  1.7113  1.1792  0.0833
15448TIP3    H267760   1.493   4.587   2.200  1.3254 -1.5294 -1.0120
15449TIP3   OH267761   6.278   1.279   4.073  0.3083  0.1294  0.1040
15449TIP3    H167762   6.219   1.302   4.002 -0.8142 -2.5850  0.1074
15449TIP3    H267763   6.292   1.361   4.120 -0.8886  1.4554 -1.7835
15450TIP3   OH267764   0.784   0.101   5.919  0.2175 -0.3861  0.5188
15450TIP3    H167765   0.851   0.067   5.859 -2.7597 -3.1453 -1.4108
15450TIP3    H267766   0.734   0.163   5.866 -1.6221 -1.8763  0.4349
15451TIP3   OH267767   4.568   6.522   0.892 -0.1354  0.4583  0.2841
15451TIP3    H167768   4.620   6.599   0.868  4.4638 -2.1191  1.4056
15451TIP3    H267769   4.564   6.524   0.987 -0.1940 -0.5846  0.3066
15452TIP3   OH267770   5.464   5.495   1.445  0.2064 -0.7188 -0.4475
15452TIP3    H167771   5.475   5.407   1.481  2.6377 -0.4282 -0.3925
15452TIP3    H267772   5.443   5.550   1.520  1.9883 -0.6979  0.0627
15453TIP3   OH267773   2.866   5.025   0.477 -0.1656 -0.0264 -0.5672
15453TIP3    H167774   2.821   5.104   0.446 -0.3472 -0.3164 -1.0528
15453TIP3    H267775   2.872   5.036   0.572 -3.4973 -1.1552 -0.1739
15454TIP3   OH267776   4.175   2.264  16.759 -0.2268  0.2819  0.5025
15454TIP3    H167777   4.121   2.212  16.700 -0.5770  1.3976 -0.1776
15454TIP3    H267778   4.262   2.225  16.752 -0.7823 -1.1044  1.0963
15455TIP3   OH267779   6.045   2.776   3.077 -0.3760  0.0942  0.2809
15455TIP3    H167780   6.010   2.809   3.160 -1.8912 -2.4060  0.6810
15455TIP3    H267781   5.980   2.799   3.012  0.2296  0.9650 -0.0235
15456TIP3   OH267782   5.573   3.547   3.813  0.2724 -0.2355  0.0760
15456TIP3    H167783   5.593   3.573   3.724 -0.1931  1.5929  0.4694
15456TIP3    H267784   5.523   3.621   3.849  2.6824  0.2537  2.6684
15457TIP3   OH267785   2.493   5.047  16.679 -0.0144  0.0476 -0.2144
15457TIP3    H167786   2.557   5.060  16.749 -0.9010 -1.0256  0.8435
15457TIP3    H267787   2.537   5.074  16.599  0.9216  1.5835  0.8108
15458TIP3   OH267788   1.386   5.467  13.507  0.1578  0.1776  0.8255
15458TIP3    H167789   1.386   5.451  13.602 -1.2106  0.6792  0.9116
15458TIP3    H267790   1.310   5.421  13.474 -1.5281  3.0369  0.5051
15459TIP3   OH267791   1.910   0.049   1.529 -0.2774 -0.2688 -0.7168
15459TIP3    H167792   1.850   0.059   1.455 -1.4195 -3.6921 -0.3181
15459TIP3    H267793   1.854   0.056   1.606  0.1247 -1.5348 -0.2989
15460TIP3   OH267794   5.415   1.208   4.616 -0.6042 -0.5079  0.5640
15460TIP3    H167795   5.411   1.115   4.594 -2.4029 -0.2237 -0.3616
15460TIP3    H267796   5.496   1.217   4.667 -0.4187 -2.5692  0.6673
15461TIP3   OH267797   6.681   3.103  12.545  0.1229 -0.1594  0.8494
15461TIP3    H167798   6.679   3.045  12.621  2.1713 -0.8789  0.3886
15461TIP3    H267799   6.633   3.056  12.477  1.4681 -1.1841  0.5861
15462TIP3   OH267800   2.054   4.528  12.261  0.2564  0.2706  0.1029
15462TIP3    H167801   2.040   4.457  12.198  2.4985  0.2105 -0.3574
15462TIP3    H267802   1.966   4.554  12.288 -0.7566  0.6118 -3.3983
15463TIP3   OH267803   6.550   2.005  11.227 -0.0475 -0.2321  0.1243
15463TIP3    H167804   6.609   1.941  11.267 -0.5127 -0.8436 -0.1580
15463TIP3    H267805   6.528   1.967  11.142 -1.4854 -0.4018  0.5544
15464TIP3   OH267806   2.489   0.420   6.218 -0.2821  0.5104 -0.4351
15464TIP3    H167807   2.394   0.409   6.207 -0.4974  2.0769 -0.2730
15464TIP3    H267808   2.513   0.355   6.284 -1.5459  1.2444  0.7883
15465TIP3   OH267809   0.720   6.308  12.424  0.5440  0.3620 -0.3092
15465TIP3    H167810   0.809   6.342  12.425  0.0335  1.7585 -1.2470
15465TIP3    H267811   0.701   6.288  12.515  2.3685 -1.4340 -0.2941
15466TIP3   OH267812   2.703   0.229   4.136 -0.2542 -0.0943  0.5247
15466TIP3    H167813   2.797   0.211   4.144 -0.3641 -0.1572  1.8631
15466TIP3    H267814   2.665   0.148   4.103  0.1105 -0.2248  0.4247
15467TIP3   OH267815   1.708   3.405  11.145  0.0840 -0.3777  0.0244
15467TIP3    H167816   1.772   3.358  11.092 -0.2041 -0.5668 -0.1559
15467TIP3    H267817   1.640   3.431  11.083 -0.8420 -1.6328  0.4966
15468TIP3   OH267818   2.947   4.566  12.472  0.0984 -0.3409  0.1753
15468TIP3    H167819   2.893   4.496  12.435  0.4136 -1.1206  1.1557
15468TIP3    H267820   2.947   4.635  12.405 -2.9578  0.1136  0.6091
15469TIP3   OH267821   4.778   5.482   4.835 -0.0926  0.3685  0.7201
15469TIP3    H167822   4.741   5.564   4.868 -0.4753 -0.6502  2.9492
15469TIP3    H267823   4.701   5.427   4.817  0.1935 -0.0456  0.7537
15470TIP3   OH267824   3.967   1.726   2.652 -0.2994 -0.5557 -0.3576
15470TIP3    H167825   3.962   1.736   2.557 -2.9774  1.1024 -0.1005
15470TIP3    H267826   3.886   1.765   2.684  1.1803  0.1299  2.7154
15471TIP3   OH267827   5.933   1.157   4.744 -0.5446  0.2622  0.3897
15471TIP3    H167828   5.998   1.113   4.799 -0.1096 -0.5352 -0.7496
15471TIP3    H267829   5.972   1.242   4.725 -0.7259  0.5684  1.3707
15472TIP3   OH267830   5.712   0.428  17.213  0.5778 -0.3868  0.6267
15472TIP3    H167831   5.800   0.461  17.231  0.4749  0.0536  0.3155
15472TIP3    H267832   5.677   0.487  17.147  0.8781 -1.8965 -0.9006
15473TIP3   OH267833   5.376   1.526  15.834  0.5911 -0.1439  0.0986
15473TIP3    H167834   5.379   1.510  15.929 -0.6276  1.8150  0.4997
15473TIP3    H267835   5.292   1.489  15.807  0.2280  0.6996  0.0666
15474TIP3   OH267836   6.439   0.343  11.527 -0.1163  0.0126  0.1763
15474TIP3    H167837   6.508   0.295  11.482 -1.8227 -1.0194 -1.4291
15474TIP3    H267838   6.478   0.427  11.549  2.8055 -1.8870  2.6685
15475TIP3   OH267839   4.002   2.113   3.355 -0.6139  1.0121  0.1255
15475TIP3    H167840   4.052   2.045   3.311  0.9731  1.6913  0.8636
15475TIP3    H267841   3.918   2.072   3.374  0.9797 -1.3674  2.2494
15476TIP3   OH267842   6.369   5.915  13.871  0.3428  0.3597  0.0264
15476TIP3    H167843   6.391   5.863  13.793  1.3044 -2.5486  2.1346
15476TIP3    H267844   6.274   5.926  13.867  0.2463 -0.7129 -1.0022
15477TIP3   OH267845   5.422   6.130   1.259 -0.2079  0.4500 -0.0594
15477TIP3    H167846   5.378   6.179   1.189 -0.9775  1.1447  0.8866
15477TIP3    H267847   5.422   6.190   1.333  1.3595  0.0306  0.2941
15478TIP3   OH267848   1.442   5.558   3.258 -0.5407  0.0847  0.5266
15478TIP3    H167849   1.427   5.553   3.352  0.9587 -1.2789  0.7174
15478TIP3    H267850   1.534   5.584   3.250 -0.1764 -1.4888 -0.5606
15479TIP3   OH267851   2.684   0.106   6.685 -0.0258 -0.0688  0.1115
15479TIP3    H167852   2.755   0.046   6.704 -1.2032 -1.5138  0.0264
15479TIP3    H267853   2.632   0.108   6.766 -0.9852 -0.5805 -0.4786
15480TIP3   OH267854   1.102   5.208   1.946 -0.0681 -0.2624 -0.1974
15480TIP3    H167855   1.190   5.242   1.959 -0.2953 -0.0248  0.7896
15480TIP3    H267856   1.054   5.281   1.905 -0.3666  0.3870  1.2644
15481TIP3   OH267857   2.564   0.352   2.039  0.7000 -0.3834  0.5155
15481TIP3    H167858   2.587   0.411   1.968  0.5727 -1.4986 -0.4742
15481TIP3    H267859   2.469   0.364   2.051  0.3234 -1.7603 -0.9777
15482TIP3   OH267860   6.423   6.768   5.882 -0.1297  0.0450 -0.5225
15482TIP3    H167861   6.398   6.837   5.820  2.3329  0.0588 -1.5804
15482TIP3    H267862   6.473   6.706   5.830  0.5920 -0.7868  1.1214
15483TIP3   OH267863   0.928   5.171   2.379  0.4293 -0.5084 -0.0827
15483TIP3    H167864   0.892   5.141   2.295  0.7958 -0.9416 -0.0889
15483TIP3    H267865   1.011   5.212   2.356 -0.7698  1.9092 -0.2528
15484TIP3   OH267866   6.367   2.153   1.017 -0.2849  0.2511  0.0099
15484TIP3    H167867   6.418   2.231   0.995 -0.3144 -0.0981 -1.3587
15484TIP3    H267868   6.407   2.083   0.966 -0.0214 -0.7204  1.5252
15485TIP3   OH267869   2.340   3.076   3.872 -0.8068 -0.3633 -0.4220
15485TIP3    H167870   2.365   3.158   3.915 -2.9156 -1.2343  2.6342
15485TIP3    H267871   2.402   3.011   3.905 -2.2631 -0.9857  1.1278
15486TIP3   OH267872   1.064   2.454   0.385  0.7901 -0.0873  0.0260
15486TIP3    H167873   0.996   2.463   0.452  1.4889  1.3465  0.5558
15486TIP3    H267874   1.042   2.520   0.320  1.1576 -0.2555 -0.2701
15487TIP3   OH267875   6.650   3.042   5.609 -0.0091 -0.4908 -0.0822
15487TIP3    H167876   6.591   3.085   5.547 -0.5682  0.6031  1.2050
15487TIP3    H267877   6.726   3.099   5.614 -0.8487  0.4805  1.7986
15488TIP3   OH267878   0.487   3.262   5.490 -0.2773 -0.2419 -0.0659
15488TIP3    H167879   0.545   3.270   5.566  0.8519 -0.0025 -0.9206
15488TIP3    H267880   0.542   3.221   5.423 -0.8729  0.6721 -1.1379
15489TIP3   OH267881   3.928   6.716   0.046 -0.2975 -0.1639 -0.0752
15489TIP3    H167882   4.021   6.697   0.057 -0.4921 -1.5335 -0.5911
15489TIP3    H267883   3.892   6.713   0.135  0.1296  0.2740  0.1145
15490TIP3   OH267884   3.598   5.585  11.465 -0.0080  0.0030 -0.0884
15490TIP3    H167885   3.549   5.565  11.544 -1.9241  0.4580 -1.1257
15490TIP3    H267886   3.579   5.511  11.406  3.1501 -1.4363  0.6248
15491TIP3   OH267887   3.379   5.126  16.080 -0.2642  0.0157 -0.5565
15491TIP3    H167888   3.313   5.184  16.119  0.0805 -1.0535  1.7041
15491TIP3    H267889   3.331   5.045  16.061  0.4051 -0.8920  1.4204
15492TIP3   OH267890   5.358   4.686   0.634  0.2849  0.4484  0.1919
15492TIP3    H167891   5.325   4.747   0.699  0.4808  2.1810 -1.3037
15492TIP3    H267892   5.450   4.672   0.659 -0.1459 -0.4075  1.3749
15493TIP3   OH267893   2.175   3.898   1.611 -0.1894  0.2207 -0.2285
15493TIP3    H167894   2.238   3.893   1.682 -1.8139 -0.9239  1.1721
15493TIP3    H267895   2.108   3.960   1.642 -0.6998  0.0293 -0.9310
15494TIP3   OH267896   5.682   3.262   2.283  0.2093  0.1096  0.3306
15494TIP3    H167897   5.750   3.320   2.316 -0.2404  0.6239  0.3749
15494TIP3    H267898   5.715   3.173   2.299  0.7322  0.3557  0.6161
15495TIP3   OH267899   2.595   5.005   5.308 -0.4508  0.4935  0.8251
15495TIP3    H167900   2.562   5.073   5.250  0.3887 -0.7570 -1.1715
15495TIP3    H267901   2.688   5.026   5.320 -0.0602 -0.5626 -0.2283
15496TIP3   OH267902   4.356   1.678   2.704 -0.1695  0.4214  0.0788
15496TIP3    H167903   4.310   1.732   2.639  1.4126  0.9571 -0.6198
15496TIP3    H267904   4.295   1.607   2.723 -0.6088  0.1565 -2.1175
15497TIP3   OH267905   2.775   0.112   4.465 -0.1120  0.4551  0.5350
15497TIP3    H167906   2.756   0.030   4.422  0.6299  0.0505  0.9550
15497TIP3    H267907   2.778   0.090   4.558 -1.0923  1.1919  0.7464
15498TIP3   OH267908   6.429   4.065  13.980 -0.0296 -0.2737 -0.4394
15498TIP3    H167909   6.473   3.998  13.927  2.9775  0.0394  1.5306
15498TIP3    H267910   6.498   4.126  14.005 -1.7819  0.8429  1.9233
15499TIP3   OH267911   6.447   2.012  17.216  0.4908  0.5323 -0.1607
15499TIP3    H167912   6.497   1.930  17.209 -1.4714 -0.6477 -1.0524
15499TIP3    H267913   6.451   2.049  17.128 -1.5146 -0.4143 -0.6889
15500TIP3   OH267914   2.220   2.071  15.796  0.1191  0.7277  0.0577
15500TIP3    H167915   2.181   2.149  15.838  0.9308  0.4350  1.3987
15500TIP3    H267916   2.238   2.012  15.869  0.2028 -0.4178 -0.8843
15501TIP3   OH267917   3.879   5.635   2.305  0.3024  1.0706 -0.6298
15501TIP3    H167918   3.839   5.690   2.373 -0.9502 -1.7546  1.0192
15501TIP3    H267919   3.958   5.600   2.345 -0.4703 -0.6560 -0.5563
15502TIP3   OH267920   4.958   3.609  13.684 -0.8537 -0.1809 -0.2501
15502TIP3    H167921   4.894   3.587  13.751  0.0992 -0.7475  0.4784
15502TIP3    H267922   5.028   3.545  13.695 -0.6893 -0.2822 -1.7843
15503TIP3   OH267923   3.595   0.816  14.715  0.1029 -0.4308  0.0861
15503TIP3    H167924   3.515   0.855  14.681  0.4837 -0.0469 -0.3780
15503TIP3    H267925   3.580   0.722  14.709 -0.9598 -0.3641  1.5479
15504TIP3   OH267926   4.156   1.863   5.825 -0.0116 -0.1825 -0.4958
15504TIP3    H167927   4.088   1.860   5.892 -0.8006  1.8533 -1.1460
15504TIP3    H267928   4.110   1.845   5.743  0.7043 -1.3540 -0.6450
15505TIP3   OH267929   6.506   1.817   6.530 -0.1719  0.3931 -0.6142
15505TIP3    H167930   6.541   1.743   6.580 -1.7571  0.1355  0.1346
15505TIP3    H267931   6.442   1.778   6.470 -1.4612  1.2220  0.2067
15506TIP3   OH267932   5.803   6.580   2.148 -0.2146  0.3155  0.0633
15506TIP3    H167933   5.832   6.545   2.063 -1.6026  1.3998 -0.8871
15506TIP3    H267934   5.883   6.611   2.190  0.4486  0.0649 -0.9901
15507TIP3   OH267935   3.364   6.468   1.783 -0.5212  0.2146  1.0006
15507TIP3    H167936   3.369   6.518   1.701 -0.2084 -1.6986 -0.1862
15507TIP3    H267937   3.274   6.480   1.813 -0.5289  1.2561  0.5956
15508TIP3   OH267938   3.046   2.914   0.670 -0.1539  0.1176 -0.6565
15508TIP3    H167939   3.068   3.007   0.662  0.6694 -0.1942 -2.0649
15508TIP3    H267940   2.951   2.911   0.662 -0.5377  1.1549  2.5302
15509TIP3   OH267941   6.143   1.009   1.245  0.0770  0.1067  0.0970
15509TIP3    H167942   6.087   1.041   1.174 -1.5070  0.4142  1.4563
15509TIP3    H267943   6.230   1.045   1.224 -0.3886  0.3225 -1.5877
15510TIP3   OH267944   4.084   0.060   4.497  0.6225  0.2594 -0.2382
15510TIP3    H167945   4.165   0.060   4.446  1.2974 -3.2629  0.7088
15510TIP3    H267946   4.108   0.021   4.581 -2.0126 -0.7543  0.1125
15511TIP3   OH267947   1.731   1.495  11.633  0.1915 -0.7496  0.2427
15511TIP3    H167948   1.809   1.494  11.689 -0.2554 -2.5391  0.8463
15511TIP3    H267949   1.691   1.409  11.645 -0.8454 -0.5369 -1.5291
15512TIP3   OH267950   6.771   2.493   0.970 -0.9296 -0.2216  0.0934
15512TIP3    H167951   6.827   2.456   0.902 -0.6193 -2.4094  1.4927
15512TIP3    H267952   6.741   2.577   0.934  3.5749  1.2543 -0.5433
15513TIP3   OH267953   3.625   4.248   0.823  0.3198 -0.3181 -0.9514
15513TIP3    H167954   3.708   4.254   0.775  0.9068 -1.4878 -0.1179
15513TIP3    H267955   3.575   4.182   0.774  0.2125 -0.2192 -0.9751
15514TIP3   OH267956   3.310   4.243  16.707 -0.0052  0.3642  0.3756
15514TIP3    H167957   3.317   4.300  16.631 -1.7400 -1.5244 -1.2512
15514TIP3    H267958   3.372   4.279  16.770  1.6833  1.7928 -2.0254
15515TIP3   OH267959   2.714   4.024  11.615  0.1253  0.4682  0.0426
15515TIP3    H167960   2.791   4.062  11.656  1.9358 -0.9771 -1.9408
15515TIP3    H267961   2.720   3.931  11.634 -0.9917  0.3003 -0.3732
15516TIP3   OH267962   4.163   3.957   2.476  0.2322  0.0231 -0.0452
15516TIP3    H167963   4.221   4.017   2.429  1.4986 -1.0621  0.1129
15516TIP3    H267964   4.212   3.875   2.481 -0.8777 -0.5880  1.0494
15517TIP3   OH267965   3.721   0.413  14.908  0.1009 -0.2111 -0.2884
15517TIP3    H167966   3.634   0.418  14.868  0.4073  1.0520 -0.8344
15517TIP3    H267967   3.733   0.321  14.929 -1.8206 -0.2316  0.7813
15518TIP3   OH267968   3.460   1.444  14.438 -0.2351 -0.2787 -0.7331
15518TIP3    H167969   3.545   1.486  14.426  0.6647 -1.2484  1.9412
15518TIP3    H267970   3.401   1.516  14.459  0.3693  0.1804 -0.5863
15519TIP3   OH267971   3.948   0.006   4.920 -0.6472  0.7542 -0.2813
15519TIP3    H167972   3.901  -0.062   4.968 -0.4973  1.5549  1.0461
15519TIP3    H267973   3.880   0.065   4.887 -0.7008  0.6843 -0.2947
15520TIP3   OH267974   2.343   0.187  12.669  0.5688  0.3764  0.7025
15520TIP3    H167975   2.258   0.230  12.676  0.1090 -0.7783  2.5797
15520TIP3    H267976   2.390   0.213  12.748  0.9446 -1.1483  1.0004
15521TIP3   OH267977   4.034   4.850  12.393  0.2533  0.3264  0.1299
15521TIP3    H167978   3.970   4.827  12.460  0.7845  1.0597  0.8851
15521TIP3    H267979   4.112   4.800  12.417  0.2243  0.0556 -0.3336
15522TIP3   OH267980   0.274   5.561  14.736  0.2591  0.0146 -0.7175
15522TIP3    H167981   0.230   5.592  14.658  2.5281  2.0146 -1.2545
15522TIP3    H267982   0.300   5.640  14.783  3.0968 -1.0715 -0.3513
15523TIP3   OH267983   1.606   4.260   6.426 -0.5469 -0.1737  0.7845
15523TIP3    H167984   1.680   4.216   6.385 -1.7020 -1.4922  0.0844
15523TIP3    H267985   1.580   4.202   6.497 -1.7399 -0.3690  0.1976
15524TIP3   OH267986   4.637   5.844  15.892  0.2151  0.6510  0.6317
15524TIP3    H167987   4.699   5.880  15.955 -0.1546  3.2037 -0.4165
15524TIP3    H267988   4.669   5.755  15.875  3.5277  1.8709  0.2018
15525TIP3   OH267989   4.814   2.489  16.228  0.2953  0.2822  0.0186
15525TIP3    H167990   4.771   2.532  16.302 -1.1524  0.6439 -1.0123
15525TIP3    H267991   4.781   2.399  16.231 -0.2458  0.4592 -0.5426
15526TIP3   OH267992   2.921   5.201  12.848  0.1972  0.2102  0.4625
15526TIP3    H167993   2.857   5.198  12.920 -1.8261 -0.0830 -1.2944
15526TIP3    H267994   2.966   5.284  12.860  1.0824 -0.5946  3.0589
15527TIP3   OH267995   0.337   1.871  17.201  0.1490  0.5087  0.1708
15527TIP3    H167996   0.312   1.898  17.290  0.3263  1.4982 -0.0687
15527TIP3    H267997   0.323   1.950  17.148 -2.3338 -0.7809 -1.1540
15528TIP3   OH267998   3.510   3.007   5.088  0.5211 -0.2184  0.2356
15528TIP3    H167999   3.512   3.071   5.017 -1.0583 -1.1975 -0.7200
15528TIP3    H268000   3.454   3.048   5.155  0.5279 -0.0730  0.1534
15529TIP3   OH268001   1.829   5.129   4.234  0.1277 -0.7047  0.4299
15529TIP3    H168002   1.924   5.117   4.246  0.1072 -1.1163  0.1804
15529TIP3    H268003   1.801   5.174   4.314  1.0748  2.3607 -0.8739
15530TIP3   OH268004   6.381   0.869  11.810 -0.1444  0.4604 -0.8910
15530TIP3    H168005   6.454   0.923  11.781  0.0721  0.0924 -1.0379
15530TIP3    H268006   6.330   0.926  11.867  1.0445  0.2973  0.3766
15531TIP3   OH268007   4.543   1.099   1.513 -0.6507  0.0709  0.0217
15531TIP3    H168008   4.583   1.133   1.433  1.5002  0.4805  1.2325
15531TIP3    H268009   4.468   1.048   1.483  0.1200  0.2339 -2.2445
15532TIP3   OH268010   3.271   4.133   1.388  0.0505 -0.1390 -0.0456
15532TIP3    H168011   3.351   4.169   1.425  0.6038 -1.4942  0.1286
15532TIP3    H268012   3.244   4.196   1.322  1.2174  0.3711 -0.0456
15533TIP3   OH268013   3.992   1.049   1.983 -0.5788  0.2919 -0.0906
15533TIP3    H168014   3.998   0.956   1.960 -1.7031  0.1177  0.3170
15533TIP3    H268015   4.070   1.065   2.037  1.2560  0.3349 -2.6369
15534TIP3   OH268016   1.302   6.710   2.188  0.3706 -0.2880  0.1997
15534TIP3    H168017   1.358   6.785   2.166  1.0438 -0.6386  0.6987
15534TIP3    H268018   1.358   6.634   2.176 -0.2170 -0.6936  0.0175
15535TIP3   OH268019   3.090   5.979   1.836  0.2653 -0.4634  0.0372
15535TIP3    H168020   3.037   5.909   1.799 -1.8946  0.5000  1.2168
15535TIP3    H268021   3.057   6.060   1.796 -1.6862  0.5269  3.4586
15536TIP3   OH268022   2.323   6.280   5.900 -0.0002  0.4248 -0.1665
15536TIP3    H168023   2.319   6.249   5.810  0.9706  1.2455 -0.4975
15536TIP3    H268024   2.234   6.309   5.920 -0.1003  0.7125 -1.0255
15537TIP3   OH268025   5.454   1.774   5.511 -0.7078 -0.0183  0.3325
15537TIP3    H168026   5.456   1.691   5.557  0.5639  1.0539  2.2819
15537TIP3    H268027   5.546   1.794   5.493 -1.2093 -0.6736 -3.1942
15538TIP3   OH268028   1.063   3.533   5.932  0.6522 -0.5257  0.6898
15538TIP3    H168029   0.978   3.568   5.957  0.7319  0.3124 -0.1607
15538TIP3    H268030   1.059   3.440   5.953 -0.2106 -0.3491  1.3183
15539TIP3   OH268031   0.964   6.383   0.616 -0.1692  0.1796  0.1439
15539TIP3    H168032   0.923   6.320   0.675  0.5798 -0.7355 -0.3021
15539TIP3    H268033   0.981   6.460   0.671 -1.6108  0.2312  0.5503
15540TIP3   OH268034   5.039   6.257  13.298 -0.0735 -0.3189 -0.0084
15540TIP3    H168035   5.006   6.194  13.234  1.0673 -0.7195 -0.2153
15540TIP3    H268036   5.086   6.322  13.245 -1.6604  0.9955  0.1493
15541TIP3   OH268037   6.387   3.652   1.431 -0.2268  0.2113  0.5537
15541TIP3    H168038   6.446   3.608   1.491 -0.9505  1.1574  1.9803
15541TIP3    H268039   6.434   3.731   1.404  0.4511 -0.6471 -0.8176
15542TIP3   OH268040   2.996   2.801   5.378 -0.0095 -0.4970  0.1710
15542TIP3    H168041   2.964   2.885   5.412  0.2346 -0.0245 -0.7542
15542TIP3    H268042   2.917   2.747   5.370 -0.3755  0.1583 -0.6799
15543TIP3   OH268043   5.853   4.190   4.723 -0.5600 -0.0316  0.1341
15543TIP3    H168044   5.790   4.174   4.652  0.0062 -1.7222  0.0111
15543TIP3    H268045   5.933   4.218   4.678 -0.7531  0.6765  0.2169
15544TIP3   OH268046   0.051   6.724  16.779 -0.0818  0.4621 -0.3076
15544TIP3    H168047   0.107   6.799  16.801  0.3436  0.6067 -1.7938
15544TIP3    H268048   0.009   6.749  16.697 -0.6272 -0.5600 -0.3440
15545TIP3   OH268049   5.779   2.687  17.191  0.3422 -0.1990  0.1583
15545TIP3    H168050   5.795   2.748  17.119 -0.5472  1.5987  1.4306
15545TIP3    H268051   5.683   2.680  17.195  0.4234 -1.2990  0.3473
15546TIP3   OH268052   1.434   5.258   3.169 -0.7414  0.2423  0.2586
15546TIP3    H168053   1.386   5.337   3.144 -2.6193 -0.7336  0.6898
15546TIP3    H268054   1.484   5.283   3.246  0.0374  1.4736 -0.6149
15547TIP3   OH268055   1.542   6.750   1.189  0.1603  0.3896 -0.2918
15547TIP3    H168056   1.597   6.739   1.266  1.0872  4.4111 -0.2876
15547TIP3    H268057   1.598   6.726   1.115  0.1350 -0.7720  0.0479
15548TIP3   OH268058   3.727   6.620   5.498  0.1822  0.2610 -0.5006
15548TIP3    H168059   3.668   6.588   5.429  1.1076  0.1261 -1.2373
15548TIP3    H268060   3.762   6.702   5.463 -0.8159  1.1815  0.6331
15549TIP3   OH268061   2.022   0.768   4.807 -0.0967 -0.3170 -0.3795
15549TIP3    H168062   1.970   0.772   4.888  2.7864 -0.1434  1.5433
15549TIP3    H268063   1.990   0.841   4.755 -0.9258  0.5571  1.3018
15550TIP3   OH268064   2.519   0.987   2.671 -0.1988 -0.1151 -0.2644
15550TIP3    H168065   2.592   0.996   2.610 -0.4727  1.5367 -0.3703
15550TIP3    H268066   2.469   0.912   2.637 -0.8965  1.3915 -2.6810
15551TIP3   OH268067   2.277   5.401   0.285  0.5149  0.4927 -0.5774
15551TIP3    H168068   2.245   5.488   0.264  0.4998  1.6409  3.7813
15551TIP3    H268069   2.198   5.348   0.296  0.4428  0.6431 -0.3793
15552TIP3   OH268070   6.585   1.415  13.606  0.7817  0.0978  0.4767
15552TIP3    H168071   6.620   1.424  13.694 -1.7581 -0.5793  1.6148
15552TIP3    H268072   6.544   1.500  13.588  0.4265 -0.1030  0.3424
15553TIP3   OH268073   3.623   2.641  16.931  0.2627  0.0298  0.0836
15553TIP3    H168074   3.541   2.690  16.938  0.5231  0.5318 -0.3439
15553TIP3    H268075   3.691   2.705  16.949  0.5274 -0.6067  1.4336
15554TIP3   OH268076   4.953   0.666  15.030 -0.1133 -0.3120 -0.0774
15554TIP3    H168077   4.892   0.637  15.099 -0.5754  1.6258  0.3703
15554TIP3    H268078   5.005   0.589  15.010 -0.1069 -0.9761  2.3271
15555TIP3   OH268079   1.881   0.665   0.051 -0.3726 -0.3014  0.0459
15555TIP3    H168080   1.903   0.650   0.142  0.5821 -0.1827 -0.1642
15555TIP3    H268081   1.934   0.602   0.002 -1.6183 -1.0630 -0.3718
15556TIP3   OH268082   6.043   4.325   2.783 -0.6116 -0.0322 -0.8193
15556TIP3    H168083   6.136   4.326   2.806 -0.6800  0.1606 -0.5569
15556TIP3    H268084   6.031   4.240   2.740 -0.6653 -0.7387  0.5917
15557TIP3   OH268085   5.491   0.804  15.907 -1.2169 -0.2358 -0.0012
15557TIP3    H168086   5.537   0.888  15.916 -1.9812  0.3825 -1.6244
15557TIP3    H268087   5.538   0.745  15.966 -0.7942  1.3780  1.3189
15558TIP3   OH268088   6.040   2.162  15.457 -0.1626  0.1711 -0.1239
15558TIP3    H168089   5.990   2.111  15.393  0.0110  1.8489 -1.6744
15558TIP3    H268090   5.974   2.205  15.511 -0.3666  0.2489 -0.4330
15559TIP3   OH268091   1.577   3.696  15.268 -0.0696 -0.1012 -0.1343
15559TIP3    H168092   1.651   3.741  15.309 -0.4585 -1.3255  1.9541
15559TIP3    H268093   1.616   3.619  15.226  0.1901  0.6609 -1.3371
15560TIP3   OH268094   5.491   4.007   6.202  0.7743 -0.3158 -0.1640
15560TIP3    H168095   5.566   4.023   6.259  0.7082  1.0104 -0.4385
15560TIP3    H268096   5.491   4.080   6.140 -0.6671 -0.3564 -0.2395
15561TIP3   OH268097   3.184   6.463  13.891 -0.1503 -0.0769  0.0304
15561TIP3    H168098   3.235   6.382  13.892  1.0422  0.6610 -0.4059
15561TIP3    H268099   3.207   6.506  13.809 -0.6395  0.8021  0.3425
15562TIP3   OH268100   5.836   1.833   0.872 -0.3969  0.1652 -0.0742
15562TIP3    H168101   5.823   1.824   0.967  1.5070  1.2808  0.3034
15562TIP3    H268102   5.896   1.762   0.850 -1.2480 -0.4206 -0.5680
15563TIP3   OH268103   6.419   3.243  16.265 -0.0688  0.4396  0.3105
15563TIP3    H168104   6.465   3.301  16.205  0.8799 -0.1000  0.5033
15563TIP3    H268105   6.434   3.280  16.352  0.0752  0.2196  0.3796
15564TIP3   OH268106   3.287   5.370   1.279  0.1749  0.2401 -0.0598
15564TIP3    H168107   3.231   5.435   1.321  1.2244  0.5397  0.9126
15564TIP3    H268108   3.323   5.414   1.202 -0.1223  0.3841 -0.1147
15565TIP3   OH268109   2.370   0.521  12.603  0.0556 -0.2051  0.2439
15565TIP3    H168110   2.281   0.490  12.622  0.0753 -1.1380 -1.0834
15565TIP3    H268111   2.402   0.555  12.686 -1.3789 -0.2901  0.8468
15566TIP3   OH268112   0.509   4.464  15.172  0.2541 -0.1126 -0.3895
15566TIP3    H168113   0.471   4.546  15.142 -1.3891 -0.0945  1.6374
15566TIP3    H268114   0.444   4.397  15.147 -0.7051 -0.1988  2.2304
15567TIP3   OH268115   1.094   4.601   0.250 -0.2938 -0.2440 -0.1472
15567TIP3    H168116   1.118   4.513   0.220  0.5979  0.1611 -0.6388
15567TIP3    H268117   1.162   4.624   0.313 -0.7386 -0.0540  0.2663
15568TIP3   OH268118   5.343   1.601   1.253 -0.0845 -0.3859 -0.1386
15568TIP3    H168119   5.295   1.678   1.224 -2.0507  0.0594  3.8220
15568TIP3    H268120   5.435   1.625   1.248 -0.6338  1.7432 -0.1914
15569TIP3   OH268121   3.943   6.441   0.992  0.0436  0.0729 -0.3494
15569TIP3    H168122   4.034   6.450   1.018 -0.0814 -0.6381  0.3158
15569TIP3    H268123   3.911   6.531   0.986  0.5105  0.2900  0.3826
15570TIP3   OH268124   1.047   0.371   6.288 -0.2175 -0.0691  0.2951
15570TIP3    H168125   0.959   0.408   6.298 -0.1012  0.1238  0.6158
15570TIP3    H268126   1.058   0.315   6.364 -0.5463 -1.0798 -0.4008
15571TIP3   OH268127   4.686   1.262  14.668  0.6937  0.2915  1.0586
15571TIP3    H168128   4.725   1.333  14.720  1.3036  0.6345  0.1429
15571TIP3    H268129   4.593   1.263  14.693  0.2352  2.8998 -0.5698
15572TIP3   OH268130   5.216   1.214  16.546  0.2868  0.8247 -0.0208
15572TIP3    H168131   5.159   1.286  16.517  0.6013  1.0004 -0.2088
15572TIP3    H268132   5.169   1.174  16.618  0.4815  1.7339  0.6222
15573TIP3   OH268133   4.425   5.981   1.103  0.0323 -0.0882 -0.1187
15573TIP3    H168134   4.358   5.966   1.036  0.1511  0.8181 -0.4446
15573TIP3    H268135   4.398   6.062   1.146  1.5309  0.9181 -1.0202
15574TIP3   OH268136   3.305   2.081  13.055  0.4755  0.4931  0.0798
15574TIP3    H168137   3.268   2.029  13.126  2.3835  0.0401  0.7823
15574TIP3    H268138   3.266   2.046  12.975 -0.1158 -0.3701  0.7516
15575TIP3   OH268139   2.227   3.116   4.541 -0.1120 -0.6344 -0.6524
15575TIP3    H168140   2.193   3.158   4.619 -0.6347  0.7389 -1.6143
15575TIP3    H268141   2.215   3.022   4.557 -0.4463 -0.3503  0.7916
15576TIP3   OH268142   4.155   3.579   5.226 -0.0852  0.0267  0.4360
15576TIP3    H168143   4.064   3.571   5.200  0.0184  0.3490 -0.0274
15576TIP3    H268144   4.154   3.640   5.299  0.1079  2.4675 -1.5572
15577TIP3   OH268145   5.286   2.599  11.428  0.1733 -0.3861 -0.4457
15577TIP3    H168146   5.260   2.590  11.336 -1.6027  0.4269 -0.0537
15577TIP3    H268147   5.274   2.692  11.447  1.4774 -0.3710  0.3484
15578TIP3   OH268148   1.223   5.309   5.441 -0.3438  0.0767  0.2222
15578TIP3    H168149   1.225   5.399   5.473 -0.7799  0.2060 -0.1135
15578TIP3    H268150   1.132   5.295   5.414  0.0097 -0.0502 -0.9214
15579TIP3   OH268151   0.127   5.983  15.856  0.8277  0.0559 -0.0219
15579TIP3    H168152   0.142   5.898  15.896 -0.7556 -0.6572 -0.8908
15579TIP3    H268153   0.199   5.992  15.792  0.0398 -1.4254 -1.1658
15580TIP3   OH268154   0.581   6.735  13.870 -0.0438 -0.2788  0.0533
15580TIP3    H168155   0.594   6.647  13.907 -1.2902  0.1953  1.7198
15580TIP3    H268156   0.532   6.782  13.938  2.8473  2.5293  0.3410
15581TIP3   OH268157   5.749   4.188   1.715 -0.4461  0.4595 -0.3245
15581TIP3    H168158   5.809   4.114   1.728 -1.0182 -0.1871 -1.3526
15581TIP3    H268159   5.664   4.156   1.747 -0.5076  0.9821  0.0478
15582TIP3   OH268160   2.072   2.016  12.692  0.1308  0.0191 -0.4211
15582TIP3    H168161   1.993   2.021  12.745  1.6682  0.4426  1.8843
15582TIP3    H268162   2.086   2.106  12.661  0.7593  0.3434  0.7719
15583TIP3   OH268163   3.190   5.719  17.218  0.6204 -0.4214 -0.1950
15583TIP3    H168164   3.247   5.759  17.152 -1.5519 -0.2612 -2.0441
15583TIP3    H268165   3.226   5.631  17.231  2.0087  0.1072 -0.4167
15584TIP3   OH268166   1.457   3.097   4.093  0.2725 -0.1510  0.0589
15584TIP3    H168167   1.495   3.035   4.156  0.1823  0.2145  0.4702
15584TIP3    H268168   1.396   3.044   4.042 -1.3973  0.0247  1.7947
15585TIP3   OH268169   4.705   0.474  13.037  0.1094  0.1807  0.5589
15585TIP3    H168170   4.701   0.499  13.130 -0.6489  0.6948  0.3909
15585TIP3    H268171   4.645   0.534  12.993  0.3131 -0.1935 -0.2405
15586TIP3   OH268172   3.233   6.640  13.671  0.3167  0.3784  0.5594
15586TIP3    H168173   3.157   6.697  13.684  0.7066  1.4174 -1.5165
15586TIP3    H268174   3.308   6.691  13.703  0.6112  0.8692 -0.8964
15587TIP3   OH268175   0.741   2.065  16.557 -0.4777 -0.1741  0.3176
15587TIP3    H168176   0.652   2.099  16.545 -0.3045 -0.1860 -1.0068
15587TIP3    H268177   0.781   2.125  16.619 -0.4366  1.5881 -1.3842
15588TIP3   OH268178   0.372   4.403   0.012  0.0850 -0.3471 -0.2208
15588TIP3    H168179   0.352   4.492  -0.017 -1.1247 -0.8518 -0.9839
15588TIP3    H268180   0.446   4.413   0.072 -0.8355  1.2971  0.6637
15589TIP3   OH268181   3.662   0.059   4.193  0.3350 -0.5378 -0.4795
15589TIP3    H168182   3.736   0.120   4.186  0.7251 -1.0942 -1.3385
15589TIP3    H268183   3.599   0.090   4.129  0.1995 -0.5843 -0.3681
15590TIP3   OH268184   4.517   4.513  13.772  0.0857 -0.1205 -0.2496
15590TIP3    H168185   4.611   4.497  13.761 -0.0419 -1.7885  1.0966
15590TIP3    H268186   4.512   4.579  13.840  0.1859 -2.1485  1.7627
15591TIP3   OH268187   3.900   6.450  10.413 -0.1046  0.1118 -0.6185
15591TIP3    H168188   3.940   6.487  10.334  1.2800 -1.8265 -0.8427
15591TIP3    H268189   3.875   6.361  10.388  0.5446 -0.5913  1.1943
15592TIP3   OH268190   1.520   5.196  13.177  0.0915 -0.4475  0.2729
15592TIP3    H168191   1.508   5.288  13.203  2.5078 -0.0337  0.0624
15592TIP3    H268192   1.467   5.187  13.097 -0.2878  0.7208  0.3766
15593TIP3   OH268193   2.695   0.815  12.620  0.1561 -0.2055 -0.4148
15593TIP3    H168194   2.754   0.741  12.610 -0.4384 -0.7546  0.1246
15593TIP3    H268195   2.702   0.862  12.537  2.9880  0.9622  0.4339
15594TIP3   OH268196   5.181   3.097  16.129  0.2484  0.1873  0.1178
15594TIP3    H168197   5.160   3.008  16.101 -1.2613  1.2604 -2.3682
15594TIP3    H268198   5.229   3.134  16.055  0.1130  1.7053  0.7795
15595TIP3   OH268199   6.373   2.110  13.489 -0.1448  0.5092 -0.4018
15595TIP3    H168200   6.390   2.066  13.572  0.2232 -1.0241 -1.2827
15595TIP3    H268201   6.414   2.054  13.423 -3.1736  0.0264 -1.9404
15596TIP3   OH268202   0.892   3.355   0.577  0.7231 -0.3632  0.0368
15596TIP3    H168203   0.880   3.339   0.484 -2.3542  0.0737  0.3041
15596TIP3    H268204   0.803   3.364   0.611  1.8728  2.8272  2.4213
15597TIP3   OH268205   5.082   3.691   1.050  0.4383  0.3583 -0.0452
15597TIP3    H168206   4.986   3.686   1.047  0.4232 -0.6543  1.7874
15597TIP3    H268207   5.111   3.600   1.045  1.3911  0.7657 -2.4027
15598TIP3   OH268208   1.152   6.218  16.419  0.3616 -0.1404 -0.4525
15598TIP3    H168209   1.155   6.254  16.507 -0.4025  0.4430 -0.6522
15598TIP3    H268210   1.152   6.123  16.431 -1.4067 -0.0785  0.2637
15599TIP3   OH268211   6.206   1.470  12.818  0.3947  0.4506  0.0223
15599TIP3    H168212   6.207   1.563  12.841  2.3907  0.2227  0.9369
15599TIP3    H268213   6.282   1.458  12.761  0.5185 -0.7479  0.4167
15600TIP3   OH268214   5.943   0.360   2.888 -0.4943  0.1006  0.0036
15600TIP3    H168215   6.011   0.309   2.845  1.0720  1.5136  0.7697
15600TIP3    H268216   5.983   0.391   2.969 -2.4104  0.0436  0.9990
15601TIP3   OH268217   0.785   5.809   5.888 -0.2712  0.1979 -0.0256
15601TIP3    H168218   0.794   5.800   5.793  3.2173 -2.0560  0.4035
15601TIP3    H268219   0.782   5.718   5.920 -0.0960  0.9218  2.1227
15602TIP3   OH268220   6.686   3.635  10.834 -0.5258 -0.9427  0.0587
15602TIP3    H168221   6.630   3.690  10.779 -0.5840 -1.6371 -0.5777
15602TIP3    H268222   6.763   3.619  10.780 -0.0317 -0.5902  0.6580
15603TIP3   OH268223   4.893   5.601   3.146 -0.0202 -0.1828 -0.6593
15603TIP3    H168224   4.866   5.554   3.067  0.2484  0.6524 -1.2580
15603TIP3    H268225   4.916   5.533   3.208  1.9007 -0.8336 -2.0538
15604TIP3   OH268226   4.714   3.505  14.679 -0.1502  0.2412  0.2020
15604TIP3    H168227   4.756   3.419  14.673 -1.0963 -0.1632 -0.8054
15604TIP3    H268228   4.708   3.536  14.589  0.7794  1.6791  0.6083
15605TIP3   OH268229   2.139   5.795  14.839  0.3928 -0.4002  0.5242
15605TIP3    H168230   2.175   5.828  14.921  1.5400 -0.6770  0.1306
15605TIP3    H268231   2.178   5.709  14.828  0.9645  0.0100 -0.7770
15606TIP3   OH268232   1.495   4.824   6.073  0.3539  0.0093 -0.3862
15606TIP3    H168233   1.437   4.887   6.031  1.2871  0.5564 -0.8674
15606TIP3    H268234   1.487   4.843   6.166 -0.2545  0.0659 -0.4468
15607TIP3   OH268235   3.241   3.385  11.250  0.1366 -0.1853  0.1955
15607TIP3    H168236   3.193   3.303  11.253  0.0083 -0.1657 -1.2370
15607TIP3    H268237   3.175   3.451  11.230  0.5097  0.0378 -0.3151
15608TIP3   OH268238   4.929   2.162   1.797 -0.3757 -0.2328  0.5174
15608TIP3    H168239   5.016   2.184   1.764  0.2861 -1.5013  1.3671
15608TIP3    H268240   4.873   2.233   1.767  0.3318 -0.9516 -2.6521
15609TIP3   OH268241   0.835   5.663  16.763  0.1223  0.0492 -0.2270
15609TIP3    H168242   0.773   5.637  16.694 -0.6067  0.8793  0.1068
15609TIP3    H268243   0.815   5.606  16.837  1.4060 -1.3515 -0.9476
15610TIP3   OH268244   3.443   0.476   5.446  0.3084 -0.1263 -0.4614
15610TIP3    H168245   3.349   0.484   5.430  0.3852  3.5927  0.3657
15610TIP3    H268246   3.483   0.474   5.359 -0.4266  0.8570 -0.8341
15611TIP3   OH268247   1.051   3.944   0.349 -0.5360  0.3736  0.9017
15611TIP3    H168248   0.987   3.874   0.361 -0.8563  0.5903  0.4826
15611TIP3    H268249   1.034   3.977   0.260 -0.9516  1.5406  1.3949
15612TIP3   OH268250   3.822   4.488  11.535 -0.5822 -0.0247 -0.0723
15612TIP3    H168251   3.869   4.571  11.524  0.4282 -0.6047 -0.1749
15612TIP3    H268252   3.734   4.514  11.563 -0.3238  1.0896 -0.2686
15613TIP3   OH268253   3.440   5.764   0.686 -0.5664  0.4576 -0.1146
15613TIP3    H168254   3.442   5.713   0.605 -1.4160 -1.0154  0.7631
15613TIP3    H268255   3.366   5.824   0.674 -3.2884 -2.4952  1.1185
15614TIP3   OH268256   0.080   4.196   2.674 -0.1352  0.1443  0.7794
15614TIP3    H168257   0.175   4.212   2.673 -0.2000  0.6753  1.7591
15614TIP3    H268258   0.044   4.264   2.617  0.0897 -0.1650  0.2674
15615TIP3   OH268259   6.641   3.171   0.705 -0.3246  0.6728  0.7076
15615TIP3    H168260   6.566   3.123   0.668  0.9858  0.4767 -1.7741
15615TIP3    H268261   6.672   3.115   0.776  0.5665 -1.7308 -1.5005
15616TIP3   OH268262   5.654   3.955   0.207  0.3332 -0.2847  0.1930
15616TIP3    H168263   5.738   3.986   0.173 -0.4001 -0.0186 -1.4507
15616TIP3    H268264   5.630   3.883   0.148 -0.6682 -0.2375  0.5370
15617TIP3   OH268265   2.397   5.238  11.958  0.6030  0.0852 -0.0259
15617TIP3    H168266   2.425   5.186  12.033 -1.0482 -1.2402 -0.2919
15617TIP3    H268267   2.342   5.178  11.906  2.1817  0.7906 -2.6003
15618TIP3   OH268268   5.015   6.482   3.916 -0.1461  0.3808 -0.8414
15618TIP3    H168269   5.017   6.416   3.846  0.3308  0.5382 -0.9718
15618TIP3    H268270   4.923   6.507   3.921 -0.3280 -0.2673 -0.8203
15619TIP3   OH268271   0.474   4.968  16.647  0.2013  0.1771 -0.1845
15619TIP3    H168272   0.411   4.896  16.649  2.2490 -1.6704  0.5134
15619TIP3    H268273   0.483   4.990  16.555  0.1025 -0.9877 -0.4796
15620TIP3   OH268274   3.347   3.081  13.404 -0.2448 -0.3931  0.5406
15620TIP3    H168275   3.356   3.175  13.389 -0.4537 -0.2692  1.1835
15620TIP3    H268276   3.305   3.074  13.489  0.4644 -1.0861  0.8397
15621TIP3   OH268277   5.505   0.704   5.199  0.0734 -0.3402 -0.4709
15621TIP3    H168278   5.445   0.660   5.259  1.7060 -2.0946 -0.0876
15621TIP3    H268279   5.579   0.644   5.189 -0.0420 -0.0356 -4.0892
15622TIP3   OH268280   6.739   0.993   4.360 -0.2658  0.3919  0.5091
15622TIP3    H168281   6.671   1.052   4.327  1.4563  1.1397 -1.8981
15622TIP3    H268282   6.771   1.035   4.439 -1.0058  1.2143  0.3821
15623TIP3   OH268283   6.007   4.697   0.596 -0.2918  0.2197 -0.6267
15623TIP3    H168284   6.002   4.664   0.686  0.9859  0.7645 -0.3460
15623TIP3    H268285   5.934   4.758   0.589 -0.6510 -0.1440 -0.0906
15624TIP3   OH268286   3.520   1.413  15.742 -0.5785  1.3688  0.7341
15624TIP3    H168287   3.541   1.462  15.821  0.0727  0.4464  1.1347
15624TIP3    H268288   3.595   1.428  15.684  1.1444 -1.6610  2.0414
15625TIP3   OH268289   4.714   4.265   5.556  0.3636 -0.8412  0.2662
15625TIP3    H168290   4.704   4.323   5.480  1.7138 -2.2822 -1.0459
15625TIP3    H268291   4.671   4.312   5.628 -2.8019 -0.3332 -1.8299
15626TIP3   OH268292   4.220   6.205  13.919  0.1555  0.1851  0.0225
15626TIP3    H168293   4.292   6.252  13.961  0.7669 -2.1175  1.6476
15626TIP3    H268294   4.155   6.195  13.988 -0.4088 -0.4639 -0.6006
15627TIP3   OH268295   1.264   4.308  10.740  0.0068 -0.0821  0.6206
15627TIP3    H168296   1.216   4.225  10.740 -1.2531  0.6198 -1.7334
15627TIP3    H268297   1.268   4.333  10.648  0.1218  2.6293  1.3382
15628TIP3   OH268298   1.993   1.231   0.900  0.4320  0.7332  0.3766
15628TIP3    H168299   2.050   1.285   0.846  1.5923 -0.4280  0.4154
15628TIP3    H268300   2.051   1.195   0.967 -0.3149 -0.5738  0.3339
15629TIP3   OH268301   0.398   2.330   0.904 -0.2181 -0.4705 -0.1894
15629TIP3    H168302   0.361   2.330   0.992  1.3196  2.6241  0.5326
15629TIP3    H268303   0.493   2.326   0.918  0.1036  1.4393 -1.6128
15630TIP3   OH268304   5.814   0.113   4.941  0.9048  0.3636 -0.4329
15630TIP3    H168305   5.728   0.135   4.905  0.4768 -0.2755  0.1992
15630TIP3    H268306   5.851   0.051   4.878  0.3274 -0.4335  0.0092
15631TIP3   OH268307   0.430   1.632  16.134 -0.5272  0.3787 -0.0893
15631TIP3    H168308   0.441   1.588  16.218  0.5488 -0.5289 -0.6928
15631TIP3    H268309   0.434   1.562  16.069  0.1531  1.2457 -0.9992
15632TIP3   OH268310   6.226   6.249  14.662 -0.2203 -0.0287  0.4534
15632TIP3    H168311   6.189   6.226  14.577 -0.1209  0.1589  0.3581
15632TIP3    H268312   6.151   6.272  14.716 -0.1951  1.1317  0.0246
15633TIP3   OH268313   4.087   3.332   2.921  0.0242  0.2331 -0.0439
15633TIP3    H168314   4.066   3.260   2.862 -1.0330 -1.0320  1.8149
15633TIP3    H268315   4.167   3.304   2.965  1.7983  1.9366 -2.0456
15634TIP3   OH268316   6.525   2.984   2.588  0.0577 -0.1129 -0.1184
15634TIP3    H168317   6.549   3.072   2.560 -2.1186  0.2901 -0.8426
15634TIP3    H268318   6.597   2.928   2.559  1.1225  1.3223 -0.2856
15635TIP3   OH268319   4.966   2.186  13.006  0.2590 -0.4026  0.0851
15635TIP3    H168320   4.935   2.249  13.072 -0.7513 -2.8092  1.9807
15635TIP3    H268321   4.916   2.208  12.927  0.7672  1.8967  0.3623
15636TIP3   OH268322   4.674   3.913   0.580  0.0695 -0.3920  0.2295
15636TIP3    H168323   4.722   3.870   0.509 -0.2666 -0.2065 -0.1127
15636TIP3    H268324   4.719   3.997   0.591 -0.9231  0.3002 -0.9197
15637TIP3   OH268325   5.083   4.216  14.031  0.1870  0.2016  0.2276
15637TIP3    H168326   5.045   4.186  14.113  0.2320  0.8600  0.4877
15637TIP3    H268327   5.084   4.138  13.975  2.5224 -0.8742  1.7005
15638TIP3   OH268328   1.189   2.374  15.149 -0.1026 -0.0345 -0.3695
15638TIP3    H168329   1.229   2.412  15.071 -1.2565 -0.7429 -1.3369
15638TIP3    H268330   1.254   2.313  15.183  0.4109  0.2823 -0.7884
15639TIP3   OH268331   3.110   1.552  14.205 -0.0295  0.4042 -0.6335
15639TIP3    H168332   3.150   1.472  14.238 -2.4920 -0.1220  1.2693
15639TIP3    H268333   3.100   1.539  14.111 -0.1767 -1.4341 -0.3665
15640TIP3   OH268334   0.930   2.485  12.446  0.7683 -0.3440 -0.1135
15640TIP3    H168335   0.905   2.521  12.361 -0.4334 -1.7021 -0.3523
15640TIP3    H268336   1.006   2.429  12.427  0.2737 -0.9351 -0.3517
15641TIP3   OH268337   0.057   4.865   2.308 -0.3335  0.2454  0.3780
15641TIP3    H168338   0.033   4.773   2.305  2.7344 -0.5755 -0.6854
15641TIP3    H268339   0.074   4.889   2.216 -1.0399  1.8684  0.6447
15642TIP3   OH268340   2.811   6.291  15.677  0.8018 -0.1688 -0.1171
15642TIP3    H168341   2.808   6.235  15.599  1.0589  0.9838 -0.9883
15642TIP3    H268342   2.740   6.354  15.664  0.7719 -0.0435  0.6333
15643TIP3   OH268343   0.371   4.907   5.301 -0.9779  0.2814  0.1547
15643TIP3    H168344   0.396   4.958   5.378  2.1460 -0.3653 -0.3855
15643TIP3    H268345   0.367   4.972   5.230  0.6167  0.1668 -0.0459
15644TIP3   OH268346   4.628   0.415  10.746 -0.2688  0.0537  0.0070
15644TIP3    H168347   4.717   0.384  10.762 -0.6526 -0.5619  1.0010
15644TIP3    H268348   4.627   0.439  10.653  1.1935  0.9644  0.2102
15645TIP3   OH268349   1.494   4.401  12.057 -0.2581 -0.6007 -0.0576
15645TIP3    H168350   1.512   4.356  11.975 -1.7763 -0.7409 -0.3318
15645TIP3    H268351   1.525   4.490  12.044  1.7014 -1.2415  0.0778
15646TIP3   OH268352   0.341   2.799   4.644  0.3989  0.2891  0.0884
15646TIP3    H168353   0.361   2.889   4.669 -0.7641  0.3152  0.9784
15646TIP3    H268354   0.423   2.752   4.655  0.4710  0.7893  1.7657
15647TIP3   OH268355   4.474   1.767  12.168  0.0458  0.3149  0.4126
15647TIP3    H168356   4.409   1.823  12.211 -0.3627  0.6935 -0.6580
15647TIP3    H268357   4.451   1.772  12.075  0.8118 -0.6003  0.1668
15648TIP3   OH268358   3.070   6.092  15.577  0.1063  0.0245  0.2307
15648TIP3    H168359   3.077   6.027  15.647  0.6896  0.3940  0.5233
15648TIP3    H268360   3.101   6.173  15.617 -1.3786  0.6675  0.1062
15649TIP3   OH268361   2.703   1.823  16.364 -0.6021  0.2637 -0.0825
15649TIP3    H168362   2.722   1.729  16.372  0.1811  0.2656 -1.7150
15649TIP3    H268363   2.785   1.866  16.387 -0.8411  0.5453  0.2546
15650TIP3   OH268364   5.835   4.094   0.019  0.0627  0.2826  0.2617
15650TIP3    H168365   5.922   4.057   0.032 -0.3607 -0.8088  0.0251
15650TIP3    H268366   5.833   4.117  -0.074  0.4318  1.2015  0.4717
15651TIP3   OH268367   2.141   1.624  16.064 -0.1274  0.0133  0.0961
15651TIP3    H168368   2.080   1.615  16.138  0.0036 -0.6325  0.1202
15651TIP3    H268369   2.145   1.537  16.025  1.7874 -0.2655  0.8796
15652TIP3   OH268370   1.948   4.335   5.964 -0.4123  0.2841 -0.4426
15652TIP3    H168371   2.008   4.409   5.968 -2.0802  1.6418 -0.2123
15652TIP3    H268372   1.891   4.345   6.041 -1.4916 -0.4824 -1.1169
15653TIP3   OH268373   6.636   4.044   5.596  0.2996 -0.2123  0.2055
15653TIP3    H168374   6.698   4.111   5.566  0.0615 -0.2014 -0.2680
15653TIP3    H268375   6.650   4.040   5.691 -0.1869  1.0296  0.3439
15654TIP3   OH268376   6.723   1.343   6.180  0.1790 -0.3768  0.4364
15654TIP3    H168377   6.766   1.304   6.256 -0.3756  0.1934  1.0540
15654TIP3    H268378   6.760   1.431   6.173  0.3400 -0.4830 -0.0428
15655TIP3   OH268379   2.516   4.275   4.597  0.2317  0.4307 -0.1064
15655TIP3    H168380   2.457   4.339   4.636  0.7025  0.3719  0.7043
15655TIP3    H268381   2.565   4.326   4.532 -0.1183  0.6682 -0.1875
15656TIP3   OH268382   3.228   5.938  10.549  0.4039 -0.4743  0.4940
15656TIP3    H168383   3.161   5.870  10.550 -3.0589  2.7708 -0.8399
15656TIP3    H268384   3.194   6.007  10.607  2.4991  1.3083 -0.3021
15657TIP3   OH268385   1.515   3.003   5.195 -0.4012  0.3713 -0.0089
15657TIP3    H168386   1.601   2.990   5.235 -0.8394 -3.5719 -0.0595
15657TIP3    H268387   1.461   3.039   5.265  0.6195  0.3129  0.8204
15658TIP3   OH268388   5.489   0.877   2.967 -0.4527  0.0235  0.8433
15658TIP3    H168389   5.531   0.916   2.890 -0.7074  0.3605  0.8703
15658TIP3    H268390   5.395   0.888   2.950 -0.5270 -0.6108  0.8400
15659TIP3   OH268391   3.129   0.204  12.220 -0.5845 -0.2553  0.6066
15659TIP3    H168392   3.038   0.220  12.196 -1.8499 -1.8594  4.0858
15659TIP3    H268393   3.135   0.231  12.311  2.2245 -0.9591  0.6751
15660TIP3   OH268394   5.963   6.209   2.852 -0.1429  0.5673  0.2093
15660TIP3    H168395   5.971   6.175   2.942  0.9300 -0.1477 -0.1391
15660TIP3    H268396   5.898   6.278   2.858  0.0340  0.6333  1.5819
15661TIP3   OH268397   5.308   5.432   0.552  0.2619 -0.3972 -0.5442
15661TIP3    H168398   5.398   5.427   0.584  0.1643  2.6452  0.3845
15661TIP3    H268399   5.255   5.419   0.631 -0.1110 -1.8223 -1.0276
15662TIP3   OH268400   2.372   0.653  16.886  0.3730 -0.1351  0.0208
15662TIP3    H168401   2.398   0.586  16.822 -1.3175  0.7937 -1.6987
15662TIP3    H268402   2.290   0.621  16.922 -1.2964  1.7275 -1.9931
15663TIP3   OH268403   3.838   2.044  11.618 -0.5480 -0.1576  0.1973
15663TIP3    H168404   3.837   1.983  11.544  3.0111  1.7590 -1.5267
15663TIP3    H268405   3.774   2.111  11.594 -1.4095 -0.9650  0.1765
15664TIP3   OH268406   0.859   2.400   3.835 -0.5916  0.4594 -0.1608
15664TIP3    H168407   0.859   2.314   3.794  0.3985  0.3272  0.1046
15664TIP3    H268408   0.809   2.455   3.774  0.9218  0.2788 -1.6244
15665TIP3   OH268409   3.884   6.008  11.498  0.1123 -0.3225 -0.0553
15665TIP3    H168410   3.926   6.025  11.582 -0.4248  0.6597  0.0205
15665TIP3    H268411   3.860   5.915  11.501  0.5158 -0.4028  0.6811
15666TIP3   OH268412   2.178   6.164   4.879 -0.0075  0.4450 -0.2439
15666TIP3    H168413   2.094   6.197   4.845  0.1452  1.8575  0.7080
15666TIP3    H268414   2.210   6.234   4.936  2.1152  0.1629 -1.0407
15667TIP3   OH268415   1.422   3.251  12.834 -0.0638 -0.2766  0.2376
15667TIP3    H168416   1.399   3.344  12.840  1.2830  0.1487 -0.7426
15667TIP3    H268417   1.378   3.210  12.908  0.3438  1.3632  1.4277
15668TIP3   OH268418   2.720   3.606  11.984  0.5012  0.2167  0.1716
15668TIP3    H168419   2.648   3.660  11.952  1.2174  0.6698 -0.6870
15668TIP3    H268420   2.694   3.516  11.964  0.4551  0.4246 -0.6966
15669TIP3   OH268421   3.155   6.634   6.282 -0.2690  0.0226  0.6296
15669TIP3    H168422   3.196   6.685   6.351 -1.8905  0.6180  1.1624
15669TIP3    H268423   3.062   6.655   6.288 -0.8655 -2.4326  0.3876
15670TIP3   OH268424   4.337   2.557  15.025 -0.2153  0.0918 -0.3916
15670TIP3    H168425   4.296   2.494  15.083  0.3103  0.3096  0.2261
15670TIP3    H268426   4.289   2.639  15.040  1.5096  0.7957  1.6177
15671TIP3   OH268427   1.931   3.352   2.120  0.2762 -0.4895  0.5542
15671TIP3    H168428   1.840   3.370   2.142  0.2230  0.5333 -0.4635
15671TIP3    H268429   1.973   3.437   2.121  1.0698 -0.8749  0.3302
15672TIP3   OH268430   0.565   4.887  13.686 -0.4498  0.2557 -0.7360
15672TIP3    H168431   0.513   4.809  13.703 -0.9671  0.8717  0.5877
15672TIP3    H268432   0.656   4.857  13.692 -0.6460 -0.4102 -1.0606
15673TIP3   OH268433   2.344   1.037  14.817  0.5867  0.0321  0.2245
15673TIP3    H168434   2.370   1.129  14.814  1.3961 -0.1973  0.0682
15673TIP3    H268435   2.426   0.989  14.827  0.1851 -0.6802  0.1451
15674TIP3   OH268436   4.865   6.622  14.185 -0.2854  0.9593  0.3612
15674TIP3    H168437   4.941   6.658  14.139 -1.2991  2.6008 -0.0435
15674TIP3    H268438   4.818   6.698  14.217 -1.0161 -0.1009  1.8451
15675TIP3   OH268439   5.423   3.636  12.472 -0.3201 -0.0231 -0.5705
15675TIP3    H168440   5.513   3.602  12.473  0.0840  1.0412  2.4697
15675TIP3    H268441   5.368   3.559  12.462  0.9439 -0.5129 -4.7156
15676TIP3   OH268442   5.880   1.696   1.476  0.4492 -0.1122 -0.3969
15676TIP3    H168443   5.833   1.765   1.429 -0.5492 -0.9644 -0.6760
15676TIP3    H268444   5.969   1.730   1.487 -0.3895  1.8064  0.6868
15677TIP3   OH268445   5.181   0.387  16.490  0.1142  0.1236 -0.0108
15677TIP3    H168446   5.146   0.368  16.577  0.9747  0.5597  0.4396
15677TIP3    H268447   5.107   0.374  16.431 -0.2853 -0.9274  0.6983
15678TIP3   OH268448   5.705   3.400   5.519 -0.2368 -0.0190 -0.0898
15678TIP3    H168449   5.701   3.397   5.615 -1.1023  0.3052 -0.1113
15678TIP3    H268450   5.770   3.334   5.496 -0.0142 -0.0922  0.7238
15679TIP3   OH268451   0.613   2.130   3.685 -0.0797  0.0676  0.0937
15679TIP3    H168452   0.642   2.168   3.602  1.2513  1.7027  1.2797
15679TIP3    H268453   0.518   2.146   3.687 -0.0052  0.6197 -0.8147
15680TIP3   OH268454   4.433   0.331  16.199  0.0844  0.3048 -0.3399
15680TIP3    H168455   4.499   0.371  16.256 -1.3236  2.0556  0.1575
15680TIP3    H268456   4.434   0.384  16.120  0.3848 -0.6510 -0.9774
15681TIP3   OH268457   3.237   5.229  17.221 -0.5906  0.0746 -0.3557
15681TIP3    H168458   3.261   5.321  17.232  2.0957 -0.7635  1.2539
15681TIP3    H268459   3.198   5.204  17.305 -2.9633  0.1904 -1.3978
15682TIP3   OH268460   5.354   1.184  13.972 -0.5145 -0.1277  0.5058
15682TIP3    H168461   5.296   1.218  14.041  0.2601  0.3475  0.9427
15682TIP3    H268462   5.367   1.092  13.995 -1.6198 -0.4050  0.0324
15683TIP3   OH268463   1.214   3.768   1.687  0.0832 -0.4074  0.2036
15683TIP3    H168464   1.271   3.765   1.610  0.2228  2.5352  0.1174
15683TIP3    H268465   1.273   3.793   1.759 -0.4990 -0.6443  0.7646
15684TIP3   OH268466   0.683   0.389   2.364 -0.1338 -0.0188 -0.0048
15684TIP3    H168467   0.711   0.445   2.291 -0.4866  0.5570  0.2988
15684TIP3    H268468   0.647   0.311   2.322  2.3668 -1.0061 -0.4116
15685TIP3   OH268469   1.406   3.363   4.203 -0.6567  0.2474  0.0268
15685TIP3    H168470   1.489   3.402   4.229 -1.5428  0.2311  3.0092
15685TIP3    H268471   1.431   3.296   4.139  1.5412  0.7676  0.2973
15686TIP3   OH268472   2.825   6.590   0.830  0.0721 -0.0898  0.1666
15686TIP3    H168473   2.802   6.509   0.877  0.7685 -0.3714  0.0292
15686TIP3    H268474   2.852   6.651   0.899 -0.0674 -0.1077  0.2365
15687TIP3   OH268475   4.624   5.077  15.109 -0.0040  0.2016  0.2748
15687TIP3    H168476   4.647   5.169  15.119 -0.0640  0.0597  1.9568
15687TIP3    H268477   4.552   5.064  15.170  1.2077 -1.3717  1.4249
15688TIP3   OH268478   1.400   0.368  12.630  0.0494  0.0722 -0.5690
15688TIP3    H168479   1.463   0.325  12.573  0.6546  1.1705 -0.7406
15688TIP3    H268480   1.315   0.336  12.600  0.4665 -0.7637 -0.8846
15689TIP3   OH268481   4.490   2.356   1.225  0.0028 -0.6796 -0.5763
15689TIP3    H168482   4.397   2.358   1.248 -0.2905 -1.6465 -1.6490
15689TIP3    H268483   4.496   2.404   1.143  0.4556 -0.5963 -0.4954
15690TIP3   OH268484   2.090   4.446  11.128  0.2185 -0.1702 -0.5768
15690TIP3    H168485   2.135   4.501  11.064 -3.1279  2.8059 -0.5907
15690TIP3    H268486   2.047   4.378  11.076 -0.9718  1.1389 -1.3313
15691TIP3   OH268487   2.517   2.933   5.557  0.4467  0.0019 -0.6695
15691TIP3    H168488   2.498   3.027   5.564 -1.1434 -0.1767 -2.1924
15691TIP3    H268489   2.432   2.891   5.570  1.0412 -1.2061 -0.6346
15692TIP3   OH268490   0.561   1.450  15.988 -0.6097  0.1833  0.6361
15692TIP3    H168491   0.581   1.396  16.064 -1.4790  1.5715  1.8853
15692TIP3    H268492   0.644   1.458  15.941 -0.5667 -2.7009  0.0722
15693TIP3   OH268493   5.029   0.465  14.720  0.0754  0.5537  0.0468
15693TIP3    H168494   4.953   0.447  14.776  0.3853 -1.6088 -0.2020
15693TIP3    H268495   5.103   0.426  14.766  0.8012  1.2456 -0.5093
15694TIP3   OH268496   2.684   4.834  12.997  0.2378  0.1140 -0.1847
15694TIP3    H168497   2.775   4.845  13.025 -0.1226 -0.6122  1.3096
15694TIP3    H268498   2.651   4.761  13.049 -0.8506 -0.4144 -1.5831
15695TIP3   OH268499   5.653   1.061   2.480 -0.0975  0.3446 -0.2212
15695TIP3    H168500   5.723   1.026   2.424  0.9457  2.1011 -0.0766
15695TIP3    H268501   5.700   1.095   2.556 -1.3741 -0.6746  1.0321
15696TIP3   OH268502   0.292   3.781  14.522 -0.2940  0.0270 -0.5389
15696TIP3    H168503   0.262   3.700  14.481 -0.9668  0.7906 -1.5823
15696TIP3    H268504   0.376   3.800  14.480 -0.6278  0.4177 -1.0254
15697TIP3   OH268505   0.190   0.538   4.198 -0.1181  0.2584  0.2613
15697TIP3    H168506   0.255   0.599   4.162  1.8680 -2.3273 -0.7012
15697TIP3    H268507   0.229   0.452   4.184 -2.4860 -1.1894  2.3547
15698TIP3   OH268508   1.635   6.738   1.913  0.5819 -0.1972 -0.0698
15698TIP3    H168509   1.576   6.688   1.857  0.6199  1.9200 -2.0523
15698TIP3    H268510   1.576   6.784   1.974  0.2766  0.5946 -0.9515
15699TIP3   OH268511   0.446   5.589   6.608  0.0805  0.0203 -0.1125
15699TIP3    H168512   0.393   5.523   6.653 -1.3953  1.4834  0.3461
15699TIP3    H268513   0.483   5.642   6.679  2.7620 -1.3910 -0.3920
15700TIP3   OH268514   3.810   0.112  15.341  0.0980  0.0344  0.1471
15700TIP3    H168515   3.817   0.077  15.430  2.2923  0.0351 -0.0016
15700TIP3    H268516   3.900   0.139  15.318 -0.3965 -0.1353 -2.1380
15701TIP3   OH268517   5.404   4.259   6.109  0.6560 -0.0587  0.0374
15701TIP3    H168518   5.448   4.302   6.036  2.4506  2.7294  2.6377
15701TIP3    H268519   5.333   4.320   6.133  1.6136  0.2772  2.1406
15702TIP3   OH268520   1.876   0.040   3.984  0.7042 -0.1204 -0.2214
15702TIP3    H168521   1.937   0.105   3.949  0.4453  0.3259  0.1442
15702TIP3    H268522   1.816   0.091   4.039 -0.0092 -0.5519 -0.5953
15703TIP3   OH268523   0.477   5.801  17.020 -0.4608  0.7081 -0.4483
15703TIP3    H168524   0.495   5.707  17.009 -2.5585  0.3004 -0.6556
15703TIP3    H268525   0.461   5.833  16.932  1.6163  1.5877 -0.5275
15704TIP3   OH268526   4.012   1.635  16.848  0.1769 -0.2988  0.2747
15704TIP3    H168527   3.985   1.627  16.939 -1.3210 -2.3584 -0.2968
15704TIP3    H268528   4.106   1.617  16.850 -0.1275 -1.9481  1.2454
15705TIP3   OH268529   6.281   1.922  12.589  0.1897  0.3765 -0.3064
15705TIP3    H168530   6.269   1.949  12.498  1.2349 -0.0794 -0.5919
15705TIP3    H268531   6.280   2.004  12.638  0.5908  0.7104 -0.8446
15706TIP3   OH268532   6.590   4.696  15.045  0.6743 -0.0365  0.2548
15706TIP3    H168533   6.538   4.648  14.981  1.8938 -0.2760 -0.5894
15706TIP3    H268534   6.533   4.766  15.076 -0.5825 -1.0746  0.3306
15707TIP3   OH268535   0.890   3.025   1.725 -0.6019 -0.5809 -0.6755
15707TIP3    H168536   0.945   3.050   1.650  4.3282 -1.8039  2.3099
15707TIP3    H268537   0.866   3.109   1.766  0.6397 -0.0707 -0.9654
15708TIP3   OH268538   2.026   0.402  16.904  0.0661 -0.2849 -0.2599
15708TIP3    H168539   2.057   0.437  16.820  1.3543 -0.5108  0.1201
15708TIP3    H268540   2.062   0.462  16.970 -0.7717 -0.2237  0.1520
15709TIP3   OH268541   1.882   5.089   0.864  0.3906 -0.6309  0.6310
15709TIP3    H168542   1.873   5.183   0.848  2.7801 -0.3840  0.6801
15709TIP3    H268543   1.824   5.048   0.799 -0.5075  0.8617  0.4788
15710TIP3   OH268544   5.543   1.462  14.781 -0.1432 -0.1603 -0.4530
15710TIP3    H168545   5.478   1.428  14.842 -0.2320  1.2422  0.2624
15710TIP3    H268546   5.620   1.406  14.795 -0.1642  0.1377  0.9516
15711TIP3   OH268547   0.596   4.505   3.468 -0.4120  0.2408 -0.1360
15711TIP3    H168548   0.624   4.572   3.530 -1.9587  0.4166  0.4022
15711TIP3    H268549   0.671   4.493   3.410  0.0016  2.2068 -0.0528
15712TIP3   OH268550   1.837   3.589  11.404 -0.6773  0.1704 -0.1301
15712TIP3    H168551   1.833   3.681  11.377  0.9843  0.6016  0.9750
15712TIP3    H268552   1.774   3.544  11.347  0.6652  1.4864 -2.7436
15713TIP3   OH268553   1.565   5.658  11.473  0.1143 -0.2527 -0.2385
15713TIP3    H168554   1.575   5.654  11.378 -0.3318 -1.8134 -0.2452
15713TIP3    H268555   1.515   5.579  11.495  0.5425 -0.1142  1.3268
15714TIP3   OH268556   6.444   3.579  13.364  0.2004 -0.2500 -0.2010
15714TIP3    H168557   6.433   3.590  13.459  0.1952 -0.8747 -0.1257
15714TIP3    H268558   6.533   3.546  13.353  0.6906  1.1789 -0.5270
15715TIP3   OH268559   4.886   5.393  15.809 -0.2923 -0.4213  0.3347
15715TIP3    H168560   4.915   5.313  15.853  1.8601 -0.4749 -1.1122
15715TIP3    H268561   4.884   5.370  15.716  2.9396  1.9098 -0.3856
15716TIP3   OH268562   3.237   4.675  10.706  0.1788  0.3162 -0.1850
15716TIP3    H168563   3.164   4.638  10.756  1.0983 -0.5874  0.5193
15716TIP3    H268564   3.292   4.718  10.772  1.5583 -1.1319 -0.3546
15717TIP3   OH268565   2.724   5.845   5.479 -0.0806 -0.0779 -0.0660
15717TIP3    H168566   2.789   5.841   5.549  2.0770 -0.5616 -2.0266
15717TIP3    H268567   2.645   5.878   5.521  1.2473 -0.0853  2.5199
15718TIP3   OH268568   6.751   2.204  11.103  0.6160 -0.0765  0.7321
15718TIP3    H168569   6.724   2.184  11.013  0.7081  1.8711  0.2473
15718TIP3    H268570   6.669   2.220  11.150  0.4546 -2.7166  1.4476
15719TIP3   OH268571   6.245   0.453  15.790 -0.0420  0.0136 -0.1678
15719TIP3    H168572   6.206   0.517  15.850 -0.1824 -0.9031  0.7209
15719TIP3    H268573   6.327   0.428  15.832 -0.1090 -0.5850 -0.3961
15720TIP3   OH268574   5.700   4.392  15.944 -0.2907 -0.0114  0.1679
15720TIP3    H168575   5.646   4.453  15.995 -1.1459 -1.0196  0.5170
15720TIP3    H268576   5.775   4.443  15.915 -0.1315  0.7643  1.8887
15721TIP3   OH268577   0.392   6.192  12.468 -0.2167 -0.0795  0.6887
15721TIP3    H168578   0.439   6.260  12.516  1.1684 -0.3604 -0.2320
15721TIP3    H268579   0.334   6.241  12.409  2.1124  0.3898 -1.3077
15722TIP3   OH268580   6.392   1.522  15.075 -0.0566 -0.0515  0.0570
15722TIP3    H168581   6.304   1.493  15.051  0.3228 -1.5694  0.4338
15722TIP3    H268582   6.443   1.513  14.995  0.0506 -0.4087  0.1630
15723TIP3   OH268583   3.304   5.182   1.770  0.6711  0.3804 -0.1664
15723TIP3    H168584   3.399   5.184   1.776  0.7588 -2.0360 -0.2547
15723TIP3    H268585   3.286   5.179   1.675  0.5938 -1.2538 -0.1123
15724TIP3   OH268586   1.827   5.894   4.981  0.6657  0.6701  0.1294
15724TIP3    H168587   1.832   5.988   4.963  1.6379  0.8094  1.0894
15724TIP3    H268588   1.849   5.853   4.897 -2.0898  1.2567 -0.9549
15725TIP3   OH268589   6.415   2.836   4.498  0.7963 -0.5568 -0.2630
15725TIP3    H168590   6.388   2.757   4.450 -0.5966 -0.9428  1.1401
15725TIP3    H268591   6.345   2.899   4.481  1.2331 -0.0745 -0.2663
15726TIP3   OH268592   1.502   5.957   4.367 -0.0433 -0.1006  0.2634
15726TIP3    H168593   1.450   5.961   4.447  0.0236 -1.0275  0.3581
15726TIP3    H268594   1.583   5.913   4.393 -0.0664 -0.5010 -0.3329
15727TIP3   OH268595   4.250   0.031  11.646  0.0415  0.1183  0.2688
15727TIP3    H168596   4.205   0.100  11.597 -1.2063  0.6813  2.1500
15727TIP3    H268597   4.236  -0.048  11.595 -0.6028  0.8153 -0.6496
15728TIP3   OH268598   6.239   0.703   3.942 -0.0922 -0.2228  0.2719
15728TIP3    H168599   6.227   0.708   3.847 -0.5366 -0.4135  0.3179
15728TIP3    H268600   6.209   0.788   3.974  0.3216 -0.0536  0.2159
15729TIP3   OH268601   5.757   3.158  11.849 -0.1813 -0.8583  0.2774
15729TIP3    H168602   5.777   3.123  11.935  2.5466  2.2566  0.9585
15729TIP3    H268603   5.675   3.207  11.861 -0.0711 -0.8436  0.9577
15730TIP3   OH268604   1.353   2.848   0.626 -0.2844 -0.3606  0.1839
15730TIP3    H168605   1.375   2.826   0.716  2.1214  2.0266  0.2636
15730TIP3    H268606   1.438   2.849   0.581 -1.3863 -0.8380 -1.9357
15731TIP3   OH268607   2.158   3.430   0.473 -0.6120  0.3917 -0.1179
15731TIP3    H168608   2.228   3.495   0.467  0.9944 -1.1762  0.9675
15731TIP3    H268609   2.113   3.434   0.389  0.6115  1.6300 -0.7227
15732TIP3   OH268610   0.481   3.691  16.623 -0.1913  0.1281  0.2522
15732TIP3    H168611   0.575   3.679  16.638 -0.0570  1.8505  0.9578
15732TIP3    H268612   0.439   3.628  16.681  0.5136  1.0051  1.7491
15733TIP3   OH268613   6.770   6.506   0.721 -0.4878  0.4240 -0.1920
15733TIP3    H168614   6.712   6.482   0.649 -1.1432  0.6599  0.2533
15733TIP3    H268615   6.788   6.423   0.766  0.3881  0.1844 -0.9535
15734TIP3   OH268616   1.925   2.382  11.452  0.8481  0.4109 -0.3220
15734TIP3    H168617   1.913   2.386  11.357 -1.1726 -0.2309 -0.1259
15734TIP3    H268618   1.955   2.293  11.468 -0.2165  0.0522 -0.2472
15735TIP3   OH268619   5.169   2.526   4.110 -0.4030 -0.0156  0.1043
15735TIP3    H168620   5.193   2.609   4.152 -1.1574  0.6086 -0.6621
15735TIP3    H268621   5.081   2.508   4.142  0.3672 -1.3971  1.5535
15736TIP3   OH268622   5.470   5.785  11.644  0.1576 -0.2447  0.1599
15736TIP3    H168623   5.396   5.844  11.656 -0.6761 -1.3512  0.4817
15736TIP3    H268624   5.546   5.837  11.670 -0.6018  0.5734  0.7730
15737TIP3   OH268625   2.442   0.365  16.357  0.1702 -0.9692 -0.0590
15737TIP3    H168626   2.532   0.365  16.388  0.3096  0.9442 -0.4134
15737TIP3    H268627   2.391   0.329  16.429  0.9741 -0.2185  0.8913
15738TIP3   OH268628   2.773   6.679  17.061 -0.0146  0.1959  0.1796
15738TIP3    H168629   2.868   6.689  17.061 -0.0324  0.3295  1.0450
15738TIP3    H268630   2.742   6.751  17.005  0.4267 -0.2176 -0.6074
15739TIP3   OH268631   0.386   3.003  13.577  0.5612  0.0439  0.7833
15739TIP3    H168632   0.436   3.058  13.517  1.7019 -1.1315  0.6557
15739TIP3    H268633   0.298   3.042  13.578  1.8580  3.0998  2.2265
15740TIP3   OH268634   1.747   0.368   3.988  0.2017  0.3749  0.1751
15740TIP3    H168635   1.734   0.312   3.911 -1.0331  2.0037 -0.8257
15740TIP3    H268636   1.671   0.349   4.044  0.8772 -0.4884  0.8284
15741TIP3   OH268637   2.414   5.650   3.107 -0.3519 -0.2635 -0.0718
15741TIP3    H168638   2.460   5.654   3.191  0.9073  0.3545 -0.7726
15741TIP3    H268639   2.337   5.597   3.124 -0.1202 -0.1154  1.4860
15742TIP3   OH268640   1.957   0.181  10.841 -0.2190 -0.2803 -0.7802
15742TIP3    H168641   1.906   0.122  10.897  1.3995  0.2741  1.3454
15742TIP3    H268642   1.927   0.269  10.864  1.0095 -0.0046 -0.2112
15743TIP3   OH268643   2.846   3.498   1.464  0.1444  0.4980 -0.1081
15743TIP3    H168644   2.750   3.502   1.454  0.1393 -0.4390 -0.4468
15743TIP3    H268645   2.860   3.483   1.558 -0.1338 -2.1748 -0.4524
15744TIP3   OH268646   5.617   4.702   2.444  0.5464  0.1740 -0.3766
15744TIP3    H168647   5.671   4.771   2.405 -0.4132  0.5996 -0.9781
15744TIP3    H268648   5.539   4.748   2.474  0.1982 -0.5516 -0.1656
15745TIP3   OH268649   3.420   1.670   2.392  0.1945  0.0978  0.1274
15745TIP3    H168650   3.405   1.611   2.318 -0.4549  0.9058 -0.3812
15745TIP3    H268651   3.430   1.756   2.353 -1.9497  0.8212  1.1060
15746TIP3   OH268652   4.247   5.816   1.937  0.3526 -0.5833  0.3222
15746TIP3    H168653   4.169   5.820   1.994 -0.0356 -3.0701  0.0024
15746TIP3    H268654   4.320   5.830   1.997 -0.3150  2.9345  0.4658
15747TIP3   OH268655   5.180   2.373   0.561  0.5592 -0.2981 -0.4088
15747TIP3    H168656   5.274   2.384   0.554  0.2000  2.7187 -1.3747
15747TIP3    H268657   5.147   2.383   0.472 -0.7798 -0.0380  0.0907
15748TIP3   OH268658   5.595   0.686  17.105 -0.3928  0.0480 -0.5774
15748TIP3    H168659   5.624   0.720  17.020 -0.5067  0.0617 -0.6115
15748TIP3    H268660   5.521   0.629  17.084 -1.4519  1.3002 -0.3441
15749TIP3   OH268661   4.914   6.156   4.745 -0.6873  0.3886 -0.0147
15749TIP3    H168662   4.964   6.093   4.693 -1.1711 -0.7996  0.9300
15749TIP3    H268663   4.930   6.240   4.703  2.7996  0.1874  0.7954
15750TIP3   OH268664   1.441   6.065  12.602  0.0705  0.3834  0.1881
15750TIP3    H168665   1.410   6.154  12.621  1.0338  0.9610 -0.8338
15750TIP3    H268666   1.366   6.021  12.563 -0.3022  0.8638  0.3607
15751TIP3   OH268667   6.441   4.457   3.442  0.1356 -0.5239  0.5561
15751TIP3    H168668   6.527   4.416   3.432  1.1887  1.0873  2.5149
15751TIP3    H268669   6.424   4.497   3.357  1.2330 -1.0615  0.0741
15752TIP3   OH268670   2.619   5.164  14.619 -0.4965  0.2860 -0.3899
15752TIP3    H168671   2.599   5.257  14.623 -0.3921  0.3367 -0.9684
15752TIP3    H268672   2.534   5.121  14.624 -0.5657  0.4227 -0.3850
15753TIP3   OH268673   2.471   4.928  10.749 -0.5887 -0.2943 -0.4647
15753TIP3    H168674   2.551   4.935  10.697 -0.7885 -0.0957 -0.7446
15753TIP3    H268675   2.488   4.856  10.810  0.4342  0.8375  0.6159
15754TIP3   OH268676   4.041   1.361   5.894 -0.4133  0.7802 -0.3513
15754TIP3    H168677   3.977   1.374   5.823 -1.7371  0.9791  0.8497
15754TIP3    H268678   3.987   1.354   5.973  1.0082 -0.0501  0.5610
15755TIP3   OH268679   2.733   2.808   3.161 -0.5659 -0.3799 -0.5064
15755TIP3    H168680   2.708   2.867   3.232 -3.1202 -1.0354 -0.8081
15755TIP3    H268681   2.776   2.865   3.097 -1.2125  0.8159  0.0977
15756TIP3   OH268682   4.507   6.470  11.622  0.5360 -1.0742 -0.1086
15756TIP3    H168683   4.518   6.409  11.550 -0.4519 -0.1342 -1.0958
15756TIP3    H268684   4.543   6.553  11.589  0.4062 -0.7292  0.6036
15757TIP3   OH268685   1.379   3.822   0.069  0.0153 -0.2553 -0.0807
15757TIP3    H168686   1.361   3.737   0.111 -0.3872 -0.5317 -0.8105
15757TIP3    H268687   1.467   3.846   0.100  0.2163 -1.0363 -0.0384
15758TIP3   OH268688   4.570   5.551   2.475 -0.1410  0.2102 -0.3285
15758TIP3    H168689   4.526   5.606   2.541  1.1078  0.2162  0.5252
15758TIP3    H268690   4.612   5.613   2.416  2.8613  0.2513  1.7151
15759TIP3   OH268691   0.476   5.974   4.803  0.2731 -0.0751 -0.1373
15759TIP3    H168692   0.448   5.950   4.715  2.4233  1.4243 -1.2791
15759TIP3    H268693   0.497   5.890   4.845 -1.8008 -0.8825 -0.6632
15760TIP3   OH268694   6.467   4.028   2.691  0.5344 -0.1404 -0.1739
15760TIP3    H168695   6.489   4.050   2.782 -0.9004 -1.3721  0.4993
15760TIP3    H268696   6.542   3.978   2.660  1.7536  1.6683 -0.2144
15761TIP3   OH268697   1.892   1.552   6.574 -0.0263 -0.0423  0.3758
15761TIP3    H168698   1.800   1.569   6.554  0.0220  0.3718  0.5047
15761TIP3    H268699   1.934   1.638   6.569  0.4577 -0.3129 -0.2340
15762TIP3   OH268700   0.797   0.542  12.101  0.2965 -0.2013 -0.0979
15762TIP3    H168701   0.807   0.451  12.073 -1.3975 -1.1043  2.0740
15762TIP3    H268702   0.883   0.567  12.135  0.0432 -1.9972  2.0056
15763TIP3   OH268703   5.690   6.204   4.962  0.5946 -0.1061 -0.4642
15763TIP3    H168704   5.671   6.279   5.020  1.7907  0.6550 -1.0426
15763TIP3    H268705   5.758   6.155   5.008  0.0589 -0.6648 -0.2543
15764TIP3   OH268706   5.660   6.334  12.547  0.4578 -0.4980 -0.0111
15764TIP3    H168707   5.620   6.253  12.513  0.4967 -0.5222  0.0008
15764TIP3    H268708   5.723   6.359  12.480 -0.2416  0.0537 -0.4687
15765TIP3   OH268709   0.828   3.154   3.162 -0.3938 -0.0197  0.2204
15765TIP3    H168710   0.790   3.195   3.239  0.0296 -0.2747  0.5698
15765TIP3    H268711   0.890   3.219   3.128 -1.4551  0.5672 -0.5999
15766TIP3   OH268712   5.509   5.971  16.609 -0.2716  0.8332 -0.2939
15766TIP3    H168713   5.524   5.957  16.515 -1.9089 -1.5099 -0.2326
15766TIP3    H268714   5.553   6.054  16.627  0.5300  1.0721 -3.0188
15767TIP3   OH268715   6.060   6.753  14.727  0.0339 -0.5273 -0.8960
15767TIP3    H168716   6.136   6.786  14.775 -0.3964 -1.1153  0.2120
15767TIP3    H268717   6.082   6.662  14.708 -0.8485 -1.0267  0.4109
15768TIP3   OH268718   6.059   6.187  12.859 -0.3782  0.0483 -0.0530
15768TIP3    H168719   6.151   6.208  12.871 -0.5256  0.6724  0.0086
15768TIP3    H268720   6.057   6.093  12.843  0.3798  0.2355 -1.2755
15769TIP3   OH268721   3.727   6.672   5.095 -0.2265 -0.0717 -0.0653
15769TIP3    H168722   3.768   6.742   5.144  0.7851 -2.0347  1.9762
15769TIP3    H268723   3.634   6.678   5.118  0.1449 -0.5921  1.6974
15770TIP3   OH268724   4.608   0.404   5.943  0.7841 -0.4994 -0.3979
15770TIP3    H168725   4.643   0.434   5.860  0.5595 -1.0429 -0.6908
15770TIP3    H268726   4.672   0.342   5.976  0.6254 -0.6748 -0.4156
15771TIP3   OH268727   1.035   2.214  12.734 -0.2146  0.0138  0.2033
15771TIP3    H168728   1.074   2.296  12.764 -0.6782 -0.0408  0.9834
15771TIP3    H268729   1.105   2.149  12.741  0.7159  0.7018 -2.2165
15772TIP3   OH268730   0.618   1.008  12.729 -0.0351 -0.6142 -0.2477
15772TIP3    H168731   0.680   0.937  12.712 -1.4614 -1.8062 -0.6494
15772TIP3    H268732   0.605   1.006  12.824  1.6763  0.6491  0.0417
15773TIP3   OH268733   1.404   3.242  13.650 -0.2720  0.2713 -0.2807
15773TIP3    H168734   1.396   3.311  13.715 -0.3336 -0.3561  0.3784
15773TIP3    H268735   1.497   3.245  13.624 -0.3110  0.7051 -0.3808
15774TIP3   OH268736   4.630   5.805   3.420  0.1696 -0.1615  0.2377
15774TIP3    H168737   4.582   5.878   3.458 -1.5767 -0.6993 -0.8621
15774TIP3    H268738   4.569   5.731   3.423  1.0504 -0.9611 -0.8490
15775TIP3   OH268739   1.165   1.487   0.418  0.1628  0.2217  0.1454
15775TIP3    H168740   1.251   1.528   0.422 -0.6485  1.7897  2.2969
15775TIP3    H268741   1.131   1.510   0.332  0.9628  1.5263  0.1659
15776TIP3   OH268742   3.942   5.225  17.153  0.5860 -0.0575  0.3872
15776TIP3    H168743   4.011   5.280  17.116 -0.3008  0.5712 -0.3677
15776TIP3    H268744   3.869   5.286  17.168 -0.0204 -0.8287  0.5714
15777TIP3   OH268745   3.264   6.078  13.771 -0.0274 -0.0775 -0.6928
15777TIP3    H168746   3.171   6.072  13.793  0.1620  0.6600  0.3155
15777TIP3    H268747   3.270   6.153  13.712  0.1271  0.7465  0.3600
15778TIP3   OH268748   2.066   3.836  12.952  0.9894 -0.0826 -0.2313
15778TIP3    H168749   1.976   3.809  12.972  1.2778 -0.0806  1.1147
15778TIP3    H268750   2.090   3.784  12.876 -0.1153 -0.1683 -0.5316
15779TIP3   OH268751   3.471   2.905   3.541 -0.5229 -0.4008  0.2423
15779TIP3    H168752   3.458   2.922   3.635 -1.5300  3.1365 -0.4909
15779TIP3    H268753   3.536   2.969   3.514 -2.9753  1.1270 -2.2490
15780TIP3   OH268754   6.303   5.837   1.948  0.1141  0.4525 -0.1301
15780TIP3    H168755   6.220   5.793   1.965  0.5743  0.1610  1.4217
15780TIP3    H268756   6.353   5.775   1.895  0.4286 -0.5803  1.3375
15781TIP3   OH268757   1.884   3.282   0.847 -0.1922  0.0248 -1.0799
15781TIP3    H168758   1.793   3.309   0.842  0.1637  1.0413 -2.4521
15781TIP3    H268759   1.924   3.343   0.910 -0.1324  0.5856 -1.6502
15782TIP3   OH268760   0.251   0.780   2.786  0.2278  0.0576 -0.3127
15782TIP3    H168761   0.294   0.790   2.871  0.3845  0.5080 -0.4451
15782TIP3    H268762   0.210   0.864   2.769 -1.4031 -0.6118  0.1784
15783TIP3   OH268763   1.160   0.587   0.530  0.1936  0.0122 -0.1288
15783TIP3    H168764   1.109   0.553   0.457 -0.8290  1.1318  0.0516
15783TIP3    H268765   1.120   0.549   0.608 -0.9451  1.6057  0.0710
15784TIP3   OH268766   2.876   1.407  17.185  0.0509  0.0324  0.2987
15784TIP3    H168767   2.934   1.471  17.226 -1.5059  1.0758  0.9268
15784TIP3    H268768   2.856   1.345  17.255  0.0505 -0.0632  0.2132
15785TIP3   OH268769   1.588   5.167   2.527  0.1627  0.5062  0.4370
15785TIP3    H168770   1.607   5.205   2.441 -0.3433  0.8257  0.4673
15785TIP3    H268771   1.673   5.166   2.572  0.5589 -0.2686 -0.3027
15786TIP3   OH268772   5.159   6.189  11.429  0.3746 -0.3585 -0.2900
15786TIP3    H168773   5.190   6.131  11.499  1.6887  0.7302  0.0501
15786TIP3    H268774   5.204   6.157  11.351 -0.4813 -1.0710 -0.5054
15787TIP3   OH268775   2.551   3.342   0.750  0.1194 -0.3454  0.8159
15787TIP3    H168776   2.505   3.406   0.804  1.7764  1.9287 -0.3696
15787TIP3    H268777   2.501   3.339   0.668  0.8536  0.5233  0.3313
15788TIP3   OH268778   1.124   2.926   3.450 -0.1175  0.0999 -0.0165
15788TIP3    H168779   1.113   3.018   3.471  1.0395  0.0693  0.7508
15788TIP3    H268780   1.213   2.905   3.478  0.4001 -0.7103 -2.1233
15789TIP3   OH268781   5.776   4.430   2.634 -0.0189 -0.0455 -0.1051
15789TIP3    H168782   5.853   4.415   2.689  1.0487  1.1796 -1.2596
15789TIP3    H268783   5.802   4.498   2.573 -2.4290  1.2796  0.2833
15790TIP3   OH268784   3.156   5.395  14.073  1.0001  0.6979  0.1517
15790TIP3    H168785   3.224   5.422  14.012 -0.9008  0.1913 -2.2865
15790TIP3    H268786   3.201   5.346  14.142  3.1746  1.2136 -0.8972
15791TIP3   OH268787   0.932   4.147   2.158  0.3818  0.3130 -0.5554
15791TIP3    H168788   0.890   4.231   2.137  1.1981  0.8131 -0.1776
15791TIP3    H268789   0.907   4.090   2.085 -1.2827  0.4820 -0.1533
15792TIP3   OH268790   3.832   3.538   1.338 -0.6072 -0.0640 -0.0614
15792TIP3    H168791   3.768   3.608   1.345  0.1633  0.6713 -0.1880
15792TIP3    H268792   3.910   3.581   1.301 -0.1946 -1.0257 -0.3356
15793TIP3   OH268793   0.531   5.523  12.195 -0.0619  0.2385  0.2121
15793TIP3    H168794   0.454   5.523  12.139 -0.0240  0.8418  0.1599
15793TIP3    H268795   0.569   5.436  12.183 -0.8028 -0.1058  0.3392
15794TIP3   OH268796   3.343   1.454   4.976  0.2886  0.0647 -0.1581
15794TIP3    H168797   3.248   1.464   4.971  0.2187 -0.7828 -0.6070
15794TIP3    H268798   3.378   1.537   4.945 -0.2981  0.0310 -0.9244
15795TIP3   OH268799   5.705   1.350   1.800  0.2532 -0.0762  0.6608
15795TIP3    H168800   5.800   1.342   1.812  0.5554  0.3761 -1.2248
15795TIP3    H268801   5.689   1.444   1.802  0.0801 -0.0657 -0.4810
15796TIP3   OH268802   0.731   6.379   1.391 -0.1580  0.3743  0.1728
15796TIP3    H168803   0.757   6.470   1.402  0.8909  0.0838  0.1752
15796TIP3    H268804   0.708   6.350   1.479 -1.2883  0.8687  0.0434
15797TIP3   OH268805   6.470   5.909   2.998  0.3537 -0.5827 -0.2214
15797TIP3    H168806   6.400   5.935   2.939  0.4985 -1.2259 -0.6765
15797TIP3    H268807   6.429   5.849   3.060  0.4643 -0.8142 -0.3740
15798TIP3   OH268808   6.562   6.573  15.647 -0.1534  0.2579 -0.3203
15798TIP3    H168809   6.607   6.598  15.728 -0.4565 -1.3985  0.3800
15798TIP3    H268810   6.471   6.599  15.662  0.3177  2.6427 -1.3237
15799TIP3   OH268811   1.774   2.126  12.139 -0.0294 -0.0138 -0.2541
15799TIP3    H168812   1.786   2.045  12.090 -0.2718 -0.2889  0.1370
15799TIP3    H268813   1.761   2.193  12.072 -2.0508 -0.6579 -0.5279
15800TIP3   OH268814   3.129   0.596   2.425 -0.3345  0.1846 -0.3268
15800TIP3    H168815   3.074   0.520   2.444  0.1092  0.2681  1.4011
15800TIP3    H268816   3.076   0.671   2.451 -1.1040  0.5571 -2.8230
15801TIP3   OH268817   5.421   4.751   4.569 -0.2802  0.2338  0.5914
15801TIP3    H168818   5.396   4.670   4.612 -0.4653  0.5186  1.0272
15801TIP3    H268819   5.339   4.800   4.560 -0.3669 -0.1335 -0.7599
15802TIP3   OH268820   2.282   3.835  16.461  0.2049  0.1752 -0.9644
15802TIP3    H168821   2.269   3.927  16.441  2.1906  0.9952  1.2427
15802TIP3    H268822   2.268   3.829  16.556 -0.6696 -1.9558 -1.1940
15803TIP3   OH268823   0.144   1.110  12.475 -0.0379 -0.5145  0.3227
15803TIP3    H168824   0.124   1.020  12.447 -0.7277 -0.1980 -0.2222
15803TIP3    H268825   0.239   1.115  12.473 -0.0561 -0.2530 -2.8780
15804TIP3   OH268826   1.983   2.296   3.604  0.1699 -0.5269  0.1647
15804TIP3    H168827   2.009   2.215   3.561  0.3940 -0.5633  0.3673
15804TIP3    H268828   2.035   2.299   3.684  0.9768  0.3489 -0.3702
15805TIP3   OH268829   6.125   0.246   0.444  0.1734 -0.4000 -0.0491
15805TIP3    H168830   6.067   0.190   0.392 -1.3181 -0.9538  2.1270
15805TIP3    H268831   6.067   0.284   0.511  1.9088  0.7989  0.8006
15806TIP3   OH268832   5.407   0.832   6.082 -0.3316  0.4189  0.8637
15806TIP3    H168833   5.323   0.876   6.092 -0.6340 -0.5404  2.6651
15806TIP3    H268834   5.384   0.741   6.065  0.3272  0.5019 -0.5162
15807TIP3   OH268835   1.230   3.366   2.474  0.0869  0.3611  0.4784
15807TIP3    H168836   1.272   3.449   2.494  0.7338 -0.1709  1.3454
15807TIP3    H268837   1.167   3.353   2.546  2.8381 -1.8471  2.5932
15808TIP3   OH268838   5.771   2.086  11.998 -0.1941  0.2391  0.6704
15808TIP3    H168839   5.691   2.057  11.955 -0.2254  1.4450 -0.1311
15808TIP3    H268840   5.840   2.069  11.934  0.0430  0.1430  0.9502
15809TIP3   OH268841   0.780   2.843  16.798  0.2587 -0.2936  0.8476
15809TIP3    H168842   0.700   2.812  16.757  1.3839 -1.3614 -0.5860
15809TIP3    H268843   0.817   2.905  16.735  0.4852  0.3256  1.5827
15810TIP3   OH268844   5.854   3.289  16.879  0.2324  0.2940 -0.2239
15810TIP3    H168845   5.919   3.352  16.910 -0.0938  0.9302 -0.8250
15810TIP3    H268846   5.775   3.309  16.928  0.5723 -0.6952  0.7490
15811TIP3   OH268847   2.367   1.691  16.941  0.1676 -0.7226  0.2879
15811TIP3    H168848   2.458   1.669  16.920  0.9046  0.3991  2.1577
15811TIP3    H268849   2.354   1.778  16.905  0.2842 -0.3162  1.2047
15812TIP3   OH268850   0.044   1.894   2.983 -0.9857 -0.1613  0.7451
15812TIP3    H168851  -0.039   1.936   2.959  0.7014  2.6748 -0.3810
15812TIP3    H268852   0.106   1.966   2.989  1.4242 -2.2413  1.5956
15813TIP3   OH268853   1.568   1.852   2.153 -0.0556 -0.0744 -0.0112
15813TIP3    H168854   1.644   1.909   2.163  0.1285 -0.2662 -0.3274
15813TIP3    H268855   1.512   1.874   2.227 -1.4244  2.7686 -1.8109
15814TIP3   OH268856   3.291   0.723  14.824  0.0632 -0.0604 -0.0229
15814TIP3    H168857   3.341   0.779  14.764 -0.7266  0.5016 -0.1627
15814TIP3    H268858   3.237   0.669  14.766 -0.6783  0.4626  0.1790
15815TIP3   OH268859   4.639   3.968  14.600  0.3403 -0.0551 -0.2492
15815TIP3    H168860   4.688   3.954  14.519 -0.5392  2.6772 -1.2881
15815TIP3    H268861   4.705   3.958  14.669  1.6598  0.2063 -1.4376
15816TIP3   OH268862   4.817   1.652   3.994 -0.3401 -0.1204  0.1978
15816TIP3    H168863   4.901   1.680   3.959  0.4528 -1.4793  1.0068
15816TIP3    H268864   4.777   1.601   3.924  0.3487 -1.0908  0.5056
15817TIP3   OH268865   2.440   1.069   0.124  0.2056  0.1448 -0.2165
15817TIP3    H168866   2.467   1.111   0.042  0.2321 -0.9250 -0.7638
15817TIP3    H268867   2.486   0.985   0.124  0.4217  0.2553  1.0333
15818TIP3   OH268868   1.672   5.538   4.375  0.7030  0.3550  0.2370
15818TIP3    H168869   1.717   5.619   4.401 -0.3027  2.2945 -3.6558
15818TIP3    H268870   1.581   5.564   4.361 -0.1922 -2.0417  1.3394
15819TIP3   OH268871   6.470   1.262  16.662  0.0291  0.4232 -0.0951
15819TIP3    H168872   6.539   1.233  16.722  0.6232  0.2317 -0.8657
15819TIP3    H268873   6.403   1.299  16.720 -0.0838 -1.1218  0.8099
15820TIP3   OH268874   2.071   0.854   5.672  0.1877  0.3177  0.0508
15820TIP3    H168875   2.002   0.849   5.607  1.0770  3.3201 -1.2141
15820TIP3    H268876   2.051   0.934   5.721  1.7764  0.2450  0.8331
15821TIP3   OH268877   1.632   6.752   3.791 -0.6583 -0.3888 -0.5327
15821TIP3    H168878   1.681   6.769   3.872  1.3420 -1.0998 -1.5498
15821TIP3    H268879   1.594   6.836   3.768 -0.4817  0.0308  0.6699
15822TIP3   OH268880   4.914   3.861  13.021  0.1602 -0.4805 -0.8965
15822TIP3    H168881   4.965   3.782  13.041 -1.0839 -1.5341 -1.7562
15822TIP3    H268882   4.880   3.889  13.105  1.1406 -0.4795 -0.4898
15823TIP3   OH268883   3.930   0.133   1.376 -0.8158 -0.2544 -0.1876
15823TIP3    H168884   3.850   0.082   1.366  0.4458 -2.3080 -0.0248
15823TIP3    H268885   3.941   0.143   1.471 -0.6257 -0.3715 -0.1970
15824TIP3   OH268886   3.294   3.335   5.561 -0.4094 -0.1987  0.0867
15824TIP3    H168887   3.370   3.321   5.618 -0.9107 -1.7921  0.4093
15824TIP3    H268888   3.220   3.301   5.612 -1.2061  0.4765 -0.6041
15825TIP3   OH268889   3.616   6.582  13.949 -0.1550 -0.6458  0.1774
15825TIP3    H168890   3.625   6.486  13.951 -0.2884 -0.6626 -0.0939
15825TIP3    H268891   3.703   6.614  13.974 -0.0180 -0.8345 -0.0507
15826TIP3   OH268892   6.402   5.664   4.601  0.3830  0.3345 -0.3796
15826TIP3    H168893   6.456   5.586   4.615 -0.1529  0.4719  2.9153
15826TIP3    H268894   6.322   5.630   4.561  0.0589 -0.8782  1.2355
15827TIP3   OH268895   1.866   1.187   5.409 -0.0462 -0.2367  0.2229
15827TIP3    H168896   1.838   1.117   5.468 -2.1829  0.7685  0.4385
15827TIP3    H268897   1.818   1.170   5.327  0.6624  0.0598 -0.2604
15828TIP3   OH268898   5.609   2.917  11.760 -0.3299  0.3076 -0.2693
15828TIP3    H168899   5.552   2.993  11.756 -0.3150  0.2370 -2.2627
15828TIP3    H268900   5.697   2.953  11.772 -0.6194  0.4676  1.4951
15829TIP3   OH268901   3.976   0.004   4.123  0.6743  0.5008  0.0608
15829TIP3    H168902   3.952   0.091   4.090  1.5206  1.4233  1.7662
15829TIP3    H268903   4.071   0.008   4.135  0.9484 -1.2304 -1.3841
15830TIP3   OH268904   4.724   0.648  10.540 -0.3368  0.3889  0.5644
15830TIP3    H168905   4.696   0.739  10.546 -1.1665  0.1656  0.1526
15830TIP3    H268906   4.817   0.650  10.565 -0.7930  1.0843  2.2708
15831TIP3   OH268907   3.239   0.210  11.859 -0.1818  0.3267 -0.2728
15831TIP3    H168908   3.287   0.201  11.941  0.3838  2.3685 -0.3538
15831TIP3    H268909   3.307   0.201  11.791 -0.0394  2.2866 -0.4114
15832TIP3   OH268910   2.572   0.087   5.612 -0.1995 -0.3075 -0.0129
15832TIP3    H168911   2.658   0.106   5.575 -0.0296 -0.8828  0.0701
15832TIP3    H268912   2.540   0.171   5.644  0.8183 -0.2658  0.9678
15833TIP3   OH268913   1.972   6.098   2.781 -0.2374  0.5982  0.2594
15833TIP3    H168914   2.015   6.124   2.863  0.3061  1.3468 -0.2611
15833TIP3    H268915   1.921   6.021   2.805 -0.7094  1.2805  1.4880
15834TIP3   OH268916   0.173   5.965   0.925  0.7456 -0.3551  0.3027
15834TIP3    H168917   0.214   5.938   1.007  1.6050 -1.0289 -0.3407
15834TIP3    H268918   0.109   6.032   0.950  1.1236 -0.4444  1.4933
15835TIP3   OH268919   4.742   0.840  13.972  0.3000  0.2632 -0.2137
15835TIP3    H168920   4.721   0.908  14.035  0.2639  0.5057 -0.4871
15835TIP3    H268921   4.671   0.776  13.981 -0.1543  0.7082 -0.6040
15836TIP3   OH268922   2.339   3.395  17.057 -0.0606 -0.4131  0.3484
15836TIP3    H168923   2.263   3.350  17.019 -0.3460  1.0952 -0.9123
15836TIP3    H268924   2.358   3.467  16.996  1.9930 -0.3852  0.9870
15837TIP3   OH268925   1.770   5.861  15.431  0.8188  0.8742 -0.0844
15837TIP3    H168926   1.675   5.860  15.446  0.5438  0.1297 -1.7570
15837TIP3    H268927   1.791   5.771  15.404  2.1215  0.8589  0.8925
15838TIP3   OH268928   5.056   2.225  15.269 -0.7566 -0.5401 -0.2797
15838TIP3    H168929   5.098   2.191  15.348 -0.4781  1.8993  0.6623
15838TIP3    H268930   5.122   2.215  15.200  0.3663  0.6672  0.5897
15839TIP3   OH268931   4.599   2.810  16.986  0.5499  0.1158  0.1345
15839TIP3    H168932   4.648   2.892  16.984 -0.9689  1.0032 -2.5056
15839TIP3    H268933   4.614   2.776  17.074  3.6409  1.7067  0.2858
15840TIP3   OH268934   4.797   4.826   0.798 -0.0766  0.1230  0.2973
15840TIP3    H168935   4.869   4.820   0.736 -1.1609 -0.7537 -0.9294
15840TIP3    H268936   4.721   4.849   0.744 -0.8258  0.4598  1.4710
15841TIP3   OH268937   1.994   5.196  15.202  0.3529 -0.4903  0.1750
15841TIP3    H168938   1.923   5.171  15.262 -0.0650 -1.2558 -0.6348
15841TIP3    H268939   1.954   5.256  15.140  1.0728  1.2635  1.3777
15842TIP3   OH268940   1.559   1.606  11.120  0.0630  0.2058  0.8240
15842TIP3    H168941   1.600   1.522  11.097 -1.4162 -0.1392 -0.6424
15842TIP3    H268942   1.505   1.628  11.044 -2.1327  0.8591  2.5180
15843TIP3   OH268943   2.419   5.048  16.036 -0.5365  0.0264 -0.3725
15843TIP3    H168944   2.484   4.996  15.990 -1.4199 -0.3284 -1.2493
15843TIP3    H268945   2.425   5.135  15.995 -1.4452 -0.3374 -1.3032
15844TIP3   OH268946   4.604   5.553   0.910  0.2702  0.4549  0.2367
15844TIP3    H168947   4.532   5.616   0.911  1.4858  1.9423 -1.3859
15844TIP3    H268948   4.620   5.538   0.817  1.5163 -0.4772  0.5941
15845TIP3   OH268949   5.434   2.496  16.020  0.0860  0.1442 -0.0564
15845TIP3    H168950   5.501   2.432  16.046 -0.6298 -0.2612  0.8273
15845TIP3    H268951   5.484   2.572  15.991  0.9580 -0.9841 -1.5991
15846TIP3   OH268952   5.119   2.101   1.308 -0.2061 -0.3233  0.2412
15846TIP3    H168953   5.141   2.175   1.251 -0.0135 -0.0143  0.7137
15846TIP3    H268954   5.026   2.115   1.329  0.0677  0.2775  1.0565
15847TIP3   OH268955   1.758   5.048   5.916  0.0847  0.3224 -0.2092
15847TIP3    H168956   1.778   5.005   5.833 -4.1464 -1.4284 -0.4343
15847TIP3    H268957   1.791   4.988   5.983 -1.1711 -0.7851 -0.5815
15848TIP3   OH268958   6.318   2.356  13.369 -0.2922 -0.0466 -0.8208
15848TIP3    H168959   6.392   2.355  13.308  1.9830  1.4129  1.7522
15848TIP3    H268960   6.330   2.276  13.421 -1.3110 -0.4896 -1.2686
15849TIP3   OH268961   2.852   0.184   6.313 -0.7178  0.7278 -0.1761
15849TIP3    H168962   2.780   0.179   6.375 -1.9572  0.6359 -1.6028
15849TIP3    H268963   2.877   0.092   6.297  0.0454  0.7766  0.6695
15850TIP3   OH268964   1.654   4.696  10.513 -0.6654 -0.2375 -0.5282
15850TIP3    H168965   1.686   4.623  10.566  1.0312  1.2807  0.6179
15850TIP3    H268966   1.575   4.726  10.558  0.0923  0.2662  0.4982
15851TIP3   OH268967   4.937   1.416   3.348 -0.0347 -0.2721  0.1206
15851TIP3    H168968   4.948   1.346   3.284 -1.8624 -0.6001  0.1365
15851TIP3    H268969   4.843   1.436   3.346  0.3663  1.7783  0.5428
15852TIP3   OH268970   1.369   4.941  12.378 -0.6230 -0.7877 -0.0326
15852TIP3    H168971   1.303   4.972  12.317 -2.8964 -1.1832  2.1205
15852TIP3    H268972   1.450   4.982  12.349 -2.4268  2.4029 -0.7993
15853TIP3   OH268973   4.452   3.038  15.131  0.3293 -0.2991 -0.8461
15853TIP3    H168974   4.429   2.959  15.181  0.9178  0.4593  0.6799
15853TIP3    H268975   4.532   3.070  15.173 -0.8676  2.0977 -0.2929
15854TIP3   OH268976   6.165   3.703   4.374  0.8386  0.1338 -0.2483
15854TIP3    H168977   6.232   3.770   4.357  1.6998 -0.9310 -1.1505
15854TIP3    H268978   6.210   3.620   4.358 -0.1804 -0.6787  1.0003
15855TIP3   OH268979   3.044   6.571  11.111 -0.9067  0.2451 -0.3527
15855TIP3    H168980   3.030   6.657  11.149 -2.0728 -0.3228  0.5473
15855TIP3    H268981   3.070   6.588  11.021  0.5666  1.5683  0.3124
15856TIP3   OH268982   2.204   4.619   4.329 -0.4563 -0.1860  0.8063
15856TIP3    H168983   2.163   4.706   4.321  0.1702 -0.1334 -2.4998
15856TIP3    H268984   2.134   4.558   4.308 -0.0287 -0.3269 -0.1994
15857TIP3   OH268985   2.457   1.205   4.762  0.2344  0.1216 -0.1762
15857TIP3    H168986   2.381   1.152   4.789 -0.6815  0.6693 -1.6013
15857TIP3    H268987   2.423   1.294   4.754  0.5778  0.0968 -2.4798
15858TIP3   OH268988   5.146   5.802  10.580  0.3776  0.2449  0.1395
15858TIP3    H168989   5.137   5.842  10.666  0.1748  2.3957 -0.8501
15858TIP3    H268990   5.234   5.828  10.551 -0.4124  1.4710 -1.2381
15859TIP3   OH268991   6.422   1.503   0.598 -1.0835  0.2119 -0.1913
15859TIP3    H168992   6.496   1.460   0.642 -0.6778 -0.1659 -1.2416
15859TIP3    H268993   6.440   1.596   0.607  0.8191  0.1084 -2.6099
15860TIP3   OH268994   1.819   6.217  13.770 -0.1875 -0.1735  0.2221
15860TIP3    H168995   1.899   6.269  13.776  0.5984 -1.4731  1.3758
15860TIP3    H268996   1.749   6.281  13.785  0.6404  0.9194 -0.4452
15861TIP3   OH268997   4.257   5.097  11.703 -0.2298  0.1045  0.2071
15861TIP3    H168998   4.299   5.033  11.760 -0.5821 -0.1378  0.1942
15861TIP3    H268999   4.282   5.071  11.615 -0.3562 -0.0002  0.2031
15862TIP3   OH269000   6.756   3.331  12.091  0.3770  0.5345 -0.0175
15862TIP3    H169001   6.806   3.300  12.015 -1.2475  3.3135 -2.3110
15862TIP3    H269002   6.753   3.426  12.081 -2.0619  0.7503  2.1781
15863TIP3   OH269003   1.725   4.593   5.697 -0.0922 -0.8145  0.1211
15863TIP3    H169004   1.720   4.631   5.785 -1.7401  0.8437 -0.6617
15863TIP3    H269005   1.809   4.624   5.662 -0.3934  0.2793  0.3437
15864TIP3   OH269006   1.712   5.484   2.098 -0.4515 -0.4158 -0.4656
15864TIP3    H169007   1.726   5.551   2.164 -1.8575 -0.4598 -0.1212
15864TIP3    H269008   1.793   5.485   2.046 -0.9236  2.3641 -1.2320
15865TIP3   OH269009   3.767   0.072  16.448  0.4956  0.1250  0.5465
15865TIP3    H169010   3.857   0.042  16.442  0.2075 -0.3748 -1.7145
15865TIP3    H269011   3.734   0.068  16.358 -1.4035  1.4502  1.1445
15866TIP3   OH269012   1.589   5.995  13.711  0.0468  0.0548  0.1634
15866TIP3    H169013   1.494   5.992  13.721 -0.1261  1.4448 -0.9719
15866TIP3    H269014   1.617   6.066  13.768  0.3632 -0.0256  0.1111
15867TIP3   OH269015   5.298   5.100  12.256  0.7116  0.0565 -0.0626
15867TIP3    H169016   5.319   5.193  12.263  0.6603  0.0546  0.1356
15867TIP3    H269017   5.376   5.055  12.288  0.3148  0.0532  0.9137
15868TIP3   OH269018   4.024   1.540   5.547 -0.4468  0.8710  0.4400
15868TIP3    H169019   4.064   1.465   5.591  1.8186  1.4627 -0.5064
15868TIP3    H269020   3.993   1.596   5.618 -0.7335 -0.2157  1.1805
15869TIP3   OH269021   1.430   4.834   1.490 -0.0227  0.1269 -0.0661
15869TIP3    H169022   1.473   4.920   1.494  0.9377 -0.3624  0.2328
15869TIP3    H269023   1.426   4.805   1.581 -1.0610  0.2027 -0.0884
15870TIP3   OH269024   1.754   2.606   4.318 -0.3030 -0.6036  0.1293
15870TIP3    H169025   1.659   2.612   4.318 -0.2974 -0.5292  0.5689
15870TIP3    H269026   1.775   2.550   4.393  0.1235  1.3477  1.4967
15871TIP3   OH269027   0.961   4.808   1.025 -0.5416 -0.1048  0.3376
15871TIP3    H169028   1.006   4.724   1.034 -1.9767 -0.8482  0.7092
15871TIP3    H269029   0.980   4.855   1.106  2.0620  0.8477 -0.7602
15872TIP3   OH269030   5.205   6.323   2.932  0.0044 -0.1454 -0.2859
15872TIP3    H169031   5.193   6.378   3.009 -0.3926 -1.6217  0.7460
15872TIP3    H269032   5.199   6.233   2.966 -0.1855 -0.8158 -2.0347
15873TIP3   OH269033   6.065   0.465   4.050  0.1196 -0.2178 -0.5692
15873TIP3    H169034   6.126   0.535   4.025  1.7427 -0.8052  1.5994
15873TIP3    H269035   6.029   0.493   4.134 -0.1690 -1.4019 -0.2908
15874TIP3   OH269036   6.641   2.130   4.860 -0.1027  0.2132  0.0764
15874TIP3    H169037   6.627   2.182   4.939  1.1445 -0.5281  0.7981
15874TIP3    H269038   6.730   2.153   4.832  0.6692 -1.9025  0.7067
15875TIP3   OH269039   3.691   1.982   5.639 -0.0729  0.3243 -0.4330
15875TIP3    H169040   3.710   1.942   5.723 -1.7025 -3.3338 -1.6963
15875TIP3    H269041   3.741   2.063   5.639  2.6832 -1.2632  2.6489
15876TIP3   OH269042   0.504   6.515   2.460 -0.8143  0.2366  0.2754
15876TIP3    H169043   0.534   6.435   2.417  0.3410  0.0171  1.4379
15876TIP3    H269044   0.488   6.576   2.389 -0.1746 -0.5221 -0.5354
15877TIP3   OH269045   5.437   4.241   2.623 -0.3648 -0.2041 -0.2542
15877TIP3    H169046   5.397   4.156   2.641 -1.6541  0.8737  2.1656
15877TIP3    H269047   5.364   4.296   2.596  0.6992 -0.2359 -3.3768
15878TIP3   OH269048   6.666   2.762  11.519  0.1180  0.1258 -0.1032
15878TIP3    H169049   6.640   2.823  11.450  0.0753  0.7368  0.4471
15878TIP3    H269050   6.665   2.676  11.477 -2.0046  0.2390 -0.2996
15879TIP3   OH269051   2.539   5.193  13.414 -0.3751 -0.2464 -0.0450
15879TIP3    H169052   2.459   5.168  13.461  0.5573 -0.6722  1.3585
15879TIP3    H269053   2.587   5.111  13.403  1.1897  0.3922  1.6841
15880TIP3   OH269054   3.492   1.206   1.030 -0.4856 -0.1086 -0.0605
15880TIP3    H169055   3.492   1.255   0.948  0.3834  0.1286  0.0797
15880TIP3    H269056   3.399   1.199   1.054 -0.8496 -1.4509 -1.8226
15881TIP3   OH269057   2.192   4.362  13.726  0.1331 -0.5677  0.4405
15881TIP3    H169058   2.235   4.277  13.730 -0.6392 -0.9944 -0.1654
15881TIP3    H269059   2.175   4.376  13.633 -0.1125  0.0707  0.5741
15882TIP3   OH269060   1.359   2.240   0.416 -0.3363  0.7981  0.3742
15882TIP3    H169061   1.444   2.256   0.458  0.5565  0.4364 -1.2428
15882TIP3    H269062   1.369   2.276   0.328 -0.8407 -1.8699 -0.8319
15883TIP3   OH269063   3.740   3.862   2.645 -0.6328  0.9406  0.0827
15883TIP3    H169064   3.704   3.796   2.705 -1.6254  1.0396 -0.3845
15883TIP3    H269065   3.800   3.812   2.589 -1.3249  0.4448 -0.2207
15884TIP3   OH269066   1.515   0.090   4.465  0.0064 -0.8974  0.0866
15884TIP3    H169067   1.423   0.090   4.436 -0.1236  2.4024  0.3478
15884TIP3    H269068   1.511   0.111   4.558  1.0708  0.3436 -0.1344
15885TIP3   OH269069   4.316   0.085   4.365  0.2047  0.1981 -0.5202
15885TIP3    H169070   4.316   0.174   4.400  1.8292  0.1332 -0.3372
15885TIP3    H269071   4.296   0.096   4.272  0.4338  0.7505 -0.5035
15886TIP3   OH269072   5.823   4.928   1.820 -0.5497 -0.1926  0.1874
15886TIP3    H169073   5.913   4.900   1.837 -0.6146 -1.3493 -1.3415
15886TIP3    H269074   5.770   4.853   1.846 -0.8664 -0.6900 -1.8704
15887TIP3   OH269075   3.152   4.229  11.308 -0.3517  0.0156  0.3791
15887TIP3    H169076   3.081   4.279  11.267  1.0290  1.3679 -0.4384
15887TIP3    H269077   3.210   4.206  11.235  0.1089 -0.9855  1.0498
15888TIP3   OH269078   5.005   2.189  13.946  0.2345 -0.1377  0.1761
15888TIP3    H169079   5.064   2.254  13.986  0.8726 -0.5212 -0.1304
15888TIP3    H269080   5.025   2.108  13.993  1.6629 -0.8140 -1.5309
15889TIP3   OH269081   1.965   5.014   1.414 -0.2065 -0.4487  0.3337
15889TIP3    H169082   1.937   4.988   1.326  0.7748 -0.8372  0.1210
15889TIP3    H269083   1.893   4.989   1.471 -2.0057  2.1854 -0.6672
15890TIP3   OH269084   3.988   1.818  14.684 -0.1495  0.2386  0.5220
15890TIP3    H169085   3.979   1.846  14.775  1.7726  0.7904  0.5679
15890TIP3    H269086   4.062   1.758  14.685 -0.2380  0.0984 -0.6494
15891TIP3   OH269087   4.972   3.969   5.872 -0.3457  0.1257  0.7840
15891TIP3    H169088   4.976   3.964   5.967  0.8511 -2.2152  0.6459
15891TIP3    H269089   5.052   3.927   5.842 -0.4272  1.3334 -1.2748
15892TIP3   OH269090   2.992   2.377   1.038 -0.2124 -0.2899  0.3893
15892TIP3    H169091   3.036   2.297   1.065 -0.3378 -0.2200  0.8106
15892TIP3    H269092   3.060   2.428   0.993  0.6515  0.6339  2.6585
15893TIP3   OH269093   6.421   0.107   0.272  0.0299 -0.3920  0.6697
15893TIP3    H169094   6.421   0.016   0.242 -0.4266  0.0341 -0.7008
15893TIP3    H269095   6.328   0.126   0.289  0.2170 -0.4311  1.7720
15894TIP3   OH269096   3.035   4.093   1.539  0.1957 -0.2537 -0.0431
15894TIP3    H169097   3.122   4.103   1.500 -1.3757  0.3210 -3.5765
15894TIP3    H269098   3.006   4.006   1.512 -0.5400 -0.2518  0.7071
15895TIP3   OH269099   4.331   3.368   6.701  0.1529 -0.1648  0.4619
15895TIP3    H169100   4.250   3.356   6.652  0.9343 -1.7291 -0.5051
15895TIP3    H269101   4.389   3.414   6.640 -0.0347  1.0380  1.1843
15896TIP3   OH269102   1.675   2.091  11.730 -0.1941  0.0908  0.5366
15896TIP3    H169103   1.704   2.112  11.641 -0.9081  2.2210  0.7746
15896TIP3    H269104   1.612   2.021  11.719  0.3673 -0.2527 -0.5602
15897TIP3   OH269105   6.135   3.005  13.016 -0.6329  0.4149 -0.0221
15897TIP3    H169106   6.152   2.942  13.087 -2.4509 -1.8864 -1.5434
15897TIP3    H269107   6.187   3.082  13.039 -0.6892 -0.5050  3.4769
15898TIP3   OH269108   6.570   5.504  11.237 -0.6608  0.3340 -0.2806
15898TIP3    H169109   6.574   5.587  11.189 -2.3482  0.3055 -0.5144
15898TIP3    H269110   6.484   5.468  11.214 -0.7969 -0.4829  1.4750
15899TIP3   OH269111   1.401   4.142   2.409 -0.0539  0.1422  0.0979
15899TIP3    H169112   1.321   4.157   2.359  1.1166 -0.2413 -1.9413
15899TIP3    H269113   1.380   4.071   2.469 -1.2460  0.0889 -0.3807
15900TIP3   OH269114   3.377   3.982  16.980 -0.1013 -0.5631  0.6758
15900TIP3    H169115   3.433   4.032  16.920 -0.3776 -0.3280  0.6152
15900TIP3    H269116   3.292   3.980  16.938  0.1009 -1.7487  0.3167
15901TIP3   OH269117   4.142   5.580   4.223 -0.0872  0.1900 -0.0836
15901TIP3    H169118   4.157   5.487   4.237 -0.7705 -0.3152 -2.5166
15901TIP3    H269119   4.216   5.609   4.170 -0.6252  0.7074 -0.5623
15902TIP3   OH269120   6.450   4.294   0.267  0.1322  0.3107 -0.2978
15902TIP3    H169121   6.417   4.252   0.187  1.7142 -0.6276 -0.4824
15902TIP3    H269122   6.523   4.348   0.237  0.4443  0.3146  0.4499
15903TIP3   OH269123   2.031   2.586  12.743 -0.0936 -0.3697 -0.3908
15903TIP3    H169124   2.046   2.668  12.697 -3.2351  0.2113 -0.4941
15903TIP3    H269125   2.002   2.612  12.830  0.0708 -1.4042 -0.0146
15904TIP3   OH269126   3.273   3.767  16.373 -0.1770 -0.1122  0.0807
15904TIP3    H169127   3.267   3.675  16.345 -0.1458 -0.5693  1.5460
15904TIP3    H269128   3.186   3.802  16.359 -0.3354 -0.5215  0.0340
15905TIP3   OH269129   1.324   5.978  13.767 -0.2288  0.0175 -0.2181
15905TIP3    H169130   1.287   6.057  13.806 -0.7740 -0.1307 -0.4351
15905TIP3    H269131   1.250   5.917  13.761  0.4736 -1.0031  1.1929
15906TIP3   OH269132   3.939   2.169   3.875  0.1210  0.5051  0.7932
15906TIP3    H169133   3.884   2.150   3.952 -0.7884 -0.0965  0.0052
15906TIP3    H269134   3.974   2.084   3.848 -0.7721  0.4867 -0.3511
15907TIP3   OH269135   2.696   6.382   0.098 -0.5757 -0.2434  0.6880
15907TIP3    H169136   2.727   6.470   0.118 -0.3987 -0.1284 -0.0764
15907TIP3    H269137   2.613   6.395   0.052  0.3320 -0.4006 -1.0419
15908TIP3   OH269138   1.232   4.346   5.837 -0.3670 -0.2589 -0.0629
15908TIP3    H169139   1.281   4.419   5.874 -0.7763  0.4338 -0.8666
15908TIP3    H269140   1.141   4.375   5.838 -0.5776 -0.9199 -0.0097
15909TIP3   OH269141   0.903   3.985   4.593 -0.0569 -0.2316 -0.3905
15909TIP3    H169142   0.827   3.927   4.600 -0.0597 -0.2149 -0.2748
15909TIP3    H269143   0.976   3.927   4.572  0.0646 -0.3655  0.3834
15910TIP3   OH269144   2.134   4.762  11.250 -0.0113  0.1011  0.2975
15910TIP3    H169145   2.172   4.687  11.296  0.9950  0.9914  0.9304
15910TIP3    H269146   2.045   4.733  11.227 -0.3071 -0.5866  2.2191
15911TIP3   OH269147   0.387   1.050  14.484  0.3683  0.0815 -0.2809
15911TIP3    H169148   0.336   0.970  14.468 -0.3421  0.4195  0.2608
15911TIP3    H269149   0.474   1.018  14.509  0.0580 -0.5299  0.0408
15912TIP3   OH269150   5.706   0.287  14.480 -0.0517 -0.2623  0.4567
15912TIP3    H169151   5.703   0.315  14.388 -1.2768 -0.6979  0.3563
15912TIP3    H269152   5.799   0.273  14.498  0.1222 -1.0890 -0.9974
15913TIP3   OH269153   6.496   1.936  10.656 -0.3922 -0.2606  0.2318
15913TIP3    H169154   6.433   1.956  10.725 -1.4700 -2.2191 -0.1637
15913TIP3    H269155   6.452   1.961  10.575 -0.1099 -0.2887  0.0702
15914TIP3   OH269156   4.108   4.202   3.759  0.2234  0.3437 -0.3670
15914TIP3    H169157   4.075   4.272   3.702 -1.5382 -1.2754 -1.3982
15914TIP3    H269158   4.138   4.134   3.698 -1.1983 -1.1895  0.5980
15915TIP3   OH269159   4.488   4.957   4.852 -0.3097  0.0629  0.4317
15915TIP3    H169160   4.433   4.943   4.775 -0.1583 -1.1068  0.5297
15915TIP3    H269161   4.545   5.031   4.828 -2.5003  1.8666  0.6572
15916TIP3   OH269162   0.672   2.489   3.600  0.2932 -0.0441 -0.1454
15916TIP3    H169163   0.596   2.442   3.566 -1.7585  2.1795  1.2964
15916TIP3    H269164   0.703   2.541   3.526 -0.7474  0.4808 -0.2207
15917TIP3   OH269165   5.027   6.132  13.550 -0.4929 -0.0882 -0.2393
15917TIP3    H169166   5.004   6.145  13.458 -0.4140 -0.3706 -0.2974
15917TIP3    H269167   5.082   6.208  13.571 -1.6309  0.7054 -0.0414
15918TIP3   OH269168   5.909   3.321   4.712 -0.5716  0.1959 -0.0885
15918TIP3    H169169   5.981   3.380   4.736  1.4905 -2.0467 -0.6106
15918TIP3    H269170   5.901   3.330   4.617  2.1545 -2.8866 -0.7145
15919TIP3   OH269171   2.392   3.614  16.867 -0.3822 -0.1614 -0.1949
15919TIP3    H169172   2.436   3.569  16.795  1.0820  1.9182 -0.6890
15919TIP3    H269173   2.458   3.677  16.898 -1.6673  0.2738  1.7112
15920TIP3   OH269174   2.095   3.133  13.733  0.0905  0.3236  0.6163
15920TIP3    H169175   2.079   3.106  13.824 -1.1406 -0.3613  0.1986
15920TIP3    H269176   2.186   3.109  13.717 -0.3683 -1.7374  0.9161
15921TIP3   OH269177   3.864   2.328   5.365 -0.1616  0.3336  0.5420
15921TIP3    H169178   3.865   2.411   5.411  0.2617  0.6813 -0.0812
15921TIP3    H269179   3.862   2.352   5.272  2.2096 -0.3046  0.2820
15922TIP3   OH269180   5.633   3.359   1.252 -0.2717 -0.1035 -0.2035
15922TIP3    H169181   5.646   3.451   1.227  2.3187 -0.2265  0.5430
15922TIP3    H269182   5.665   3.309   1.177  0.6289 -0.3900  0.3548
15923TIP3   OH269183   5.835   6.750   1.516 -0.0850 -0.1941 -0.1145
15923TIP3    H169184   5.855   6.699   1.595 -0.2022 -1.3160 -0.8054
15923TIP3    H269185   5.905   6.816   1.512 -0.4907  0.3527  1.3326
15924TIP3   OH269186   2.023   6.037  13.378  0.0865  0.0896 -0.4880
15924TIP3    H169187   2.052   6.016  13.289  2.2198 -0.0730  0.2159
15924TIP3    H269188   2.021   6.133  13.380  1.8151  0.1360 -0.1875
15925TIP3   OH269189   3.438   4.014   2.167  0.5256 -0.5743 -0.2148
15925TIP3    H169190   3.499   3.967   2.110  0.0937  0.2542 -1.3890
15925TIP3    H269191   3.471   4.104   2.169 -1.6127  0.3294 -2.3592
15926TIP3   OH269192   0.890   3.986   2.577  0.3038 -0.4211  0.7497
15926TIP3    H169193   0.959   3.950   2.632  1.5157  2.6576  1.3536
15926TIP3    H269194   0.929   3.994   2.490  0.3542  0.2694  0.8310
15927TIP3   OH269195   3.282   5.896  16.064  0.1136  1.0720  0.1514
15927TIP3    H169196   3.374   5.870  16.077  0.6497  2.6534 -0.3879
15927TIP3    H269197   3.261   5.866  15.976 -0.9844 -2.3326  1.4712
15928TIP3   OH269198   3.858   2.856   1.227 -0.5363  0.5758 -0.1168
15928TIP3    H169199   3.844   2.923   1.160  0.6165  2.0794  1.1114
15928TIP3    H269200   3.917   2.897   1.290 -1.6790 -0.7603  1.8989
15929TIP3   OH269201   3.498   2.347   2.087  0.4620  0.0852 -0.6849
15929TIP3    H169202   3.584   2.384   2.066  0.2735  0.5361 -0.6770
15929TIP3    H269203   3.447   2.359   2.007  0.4426 -0.2867 -0.7269
15930TIP3   OH269204   3.880   3.706  15.727  0.6376  0.1564  0.0796
15930TIP3    H169205   3.960   3.653  15.730  0.5471 -0.0067 -0.3700
15930TIP3    H269206   3.815   3.652  15.771  0.5889 -0.0381 -0.2262
15931TIP3   OH269207   4.425   2.871  12.959 -0.3074  0.2524  0.3283
15931TIP3    H169208   4.442   2.952  13.007 -0.4026  0.3432  0.2102
15931TIP3    H269209   4.512   2.841  12.930 -0.0659 -0.7073  2.0116
15932TIP3   OH269210   3.880   1.284  16.294 -0.4337 -0.3638 -0.3292
15932TIP3    H169211   3.906   1.375  16.282  1.2960 -0.4060  2.7002
15932TIP3    H269212   3.788   1.289  16.320 -0.3288  0.5037 -0.1180
15933TIP3   OH269213   6.233   0.257  13.793 -0.6735  0.2710  0.2578
15933TIP3    H169214   6.327   0.241  13.801 -0.2900  0.8208 -2.5642
15933TIP3    H269215   6.195   0.170  13.780  0.1099  0.4373 -3.8073
15934TIP3   OH269216   2.325   5.713  12.918 -0.6930  0.2653  0.2845
15934TIP3    H169217   2.350   5.702  13.010 -0.4380  0.8369  0.2848
15934TIP3    H269218   2.284   5.630  12.894  0.2054 -0.2699  0.6040
15935TIP3   OH269219   1.116   0.726  13.870  0.5557  0.3543 -0.9538
15935TIP3    H169220   1.167   0.799  13.835  2.5716 -0.1270  0.9264
15935TIP3    H269221   1.082   0.758  13.954 -0.7277  0.0150 -1.3273
15936TIP3   OH269222   0.108   5.928   3.051 -0.5253  0.2477  0.1587
15936TIP3    H169223   0.141   5.858   3.107 -3.9649 -1.1868  0.4996
15936TIP3    H269224   0.137   5.905   2.963  0.5694 -0.1939  0.6294
15937TIP3   OH269225   4.116   5.325  15.842 -0.5530 -0.1222  0.1062
15937TIP3    H169226   4.083   5.404  15.800 -1.1012 -1.1525 -1.4385
15937TIP3    H269227   4.053   5.307  15.912 -1.2628 -0.0414 -0.5055
15938TIP3   OH269228   0.078   5.424  11.872  0.5846 -0.2029 -0.7533
15938TIP3    H169229   0.078   5.330  11.852 -1.9990 -0.5412  0.5626
15938TIP3    H269230  -0.008   5.455  11.843  0.2204  1.0923  1.5487
15939TIP3   OH269231   4.283   5.863  15.165  0.4363 -0.0520  0.3155
15939TIP3    H169232   4.321   5.784  15.127 -1.4063 -0.7347 -0.2115
15939TIP3    H269233   4.356   5.924  15.174  1.3351 -0.7145 -2.1412
15940TIP3   OH269234   1.690   2.283   3.707  0.0510  0.2380 -0.1209
15940TIP3    H169235   1.666   2.354   3.648 -0.0091  0.2479 -0.0839
15940TIP3    H269236   1.785   2.294   3.720 -0.2968  1.5172  1.4627
15941TIP3   OH269237   2.135   5.125   3.827 -0.1499  0.1618  0.2947
15941TIP3    H169238   2.063   5.174   3.868  0.7701  0.5270  1.5151
15941TIP3    H269239   2.210   5.143   3.883  0.2907 -2.3574  0.5507
15942TIP3   OH269240   3.221   4.286  14.289  0.1498  0.2532 -0.4378
15942TIP3    H169241   3.146   4.330  14.249  0.7448  0.7080 -1.0676
15942TIP3    H269242   3.227   4.202  14.243  0.9787  0.8743 -1.5024
15943TIP3   OH269243   3.923   4.101  14.142 -0.0652  0.2884  0.4684
15943TIP3    H169244   3.835   4.126  14.169 -0.1299  1.0053 -0.3637
15943TIP3    H269245   3.911   4.064  14.054  0.6258  1.6195 -0.1982
15944TIP3   OH269246   0.487   1.624  13.689 -0.1843 -0.2394 -0.3052
15944TIP3    H169247   0.469   1.718  13.688  0.7939 -0.0412 -1.7071
15944TIP3    H269248   0.420   1.586  13.632 -1.9359 -0.6978  1.9751
15945TIP3   OH269249   3.550   5.774  14.258 -0.4549  0.3244 -0.0546
15945TIP3    H169250   3.510   5.855  14.229 -0.3124  0.3205 -0.2622
15945TIP3    H269251   3.494   5.705  14.223 -1.0828  0.3526  0.8779
15946TIP3   OH269252   1.914   1.672  15.638  0.3961  0.0330  1.0599
15946TIP3    H169253   1.960   1.617  15.701  0.5525  0.1220  1.0228
15946TIP3    H269254   1.827   1.632  15.630 -0.1692  0.9262  2.5079
15947TIP3   OH269255   2.617   6.437  16.966 -0.0506 -0.1518 -0.2483
15947TIP3    H169256   2.576   6.469  17.046  1.9387  0.6145  0.5149
15947TIP3    H269257   2.711   6.443  16.984  0.5413  2.8756 -3.7063
15948TIP3   OH269258   1.697   4.999   5.167 -0.6331  0.3560 -0.2713
15948TIP3    H169259   1.786   4.978   5.139 -0.0907 -0.0097  1.6676
15948TIP3    H269260   1.645   4.999   5.086  0.3075 -3.5094 -0.9237
15949TIP3   OH269261   4.013   5.258   0.950 -0.4565 -0.1164 -0.1733
15949TIP3    H169262   4.099   5.302   0.948  0.2148 -1.4241 -0.4668
15949TIP3    H269263   3.951   5.328   0.971  0.6144  0.9560 -0.5266
15950TIP3   OH269264   4.931   6.555  16.830 -0.4979 -0.4561 -0.1011
15950TIP3    H169265   4.973   6.570  16.745  0.8764  1.3649  0.8765
15950TIP3    H269266   5.003   6.542  16.891 -1.4101  0.1160  1.1282
15951TIP3   OH269267   4.151   4.637  14.151 -0.0326  0.0896 -0.3550
15951TIP3    H169268   4.135   4.548  14.183 -3.1039 -0.2304 -2.4755
15951TIP3    H269269   4.118   4.694  14.220 -1.5960 -0.5108 -0.5891
15952TIP3   OH269270   4.419   4.405  15.604 -0.1893 -0.1581 -0.1385
15952TIP3    H169271   4.330   4.373  15.589  0.1094 -0.8658 -0.4243
15952TIP3    H269272   4.454   4.418  15.516 -0.0349  0.1867 -0.0248
15953TIP3   OH269273   0.683   0.320   0.636  0.8373  0.7781  0.3631
15953TIP3    H169274   0.685   0.403   0.590  1.5519  0.6484  0.1551
15953TIP3    H269275   0.593   0.312   0.668  0.1584  0.5850 -1.5097
15954TIP3   OH269276   4.940   0.376   1.400 -0.0872  0.2195 -0.6359
15954TIP3    H169277   4.852   0.358   1.367 -0.0614 -1.9632  0.3933
15954TIP3    H269278   4.988   0.295   1.386  0.8552  0.3341  1.6823
15955TIP3   OH269279   3.982   2.087  16.263 -0.1310 -0.0791 -0.2393
15955TIP3    H169280   4.049   2.150  16.291 -0.0574 -1.2529  2.3736
15955TIP3    H269281   4.008   2.062  16.174  1.4563  1.4000 -0.2250
15956TIP3   OH269282   4.332   0.592   5.550  0.4267 -0.2673  0.6455
15956TIP3    H169283   4.245   0.611   5.515  0.3269 -0.9285  0.5243
15956TIP3    H269284   4.319   0.593   5.645  0.2538 -0.5195  0.6260
15957TIP3   OH269285   5.069   4.939   4.339  0.2219  0.3958  0.1657
15957TIP3    H169286   5.134   4.941   4.410  1.1158  0.7174 -0.6542
15957TIP3    H269287   5.064   5.030   4.309  0.0608  0.2016 -0.3921
15958TIP3   OH269288   1.834   2.465   2.668  0.0158 -0.2532  0.2682
15958TIP3    H169289   1.833   2.504   2.755 -1.7351 -1.7183  0.9327
15958TIP3    H269290   1.781   2.524   2.614  1.2548  0.7538  0.1213
15959TIP3   OH269291   4.752   5.964  10.731  0.1627 -0.6869  0.3112
15959TIP3    H169292   4.832   5.972  10.783 -0.6534  0.7635  1.3643
15959TIP3    H269293   4.747   5.871  10.709  0.8180 -1.2317  2.3404
15960TIP3   OH269294   1.531   3.951  14.911  0.0188 -0.8486  0.2201
15960TIP3    H169295   1.495   4.032  14.874  0.3521 -0.4951  0.6728
15960TIP3    H269296   1.474   3.933  14.986 -2.0085 -2.7323 -1.6892
15961TIP3   OH269297   2.277   5.383   0.825  0.7709  0.0183  0.6531
15961TIP3    H169298   2.242   5.295   0.836  1.3594  0.0046  2.6247
15961TIP3    H269299   2.251   5.429   0.904  1.5419  1.2503  0.2011
15962TIP3   OH269300   2.186   2.840  10.858 -0.3732  0.5666  0.1448
15962TIP3    H169301   2.121   2.892  10.905  0.4276  2.3193 -0.6086
15962TIP3    H269302   2.267   2.851  10.908  0.0380  0.8868 -0.5818
15963TIP3   OH269303   6.260   1.928   5.694  0.0941 -0.0422 -0.4089
15963TIP3    H169304   6.291   1.839   5.679  0.7070  0.3900 -1.8030
15963TIP3    H269305   6.175   1.932   5.650 -0.4381 -0.2554  0.5890
15964TIP3   OH269306   1.153   0.061  16.832 -0.2487 -0.0126 -0.4076
15964TIP3    H169307   1.220   0.048  16.899 -2.6735  0.1409  2.1207
15964TIP3    H269308   1.150   0.156  16.819 -0.4840  0.0358  0.0039
15965TIP3   OH269309   3.619   2.435  16.208 -0.1562 -0.0008 -0.0592
15965TIP3    H169310   3.610   2.436  16.113 -0.2635  0.5764 -0.0399
15965TIP3    H269311   3.702   2.390  16.224 -0.2526 -0.3043 -0.4169
15966TIP3   OH269312   0.420   2.919   3.234  0.0428  0.3818  0.2780
15966TIP3    H169313   0.477   2.884   3.165  0.2283  0.5813  0.3302
15966TIP3    H269314   0.412   2.848   3.298  0.9731  0.6783  0.7241
15967TIP3   OH269315   6.314   6.436   1.120 -0.1774 -0.6189  0.0906
15967TIP3    H169316   6.314   6.532   1.120 -0.4665 -0.6162 -0.1638
15967TIP3    H269317   6.221   6.413   1.114 -0.2342 -0.9180  1.6722
15968TIP3   OH269318   5.814   3.739  12.432  0.2848  0.1179 -0.5320
15968TIP3    H169319   5.818   3.790  12.351 -0.1245 -0.4357 -0.9087
15968TIP3    H269320   5.821   3.804  12.502 -2.7870  0.9977 -0.9620
15969TIP3   OH269321   2.275   0.282   5.158  0.3907  0.5819 -0.0487
15969TIP3    H169322   2.241   0.362   5.117 -2.7506 -0.2558  0.7328
15969TIP3    H269323   2.310   0.231   5.085 -0.0159  1.5364 -0.9336
15970TIP3   OH269324   3.556   0.752  11.216 -0.8138 -0.7221  0.0691
15970TIP3    H169325   3.592   0.794  11.294 -0.8513  0.7685 -0.7081
15970TIP3    H269326   3.482   0.807  11.191  0.8962  0.4630 -2.6535
15971TIP3   OH269327   0.907   1.941  13.127  0.2363  0.3401  0.3878
15971TIP3    H169328   0.851   1.924  13.051  0.5081  0.6659  0.1118
15971TIP3    H269329   0.846   1.965  13.196 -0.0518 -0.4497  0.4128
15972TIP3   OH269330   6.091   1.466  10.888  0.4153 -0.3330  0.5940
15972TIP3    H169331   6.045   1.383  10.901  0.0882  0.0517  2.0419
15972TIP3    H269332   6.023   1.526  10.858  0.6045 -0.5222 -0.2225
15973TIP3   OH269333   3.700   3.172  14.720 -0.5069 -0.3419 -0.1469
15973TIP3    H169334   3.733   3.226  14.647 -0.2767 -0.8814 -0.4443
15973TIP3    H269335   3.681   3.087  14.680 -0.4507 -0.6156  0.4058
15974TIP3   OH269336   2.516   2.201  12.268 -1.3200 -0.0037  0.2501
15974TIP3    H169337   2.601   2.159  12.253 -1.5689 -0.3447 -0.2152
15974TIP3    H269338   2.503   2.196  12.362 -1.1017 -0.5004  0.2548
15975TIP3   OH269339   3.344   3.982  16.027  0.6456  0.4220 -0.5530
15975TIP3    H169340   3.302   4.065  16.003  1.4597  1.2011  0.6920
15975TIP3    H269341   3.388   3.954  15.946  1.4166  1.8409 -0.6404
15976TIP3   OH269342   1.495   4.949  14.970 -0.2973  0.5952  0.1373
15976TIP3    H169343   1.477   5.015  15.036 -1.7390  0.3848 -0.0166
15976TIP3    H269344   1.492   4.996  14.887  1.1445  0.7899  0.1852
15977TIP3   OH269345   1.571   6.615   3.486 -0.4054 -0.1696 -0.9202
15977TIP3    H169346   1.652   6.625   3.436  0.2754 -0.1843  0.1759
15977TIP3    H269347   1.529   6.701   3.480 -0.1182 -0.0442 -1.1377
15978TIP3   OH269348   6.574   0.589   0.901 -0.5735  0.3530  0.2251
15978TIP3    H169349   6.596   0.624   0.988  0.3373 -0.6729  0.4184
15978TIP3    H269350   6.648   0.614   0.846  0.5743 -2.0900  0.5964
15979TIP3   OH269351   2.197   3.015   1.206 -0.5006 -0.1941  0.5103
15979TIP3    H169352   2.170   3.102   1.237 -0.8418 -0.2039  0.2401
15979TIP3    H269353   2.239   2.975   1.282 -0.1653  0.2822  0.5838
15980TIP3   OH269354   5.911   3.244   3.305 -0.3782  0.8164  0.2026
15980TIP3    H169355   5.912   3.334   3.338  1.0433  0.8411  0.1333
15980TIP3    H269356   5.945   3.251   3.216  0.4506  0.1178  0.4583
15981TIP3   OH269357   5.571   2.340  14.570 -0.8267  0.2111 -0.3503
15981TIP3    H169358   5.520   2.343  14.490 -1.3651  1.0532  0.0235
15981TIP3    H269359   5.542   2.415  14.621 -0.7804 -0.5320  0.8113
15982TIP3   OH269360   4.733   6.781  16.340 -0.3624 -0.0920  0.0847
15982TIP3    H169361   4.784   6.858  16.316  1.9673 -1.1958  1.3893
15982TIP3    H269362   4.710   6.795  16.432 -0.2029 -0.8139  0.2354
15983TIP3   OH269363   3.978   1.137  15.096  0.3363  0.3932 -0.5162
15983TIP3    H169364   3.902   1.095  15.055  0.5185  2.1594 -2.8044
15983TIP3    H269365   3.940   1.197  15.161 -0.1172 -0.2018 -0.2270
15984TIP3   OH269366   4.943   1.490  10.870 -0.3284 -0.4560 -0.1323
15984TIP3    H169367   5.013   1.440  10.911  0.6011  0.6074 -0.4030
15984TIP3    H269368   4.865   1.468  10.921  0.4680 -0.5489  1.0516
15985TIP3   OH269369   1.786   6.152  16.692  0.1554  0.0691 -0.0076
15985TIP3    H169370   1.772   6.245  16.708  0.4472  0.1874 -0.4520
15985TIP3    H269371   1.750   6.109  16.770  1.6472  0.6593  1.0335
15986TIP3   OH269372   2.943   1.231   2.824  0.0186  0.7027  0.1642
15986TIP3    H169373   2.978   1.211   2.911  1.6688 -1.3573 -0.9131
15986TIP3    H269374   2.872   1.168   2.812 -0.3734  1.1522  0.1238
15987TIP3   OH269375   3.208   5.998  13.517 -0.4937  0.1040  0.5831
15987TIP3    H169376   3.251   5.949  13.587  0.4838  0.9996  0.6170
15987TIP3    H269377   3.279   6.026  13.459 -1.1120  0.8335  0.1632
15988TIP3   OH269378   4.029   2.900  11.897  0.0413 -0.0893 -0.5142
15988TIP3    H169379   4.102   2.839  11.908 -0.5599 -0.6817  0.2503
15988TIP3    H269380   3.969   2.879  11.969 -0.0826  1.5481 -0.1198
15989TIP3   OH269381   1.502   2.460   0.532  0.0248  1.0387 -0.7062
15989TIP3    H169382   1.561   2.452   0.607 -0.2259 -1.8483 -0.7528
15989TIP3    H269383   1.432   2.517   0.563  1.3535  2.1711  0.2919
15990TIP3   OH269384   5.828   1.404  15.844 -0.1304 -0.0924 -0.2525
15990TIP3    H169385   5.784   1.476  15.799  1.4110  1.3902  0.5670
15990TIP3    H269386   5.810   1.419  15.937  0.2426 -0.7325 -0.0749
15991TIP3   OH269387   4.695   1.656   3.049 -0.5819  0.2516  0.2526
15991TIP3    H169388   4.737   1.711   3.115 -0.7997 -1.4092  1.7864
15991TIP3    H269389   4.616   1.705   3.025 -0.5096  0.8629  1.2177
15992TIP3   OH269390   0.036   0.685  11.942  0.3894  0.4907 -0.7393
15992TIP3    H169391   0.046   0.685  11.847 -1.6010  0.8763 -0.9670
15992TIP3    H269392  -0.057   0.698  11.957  0.4354 -1.1280  1.2497
15993TIP3   OH269393   0.122   4.268   1.856 -0.1802 -0.1157  0.6647
15993TIP3    H169394   0.029   4.268   1.880 -0.0250 -0.5605  1.2707
15993TIP3    H269395   0.129   4.200   1.789  0.0202 -1.3189  1.8783
15994TIP3   OH269396   5.787   0.589   2.923  0.1534 -0.8753  0.2456
15994TIP3    H169397   5.845   0.514   2.912  0.9855 -0.3174  0.7464
15994TIP3    H269398   5.721   0.559   2.986  1.8373 -0.4522  2.2661
15995TIP3   OH269399   4.205   3.435   4.810 -0.4989  0.2575  0.2216
15995TIP3    H169400   4.249   3.503   4.760 -0.3321  1.2960  1.7386
15995TIP3    H269401   4.126   3.478   4.844 -1.5100 -0.9259 -0.5858
15996TIP3   OH269402   0.272   6.622  11.307 -0.3320  0.0902  0.2514
15996TIP3    H169403   0.236   6.692  11.252  0.5014 -0.0583 -0.4963
15996TIP3    H269404   0.339   6.665  11.360  0.9374 -0.3363 -0.9782
15997TIP3   OH269405   6.010   5.151  11.312  0.7073 -0.3315  0.1227
15997TIP3    H169406   6.045   5.068  11.281  2.1419  0.0677  0.6425
15997TIP3    H269407   6.018   5.210  11.237  0.2326 -0.5083 -0.0660
15998TIP3   OH269408   6.556   0.350   0.364 -1.1602 -0.5964 -0.2426
15998TIP3    H169409   6.512   0.288   0.307 -0.8670 -1.0064 -0.0286
15998TIP3    H269410   6.501   0.354   0.442 -1.0859 -0.7286 -0.1820
15999TIP3   OH269411   5.580   5.332  16.712 -0.1813 -0.2874  0.5139
15999TIP3    H169412   5.558   5.393  16.782  1.2277  0.2111  0.5286
15999TIP3    H269413   5.622   5.386  16.645  2.4615 -1.4217  1.1711
16000TIP3   OH269414   4.287   0.561  15.176  0.5383  0.1719  0.6165
16000TIP3    H169415   4.284   0.606  15.260  3.2632 -0.5470  1.1198
16000TIP3    H269416   4.251   0.625  15.114  2.6967  2.4139  1.6112
16001TIP3   OH269417   0.114   5.559   0.653 -0.1778 -0.0266  0.3102
16001TIP3    H169418   0.149   5.569   0.741 -0.4637  0.9728  0.3135
16001TIP3    H269419   0.043   5.624   0.647 -1.8760 -1.8386  0.2250
16002TIP3   OH269420   6.614   1.243   1.152 -0.0635  0.4045  0.1472
16002TIP3    H169421   6.647   1.180   1.088  1.9378  0.2624  1.2645
16002TIP3    H269422   6.635   1.328   1.114 -2.5235  0.4309 -1.2361
16003TIP3   OH269423   3.981   2.402   4.019 -0.0514 -0.4745 -0.3184
16003TIP3    H169424   3.970   2.488   3.979  0.9802 -0.2800 -0.1921
16003TIP3    H269425   3.951   2.340   3.952  2.2259 -0.1868 -1.6454
16004TIP3   OH269426   0.785   5.792  14.292  0.0653  0.7253  0.1275
16004TIP3    H169427   0.773   5.700  14.268 -1.4514  0.9751 -0.1020
16004TIP3    H269428   0.862   5.792  14.348 -0.1394 -0.7391  0.4292
16005TIP3   OH269429   6.399   1.350  14.060 -0.5476 -0.1811 -0.2564
16005TIP3    H169430   6.321   1.394  14.096 -1.0564 -0.3490 -1.1573
16005TIP3    H269431   6.471   1.409  14.082 -1.2686  1.2726 -1.7057
16006TIP3   OH269432   0.075   6.431  16.375  1.0389 -0.0562 -0.4679
16006TIP3    H169433   0.147   6.460  16.319  1.8215 -0.3470  0.3668
16006TIP3    H269434   0.117   6.406  16.457  0.1698 -1.6991 -0.4842
16007TIP3   OH269435   0.582   5.768  14.481 -0.4730  0.2898 -0.3246
16007TIP3    H169436   0.599   5.821  14.403 -1.5709  0.3554 -0.5266
16007TIP3    H269437   0.631   5.687  14.467  0.9866  1.1168 -0.1466
16008TIP3   OH269438   5.057   2.249  11.015  0.3214 -0.0405  0.3130
16008TIP3    H169439   5.023   2.332  10.982  1.7810  0.7280  0.7006
16008TIP3    H269440   5.136   2.233  10.964  1.6716  0.3155  2.2263
16009TIP3   OH269441   6.366   0.483   4.494 -0.2483  0.0829 -0.3718
16009TIP3    H169442   6.400   0.421   4.558 -0.2020  1.0484  0.5684
16009TIP3    H269443   6.324   0.429   4.428 -3.7771 -0.8945  2.4659
16010TIP3   OH269444   4.383   4.394   3.844  0.7420  0.1412  0.4461
16010TIP3    H169445   4.338   4.453   3.783  0.0021 -0.4467  0.4044
16010TIP3    H269446   4.338   4.310   3.832  1.2677 -0.2286  1.0693
16011TIP3   OH269447   2.120   3.117   0.946  0.6985 -0.2499 -0.1767
16011TIP3    H169448   2.057   3.127   0.875  0.1278 -0.9441  0.2183
16011TIP3    H269449   2.070   3.075   1.017  1.7182 -1.2796 -0.0434
16012TIP3   OH269450   5.944   0.707   4.186  0.2306 -0.0956 -0.4296
16012TIP3    H169451   6.024   0.754   4.207  0.3317  0.3922 -1.8583
16012TIP3    H269452   5.921   0.661   4.266  1.5970  0.2645  0.1703
16013TIP3   OH269453   6.587   0.916   1.541 -0.3822  0.0485  0.1357
16013TIP3    H169454   6.639   0.983   1.497 -0.4517  0.3731  0.5511
16013TIP3    H269455   6.642   0.837   1.536  0.0409  0.3273  0.3521
16014TIP3   OH269456   5.362   1.177   5.016 -0.2533 -0.3477 -0.3170
16014TIP3    H169457   5.375   1.267   4.985 -1.7063  0.1435  0.4681
16014TIP3    H269458   5.284   1.147   4.970 -1.0907 -0.4127  1.1254
16015TIP3   OH269459   5.535   2.053   1.844  0.4158  0.0067  0.5746
16015TIP3    H169460   5.597   2.042   1.916  0.9510 -0.4603  0.0504
16015TIP3    H269461   5.559   1.985   1.781 -1.3561 -0.9213  0.8771
16016TIP3   OH269462   1.191   0.680   1.336  0.3350 -0.1124 -0.5863
16016TIP3    H169463   1.217   0.749   1.397  0.4662 -0.2310 -0.5081
16016TIP3    H269464   1.255   0.685   1.265 -0.1138  0.3580 -0.9669
16017TIP3   OH269465   4.320   1.411  13.925  0.5209 -0.1747 -0.1204
16017TIP3    H169466   4.307   1.379  13.836 -0.4289  1.7212 -0.6979
16017TIP3    H269467   4.413   1.433  13.930  0.6849 -0.7967 -0.4813
16018TIP3   OH269468   1.935   1.732   4.242 -0.1124  0.0161 -0.3115
16018TIP3    H169469   1.992   1.773   4.307 -0.2275  1.2748 -0.9916
16018TIP3    H269470   1.847   1.749   4.274 -0.1465 -0.3368 -0.2173
16019TIP3   OH269471   0.136   6.055  14.470  0.1476 -0.1159 -0.3064
16019TIP3    H169472   0.124   5.965  14.440  0.8925  0.0375 -1.0771
16019TIP3    H269473   0.064   6.104  14.429 -0.2766 -0.3665  0.1391
16020TIP3   OH269474   0.101   3.999   2.173  0.5996 -0.6373 -0.3378
16020TIP3    H169475   0.016   3.998   2.128  0.1723  1.1387  0.4129
16020TIP3    H269476   0.160   3.955   2.112 -0.3385  0.2712 -1.9442
16021TIP3   OH269477   0.704   1.662  16.934  0.4025  0.3914 -0.0209
16021TIP3    H169478   0.610   1.665  16.915  0.5678 -1.8544 -1.3029
16021TIP3    H269479   0.726   1.752  16.960 -2.2598  0.7547  1.1528
16022TIP3   OH269480   5.451   6.340   3.920  0.3534  0.6820  0.3706
16022TIP3    H169481   5.384   6.392   3.877  1.2793  2.1032  0.5831
16022TIP3    H269482   5.523   6.335   3.856  0.5130  0.1766  0.5824
16023TIP3   OH269483   4.772   0.507  15.202  0.4399  0.2714 -0.3487
16023TIP3    H169484   4.852   0.479  15.247  0.7414  1.8687  0.1556
16023TIP3    H269485   4.710   0.436  15.216  1.7961 -1.0312 -0.8204
16024TIP3   OH269486   5.248   1.997  12.660  0.3718  0.0934 -0.7874
16024TIP3    H169487   5.175   1.936  12.649  0.7100  0.0229 -2.8320
16024TIP3    H269488   5.239   2.029  12.750 -0.5917 -1.9530 -0.1156
16025TIP3   OH269489   0.536   0.081  15.175 -0.9193  0.5440 -0.0245
16025TIP3    H169490   0.609   0.062  15.117 -0.8888  2.4891 -0.6752
16025TIP3    H269491   0.566   0.155  15.227 -1.8701  0.3855  0.7559
16026TIP3   OH269492   6.263   6.538  12.330  0.1744 -0.1392  0.0004
16026TIP3    H169493   6.357   6.542  12.309  0.6966  1.4955  2.4450
16026TIP3    H269494   6.220   6.536  12.245  2.4166 -0.4924 -1.1740
16027TIP3   OH269495   2.775   3.887   1.096 -0.1249  0.5417 -0.2727
16027TIP3    H169496   2.722   3.891   1.016 -1.5266  0.2882  0.6266
16027TIP3    H269497   2.839   3.817   1.079 -0.7681  0.1098 -0.9595
16028TIP3   OH269498   3.712   5.962   1.310 -0.1515  0.1456  0.8135
16028TIP3    H169499   3.669   6.026   1.367 -1.8345 -0.9859  0.8478
16028TIP3    H269500   3.753   6.015   1.241 -1.6545  1.2594  0.7449
16029TIP3   OH269501   3.994   2.888   4.064  0.5094  0.0529 -0.6399
16029TIP3    H169502   4.083   2.921   4.057  0.6956  0.3962  2.4849
16029TIP3    H269503   3.999   2.798   4.032  1.7872  0.3615 -1.3165
16030TIP3   OH269504   4.836   6.241  11.041 -0.3358 -0.2182 -0.2686
16030TIP3    H169505   4.910   6.181  11.049 -0.1194  0.1857  0.9049
16030TIP3    H269506   4.873   6.319  10.999 -0.2647 -0.3067 -0.3695
16031TIP3   OH269507   5.763   3.590  12.096  0.3840  0.3948  0.4706
16031TIP3    H169508   5.688   3.649  12.093 -0.4782 -0.5766  2.3061
16031TIP3    H269509   5.759   3.543  12.013 -1.2421  0.1020  0.7059
16032TIP3   OH269510   4.158   0.991  11.342  0.1594 -0.2840 -0.3160
16032TIP3    H169511   4.193   0.984  11.431 -0.6038  0.9710  0.0905
16032TIP3    H269512   4.070   0.955  11.349  0.2090 -0.4702 -0.6413
16033TIP3   OH269513   0.253   1.841   2.258  0.8060 -0.9985 -0.2766
16033TIP3    H169514   0.185   1.865   2.321  1.5970 -0.5843  0.4248
16033TIP3    H269515   0.294   1.763   2.295  1.4675 -0.5824 -0.1277
16034TIP3   OH269516   0.086   3.383   4.224 -0.3906 -0.1487 -0.2275
16034TIP3    H169517   0.026   3.426   4.286 -1.2360  0.6797 -1.5722
16034TIP3    H269518   0.032   3.315   4.183 -0.1123 -0.0837 -0.7023
16035TIP3   OH269519   6.103   6.228   4.476 -0.1219 -0.3063  0.8215
16035TIP3    H169520   6.132   6.319   4.477  0.4522 -0.4861  0.4925
16035TIP3    H269521   6.181   6.178   4.455 -0.5888 -0.8223  0.2982
16036TIP3   OH269522   0.391   1.085   2.796  0.0819  0.0614  0.5687
16036TIP3    H169523   0.438   1.060   2.717  0.2045  1.8042  0.0568
16036TIP3    H269524   0.299   1.086   2.770 -0.0654 -1.4389  1.0324
16037TIP3   OH269525   5.834   1.707   4.543  0.3008  0.2115 -0.0510
16037TIP3    H169526   5.891   1.636   4.513 -0.4716 -0.8644  0.9795
16037TIP3    H269527   5.766   1.663   4.593 -0.0282  1.7095  0.8398
16038TIP3   OH269528   1.523   4.287   1.847  0.5024 -0.1046 -0.4839
16038TIP3    H169529   1.537   4.245   1.762  3.8219 -0.1560  0.0096
16038TIP3    H269530   1.552   4.377   1.833  2.6559 -0.5321  0.9815
16039TIP3   OH269531   0.618   0.270   2.646 -0.1685  0.1236  0.3879
16039TIP3    H169532   0.552   0.201   2.656 -1.1653  0.4534 -3.1905
16039TIP3    H269533   0.700   0.222   2.635 -0.1441 -0.3491  2.4356
16040TIP3   OH269534   2.656   1.455   4.101  0.0613  0.7346 -0.4944
16040TIP3    H169535   2.578   1.401   4.114  0.5824  0.2504  0.6821
16040TIP3    H269536   2.642   1.532   4.156  1.3247 -0.3309  1.3943
16041TIP3   OH269537   1.477   1.910   2.942  0.4566 -0.4201  0.1617
16041TIP3    H169538   1.537   1.908   2.868  0.6726  0.0844  0.3211
16041TIP3    H269539   1.450   1.819   2.954 -0.9551 -0.2763 -1.6493
16042TIP3   OH269540   2.139   5.316  14.670  0.3174 -0.2087  0.5671
16042TIP3    H169541   2.094   5.387  14.715  0.5911 -0.3476  1.0595
16042TIP3    H269542   2.170   5.355  14.588 -1.1164 -0.2286 -0.0033
16043TIP3   OH269543   3.558   5.686   3.811  0.5578  0.6376 -0.1767
16043TIP3    H169544   3.599   5.700   3.896  1.0531  0.3488 -0.3701
16043TIP3    H269545   3.505   5.765   3.797  0.3673  0.6271  0.4555
16044TIP3   OH269546   0.777   4.810   3.827 -0.0443  0.6083  0.0772
16044TIP3    H169547   0.737   4.878   3.772  0.3721  0.6290 -0.2049
16044TIP3    H269548   0.767   4.729   3.777 -2.9728 -0.0457  1.6035
16045TIP3   OH269549   3.306   0.898  12.258  0.0117  0.0662 -0.1649
16045TIP3    H169550   3.260   0.832  12.310 -0.3314  0.9665  0.6933
16045TIP3    H269551   3.370   0.849  12.207  1.1615 -0.7234  1.9717
16046TIP3   OH269552   0.265   6.480  15.629  0.1086  0.1738 -0.0379
16046TIP3    H169553   0.350   6.500  15.588  0.6291 -1.0726  0.4096
16046TIP3    H269554   0.250   6.388  15.609 -0.2100 -0.1194  1.5563
16047TIP3   OH269555   1.701   4.124   0.516 -0.6153  0.7107 -0.2774
16047TIP3    H169556   1.678   4.216   0.505 -0.2391  0.7891 -0.3845
16047TIP3    H269557   1.641   4.093   0.584 -0.2519  1.2138  0.2707
16048TIP3   OH269558   5.277   3.961   3.717 -0.2929  0.0920  0.1901
16048TIP3    H169559   5.246   3.979   3.629 -2.9603  0.9994  1.2638
16048TIP3    H269560   5.229   3.883   3.745  1.2706 -0.7960  0.5071
16049TIP3   OH269561   0.328   6.296   4.656 -0.2197 -0.5305 -0.2407
16049TIP3    H169562   0.249   6.254   4.623  0.5338 -0.9386 -1.5799
16049TIP3    H269563   0.342   6.371   4.598 -2.1703  2.3182  2.8070
16050TIP3   OH269564   0.427   1.601   2.394  0.0802 -0.2658 -0.5475
16050TIP3    H169565   0.501   1.635   2.445 -1.3744  0.9490  0.7842
16050TIP3    H269566   0.440   1.506   2.394  2.1826  0.0056 -1.1723
16051TIP3   OH269567   3.706   4.439   5.307 -0.4612  0.6933 -0.2694
16051TIP3    H169568   3.723   4.391   5.226  0.8712  0.8836 -0.1051
16051TIP3    H269569   3.694   4.371   5.373 -0.1760  0.5592 -0.3542
16052TIP3   OH269570   0.777   4.237   2.621 -0.5303 -0.2253  0.0265
16052TIP3    H169571   0.822   4.246   2.537 -0.5931  1.2787  0.1420
16052TIP3    H269572   0.792   4.146   2.646  1.1742 -0.1527 -0.6683
16053TIP3   OH269573   4.620   3.302  11.511  0.1667 -0.2955  0.2967
16053TIP3    H169574   4.590   3.237  11.574  1.9486 -1.3553  0.0910
16053TIP3    H269575   4.584   3.385  11.543  0.1949 -0.9666  2.1447
16054TIP3   OH269576   4.516   2.511   4.564 -0.2730  0.0377 -0.4522
16054TIP3    H169577   4.573   2.497   4.639  1.2027 -0.0402 -1.5615
16054TIP3    H269578   4.498   2.423   4.531 -2.2838 -0.0372  0.7812
16055TIP3   OH269579   2.165   5.170  15.511 -0.0383 -0.0482  0.5298
16055TIP3    H169580   2.148   5.164  15.605 -0.3233  1.6289  0.5953
16055TIP3    H269581   2.090   5.218  15.476  1.4135  1.7909 -0.1467
16056TIP3   OH269582   3.373   5.870  15.128 -0.1800  0.0859 -0.5551
16056TIP3    H169583   3.295   5.920  15.155  0.0458  0.2969 -0.2876
16056TIP3    H269584   3.422   5.857  15.209 -0.0888 -0.3147 -0.6749
16057TIP3   OH269585   0.205   4.995  14.001 -0.3866 -0.1862  0.2522
16057TIP3    H169586   0.116   4.965  13.984 -0.2762 -0.2284 -0.2468
16057TIP3    H269587   0.256   4.966  13.925  0.3662 -1.5014  1.2329
16058TIP3   OH269588   6.102   1.237  16.198 -0.3952 -0.4771  0.2865
16058TIP3    H169589   6.102   1.152  16.154  0.8859  0.3545 -1.3894
16058TIP3    H269590   6.193   1.252  16.224 -0.1486  1.3300 -1.4328
16059TIP3   OH269591   1.286   4.231  13.658 -0.3830 -0.3889 -0.2837
16059TIP3    H169592   1.368   4.265  13.694  0.1894 -0.4039 -1.5432
16059TIP3    H269593   1.263   4.293  13.588 -2.2977  0.5168  1.0793
16060TIP3   OH269594   4.421   6.649   5.175 -1.0872 -0.4691 -0.0071
16060TIP3    H169595   4.437   6.727   5.122  0.3630  0.2760  1.5129
16060TIP3    H269596   4.342   6.669   5.226  0.5014  0.8679  1.9741
16061TIP3   OH269597   6.672   5.143  14.335  0.6104 -0.1477 -0.0554
16061TIP3    H169598   6.578   5.145  14.350  0.6723  0.3491  0.2822
16061TIP3    H269599   6.685   5.192  14.255  0.7723  1.4659  0.9459
16062TIP3   OH269600   5.342   6.042  17.211  0.2686  0.0459  0.0500
16062TIP3    H169601   5.419   6.037  17.267  0.6166 -0.3813 -0.4564
16062TIP3    H269602   5.285   5.971  17.241 -0.3349  0.9144  1.0038
16063TIP3   OH269603   5.929   2.423  11.783  0.3902  0.2242  0.0187
16063TIP3    H169604   5.839   2.424  11.749  1.4528  0.2810 -2.9846
16063TIP3    H269605   5.931   2.349  11.844 -1.4477 -0.4240 -0.6644
16064TIP3   OH269606   2.649   6.617   0.582 -0.5696  0.6825  0.1070
16064TIP3    H169607   2.729   6.607   0.632  0.2851  1.9124 -0.9965
16064TIP3    H269608   2.617   6.527   0.570  0.8023  0.1605  0.2774
16065TIP3   OH269609   4.119   1.768  13.055  0.1879 -0.0634  0.0812
16065TIP3    H169610   4.047   1.713  13.086  0.2935  0.3478  1.0869
16065TIP3    H269611   4.170   1.711  12.997 -1.3051 -0.1657 -1.1486
16066TIP3   OH269612   0.284   0.073  15.304 -0.5762 -0.1155  0.8474
16066TIP3    H169613   0.244   0.016  15.239 -0.6960 -1.6037  2.1876
16066TIP3    H269614   0.359   0.112  15.259 -1.7275  0.2958 -0.7240
16067TIP3   OH269615   5.995   4.475  14.891  0.1382 -0.3700 -0.1572
16067TIP3    H169616   5.985   4.504  14.801  1.4017 -0.0032 -0.1801
16067TIP3    H269617   5.908   4.487  14.930 -0.2971 -0.1316 -1.1982
16068TIP3   OH269618   5.864   3.767   0.713  0.0827 -0.2682 -0.2274
16068TIP3    H169619   5.813   3.806   0.642  2.3712 -0.0786 -1.8010
16068TIP3    H269620   5.852   3.826   0.787 -0.7363  0.5685 -1.0182
16069TIP3   OH269621   3.940   3.652   4.158  0.0244  0.2448  0.1500
16069TIP3    H169622   3.910   3.561   4.164  0.9483  0.0144  1.4475
16069TIP3    H269623   3.900   3.685   4.077 -0.8380 -1.1148  0.0023
16070TIP3   OH269624   0.947   1.291  16.869  0.2723 -0.5409 -0.0049
16070TIP3    H169625   0.940   1.381  16.836  0.0730 -1.3832 -2.3857
16070TIP3    H269626   1.040   1.270  16.862  0.3352 -0.4629  0.6579
16071TIP3   OH269627   6.753   2.742   1.294  0.0166 -0.2268 -0.2643
16071TIP3    H169628   6.734   2.811   1.358  2.5954 -0.2717  0.6166
16071TIP3    H269629   6.849   2.740   1.289 -0.1011 -0.7194 -3.5946
16072TIP3   OH269630   0.947   1.015   4.394  0.4157 -0.3141 -0.1471
16072TIP3    H169631   0.955   1.105   4.363  0.9902 -0.1229  0.5303
16072TIP3    H269632   0.894   1.021   4.473 -0.1954 -0.6691 -0.5288
16073TIP3   OH269633   3.075   1.506   3.533 -0.1020 -0.1067 -0.3293
16073TIP3    H169634   3.161   1.469   3.552  0.6711  0.9997 -1.5872
16073TIP3    H269635   3.054   1.473   3.445 -0.6954  0.0945 -0.2652
16074TIP3   OH269636   5.547   0.935  13.555  0.6539 -0.1065 -0.7001
16074TIP3    H169637   5.622   0.906  13.607 -0.6516 -0.5314  1.0178
16074TIP3    H269638   5.511   0.854  13.519  0.0260 -0.0984 -0.1076
16075TIP3   OH269639   5.521   3.570  13.742  0.1372  0.0632 -0.3270
16075TIP3    H169640   5.573   3.545  13.818 -0.6734 -2.5294 -0.5476
16075TIP3    H269641   5.433   3.586  13.777 -0.3411 -1.5568 -0.7372
16076TIP3   OH269642   3.535   0.744  15.089  0.0439  0.7354 -0.0776
16076TIP3    H169643   3.582   0.808  15.035 -1.8927  0.8858 -1.6087
16076TIP3    H269644   3.443   0.770  15.084 -0.5338 -1.0192  0.8697
16077TIP3   OH269645   0.708   3.508   3.253  0.1384  0.1259  0.5099
16077TIP3    H169646   0.622   3.535   3.222 -0.5210  1.3669  3.1866
16077TIP3    H269647   0.699   3.416   3.275 -1.1551  0.7493  2.7312
16078TIP3   OH269648   0.628   1.832   5.197  0.0414  0.2857  0.0989
16078TIP3    H169649   0.545   1.871   5.170 -0.8727 -1.1190  0.8153
16078TIP3    H269650   0.658   1.888   5.269 -1.5014 -0.5986  1.4474
16079TIP3   OH269651   5.805   3.235  15.485  0.3916  0.2711  0.2101
16079TIP3    H169652   5.784   3.229  15.392  0.4517 -0.4500  0.2432
16079TIP3    H269653   5.752   3.308  15.517  1.5335  1.5429 -0.7221
16080TIP3   OH269654   1.717   5.245  17.176 -0.1172  0.0547  0.3701
16080TIP3    H169655   1.738   5.230  17.268  1.1769 -2.4157 -0.2849
16080TIP3    H269656   1.800   5.269  17.135  0.1500 -2.7621 -0.8720
16081TIP3   OH269657   6.002   3.793  16.919 -0.1721  0.0335 -0.4755
16081TIP3    H169658   6.077   3.807  16.976  0.8098  1.1002 -1.9950
16081TIP3    H269659   5.988   3.878  16.876 -4.0231  0.7003  1.8835
16082TIP3   OH269660   1.621   2.285  12.803  0.0558  0.6753 -0.4887
16082TIP3    H169661   1.700   2.307  12.755 -0.7578  1.3330 -1.5634
16082TIP3    H269662   1.609   2.356  12.866  1.9386 -0.9342  1.7772
16083TIP3   OH269663   0.111   0.688   4.403  0.3956  0.4202 -0.0820
16083TIP3    H169664   0.128   0.637   4.324  0.8559 -0.6183  0.6764
16083TIP3    H269665   0.069   0.627   4.463  3.1690  0.2190  1.7385
16084TIP3   OH269666   1.866   2.515  14.121  0.2795  0.4770  0.1203
16084TIP3    H169667   1.884   2.455  14.193 -0.3612 -0.1300 -0.2254
16084TIP3    H269668   1.773   2.539  14.132  0.4517  1.1808  0.0933
16085TIP3   OH269669   0.892   4.862  13.971  0.4282 -1.0237 -0.2444
16085TIP3    H169670   0.816   4.860  13.913  0.3589  2.7054 -0.4405
16085TIP3    H269671   0.958   4.912  13.923  1.1198  0.2936  1.9602
16086TIP3   OH269672   4.360   6.616  14.694  0.0359  0.6342 -0.6645
16086TIP3    H169673   4.379   6.526  14.665 -0.3270  0.3102  0.0892
16086TIP3    H269674   4.446   6.659  14.694  0.7697 -0.7463  2.4126
16087TIP3   OH269675   3.255   3.670   2.408 -0.0375  0.5024 -0.0730
16087TIP3    H169676   3.317   3.655   2.336 -1.1814 -2.8270 -0.4781
16087TIP3    H269677   3.311   3.687   2.484  1.3106  0.1587 -0.9541
16088TIP3   OH269678   6.542   5.103  11.321 -0.0610  0.0557 -0.4419
16088TIP3    H169679   6.522   5.185  11.366  1.8002  1.2837 -1.7555
16088TIP3    H269680   6.539   5.127  11.228  1.3410 -1.1526 -0.8109
16089TIP3   OH269681   2.269   4.443   0.396  0.2852 -0.6300  0.5301
16089TIP3    H169682   2.210   4.441   0.472 -0.0968  0.1345  0.2628
16089TIP3    H269683   2.291   4.536   0.386 -0.6206 -0.5629 -1.0301
16090TIP3   OH269684   4.404   1.719   0.852  0.3279  0.2965  0.4275
16090TIP3    H169685   4.497   1.717   0.874  0.6639 -0.3560 -1.0382
16090TIP3    H269686   4.363   1.660   0.916  1.3458 -1.8219 -0.8511
16091TIP3   OH269687   2.112   0.089   4.792 -0.4728 -0.2705  0.4435
16091TIP3    H169688   2.133   0.018   4.731 -1.6988  0.1411 -0.4679
16091TIP3    H269689   2.018   0.105   4.779  0.0921  2.5398 -0.4586
16092TIP3   OH269690   1.712   3.498   3.088 -0.1835 -0.1703 -0.1684
16092TIP3    H169691   1.807   3.491   3.092 -0.2827 -1.4654  0.1469
16092TIP3    H269692   1.680   3.425   3.141 -1.3451  1.1451  1.0227
16093TIP3   OH269693   0.762   2.796   5.521 -0.2059  0.3881  0.1513
16093TIP3    H169694   0.811   2.755   5.593  0.1270  0.4096 -0.0629
16093TIP3    H269695   0.823   2.796   5.447 -1.1580 -1.2886 -0.6594
16094TIP3   OH269696   4.983   4.064   3.790 -0.2582  0.5044 -0.1150
16094TIP3    H169697   4.892   4.036   3.781 -0.3994  0.8427  0.2348
16094TIP3    H269698   5.027   4.027   3.714 -0.4553 -0.5868  0.3000
16095TIP3   OH269699   3.694   2.459  14.593 -0.0045  0.2808 -0.3341
16095TIP3    H169700   3.690   2.392  14.524 -2.0742  0.4117 -0.3702
16095TIP3    H269701   3.622   2.519  14.572  0.1827  1.0561  1.1927
16096TIP3   OH269702   0.861   5.552  10.759 -0.5542  0.5950  0.1501
16096TIP3    H169703   0.821   5.468  10.739 -1.8403  0.9080  1.3250
16096TIP3    H269704   0.812   5.615  10.706  0.5992  0.5866 -0.9544
16097TIP3   OH269705   5.066   6.313   2.465 -0.7299 -0.2274  0.3287
16097TIP3    H169706   5.080   6.398   2.424  0.8989 -1.2180 -1.2453
16097TIP3    H269707   4.983   6.322   2.511 -1.1815  1.8202 -0.8131
16098TIP3   OH269708   6.563   6.370   3.506 -0.0212 -0.0478 -0.0966
16098TIP3    H169709   6.558   6.339   3.596  1.2621  0.5291  0.1850
16098TIP3    H269710   6.475   6.402   3.487  0.1010  1.2608  1.4760
16099TIP3   OH269711   3.046   6.422  15.571 -0.5385  0.3402 -0.0581
16099TIP3    H169712   2.953   6.403  15.557 -0.5742  0.1204  0.4512
16099TIP3    H269713   3.061   6.401  15.663 -0.1088  0.9038  0.0018
16100TIP3   OH269714   5.184   2.580   5.587 -0.0013  0.5209  0.0810
16100TIP3    H169715   5.129   2.639   5.638 -1.3047 -0.1720 -0.5188
16100TIP3    H269716   5.123   2.531   5.533  1.2853  0.3845 -1.2606
16101TIP3   OH269717   5.036   6.579   5.249 -0.2486  0.5912 -0.0563
16101TIP3    H169718   5.062   6.525   5.173 -2.2520  2.6830 -2.2987
16101TIP3    H269719   5.117   6.589   5.299  0.8609 -1.8459 -1.2481
16102TIP3   OH269720   2.947   0.936   2.369 -0.1638 -0.7764 -0.3068
16102TIP3    H169721   2.988   0.940   2.282 -1.5541 -0.7582 -0.9694
16102TIP3    H269722   3.012   0.975   2.428 -0.2036  1.4553 -1.6893
16103TIP3   OH269723   5.046   0.609   6.036 -0.4891 -0.1750 -0.4897
16103TIP3    H169724   5.135   0.583   6.014 -0.4425 -0.0822 -0.4036
16103TIP3    H269725   5.017   0.544   6.100  0.3235  1.1336  1.2333
16104TIP3   OH269726   2.989   4.760  12.241 -0.5229 -0.2233 -0.4410
16104TIP3    H169727   3.084   4.764  12.252 -0.5251 -0.0402 -0.5013
16104TIP3    H269728   2.956   4.840  12.282 -0.7824 -1.0469  1.0011
16105TIP3   OH269729   2.028   5.522   4.614  0.1121  0.4095  0.1462
16105TIP3    H169730   1.998   5.478   4.694 -1.2355  1.7902  0.4115
16105TIP3    H269731   1.992   5.470   4.543 -0.3165  0.2906  0.4483
16106TIP3   OH269732   0.164   5.585   6.105  0.0307 -0.2038 -0.0273
16106TIP3    H169733   0.195   5.503   6.068  1.7317  0.3113  0.2100
16106TIP3    H269734   0.179   5.577   6.199 -0.2010  0.2060  0.0469
16107TIP3   OH269735   5.879   2.374   2.266  0.3170 -0.3189  0.1432
16107TIP3    H169736   5.840   2.378   2.179 -0.5628 -2.2296  0.4028
16107TIP3    H269737   5.973   2.363   2.250  0.3911  1.2504 -0.5319
16108TIP3   OH269738   4.070   5.673   5.349  0.9686  0.1643 -0.7131
16108TIP3    H169739   4.065   5.631   5.434 -0.1140  1.6849 -0.0066
16108TIP3    H269740   4.035   5.761   5.363  3.5177  1.4788 -2.0534
16109TIP3   OH269741   3.049   5.226   2.347  0.6638  0.2418  0.3392
16109TIP3    H169742   3.010   5.273   2.273  1.2267  0.4955  0.2089
16109TIP3    H269743   3.109   5.163   2.307 -0.8365 -1.3131  0.4503
16110TIP3   OH269744   5.380   4.703  14.467 -0.8816  0.7460 -0.2977
16110TIP3    H169745   5.340   4.759  14.401 -1.6438 -0.4660 -0.8740
16110TIP3    H269746   5.320   4.629  14.476  0.0213  0.1016  0.5886
16111TIP3   OH269747   3.285   3.656  13.066  0.4868  0.0330 -0.5516
16111TIP3    H169748   3.353   3.625  13.125  1.0472  2.3125  0.0528
16111TIP3    H269749   3.252   3.737  13.107 -2.2127 -0.7249 -1.0874
16112TIP3   OH269750   1.603   0.730   3.848 -0.2868 -0.2108 -0.4061
16112TIP3    H169751   1.576   0.768   3.764  1.2354  0.2948 -0.6766
16112TIP3    H269752   1.661   0.658   3.824  0.6081  0.3023  0.2328
16113TIP3   OH269753   5.620   6.614  16.914  0.3803 -0.0081  0.8058
16113TIP3    H169754   5.598   6.523  16.895 -0.8545  0.2662  0.8501
16113TIP3    H269755   5.544   6.647  16.962 -0.8175  2.0813 -2.3519
16114TIP3   OH269756   6.709   4.267  16.024 -0.4300 -0.0777 -0.3774
16114TIP3    H169757   6.759   4.225  15.954  1.0605  0.2791  0.4810
16114TIP3    H269758   6.618   4.261  15.994  0.0823 -0.9648 -1.8038
16115TIP3   OH269759   1.460   2.416   3.607 -0.1782 -0.1898 -0.3553
16115TIP3    H169760   1.418   2.401   3.522  0.4413  1.3140 -0.9345
16115TIP3    H269761   1.426   2.345   3.662 -1.6619 -0.3771 -1.4580
16116TIP3   OH269762   4.351   6.329   0.800  0.0915 -0.0240  0.0192
16116TIP3    H169763   4.425   6.370   0.844 -1.6975  2.4614  0.8388
16116TIP3    H269764   4.309   6.401   0.753 -0.8832 -1.7061 -1.7576
16117TIP3   OH269765   4.665   1.003  16.853 -0.0102  0.3838  0.0532
16117TIP3    H169766   4.738   0.983  16.912  0.1203 -1.3380 -0.6860
16117TIP3    H269767   4.634   1.089  16.883  2.7445  1.4951 -0.0732
16118TIP3   OH269768   6.639   6.029   4.873  0.7064 -0.4069 -0.2599
16118TIP3    H169769   6.572   5.986   4.820  1.3280 -0.4516 -1.0170
16118TIP3    H269770   6.722   5.997   4.837  1.1702  1.0945 -0.5716
16119TIP3   OH269771   1.294   5.602  12.638  0.4579  0.5585 -0.6455
16119TIP3    H169772   1.240   5.676  12.668  0.4304  0.8686 -1.4515
16119TIP3    H269773   1.232   5.530  12.626  0.5595  0.2452  0.6535
16120TIP3   OH269774   0.218   1.409  14.168  0.2944 -0.1399 -0.1418
16120TIP3    H169775   0.194   1.439  14.080 -2.9236 -0.0396  0.7408
16120TIP3    H269776   0.241   1.490  14.215 -0.5880  0.0911 -0.1064
16121TIP3   OH269777   0.276   2.774   5.427 -0.0560 -0.4352 -0.1062
16121TIP3    H169778   0.362   2.804   5.455 -0.6998  0.2759  1.1265
16121TIP3    H269779   0.237   2.736   5.506 -1.6049  0.9366 -0.1898
16122TIP3   OH269780   1.052   6.020  12.746 -0.4445  0.1568  0.1906
16122TIP3    H169781   1.127   5.961  12.742  0.1948  0.9802 -0.2611
16122TIP3    H269782   1.003   5.992  12.823 -0.2450 -1.0728 -0.1212
16123TIP3   OH269783   1.981   3.167   5.860 -0.7275  0.0721 -0.1897
16123TIP3    H169784   2.025   3.220   5.793  0.6270 -1.2656 -0.3811
16123TIP3    H269785   1.962   3.084   5.816  0.1320 -0.8026  1.0628
16124TIP3   OH269786   0.810   5.498   3.495  0.1910 -0.2056  0.5475
16124TIP3    H169787   0.754   5.473   3.568  0.3934  1.5026  1.2982
16124TIP3    H269788   0.773   5.579   3.462 -0.4134 -1.4104 -1.8296
16125TIP3   OH269789   3.289   5.273   2.931  0.1812  0.0824  0.0537
16125TIP3    H169790   3.254   5.280   2.842 -0.3231 -0.1119  0.2338
16125TIP3    H269791   3.375   5.316   2.927 -0.8662  2.2747  0.0452
16126TIP3   OH269792   1.420   2.216   1.779 -0.2241  0.5231 -0.4647
16126TIP3    H169793   1.343   2.238   1.831  0.7839 -0.3465  1.4239
16126TIP3    H269794   1.422   2.120   1.778 -0.3641  0.5041 -2.3403
16127TIP3   OH269795   6.514   1.730  15.943  0.2847 -0.6557  0.8621
16127TIP3    H169796   6.447   1.799  15.949  1.1644  0.3782 -0.7630
16127TIP3    H269797   6.476   1.655  15.989 -1.8860 -0.0080  0.1610
16128TIP3   OH269798   3.679   0.235   2.290  0.1491 -0.0638  0.0465
16128TIP3    H169799   3.727   0.158   2.259  0.3118 -0.5542  1.4778
16128TIP3    H269800   3.594   0.229   2.246 -0.2061 -1.6296  0.9046
16129TIP3   OH269801   5.595   6.548   3.626 -0.4578 -0.6050 -0.1745
16129TIP3    H169802   5.572   6.455   3.627 -0.0640 -0.7011  0.8617
16129TIP3    H269803   5.665   6.555   3.562  2.5308 -1.7879  2.8061
16130TIP3   OH269804   5.531   2.995  13.600 -0.1074  0.2254  0.5371
16130TIP3    H169805   5.542   3.029  13.688 -0.5484  1.2718  0.2038
16130TIP3    H269806   5.616   2.957  13.577  0.6299  1.7704  0.6595
16131TIP3   OH269807   2.281   4.801   6.073  0.0168 -0.0045  0.0779
16131TIP3    H169808   2.317   4.884   6.104  0.7761 -0.4328  0.3272
16131TIP3    H269809   2.264   4.751   6.153  0.7480 -0.5912 -0.1387
16132TIP3   OH269810   3.542   2.962  14.109  0.5197  0.1052  0.2936
16132TIP3    H169811   3.455   2.971  14.071 -0.0955 -1.8590  1.1498
16132TIP3    H269812   3.562   3.049  14.144 -0.8590  0.7170 -0.3883
16133TIP3   OH269813   0.132   6.442   3.366 -0.0366 -0.2560  0.1971
16133TIP3    H169814   0.069   6.512   3.380 -1.1708 -1.3597  0.6598
16133TIP3    H269815   0.080   6.368   3.337  1.3378 -0.4301 -1.9412
16134TIP3   OH269816   2.290   0.942   3.249  0.3593 -0.2580  0.2963
16134TIP3    H169817   2.292   0.855   3.209 -2.4494 -0.3290  0.1551
16134TIP3    H269818   2.381   0.962   3.270  1.4199 -1.8575 -2.5833
16135TIP3   OH269819   0.227   0.513  15.708 -0.1169 -0.5064  0.3039
16135TIP3    H169820   0.258   0.436  15.756  1.8208 -0.0434 -0.1785
16135TIP3    H269821   0.141   0.532  15.747  1.7101  0.2845  4.1559
16136TIP3   OH269822   5.089   1.645  14.733 -0.3786  0.3587 -0.2238
16136TIP3    H169823   5.117   1.716  14.675 -0.0868  1.4727  1.2550
16136TIP3    H269824   4.994   1.652  14.736 -0.2920  1.2541  0.6167
16137TIP3   OH269825   2.248   6.332   2.043 -0.0460  0.0103 -0.8003
16137TIP3    H169826   2.311   6.371   2.104  0.7734 -0.2765 -1.4457
16137TIP3    H269827   2.232   6.401   1.979  0.2351 -0.1913 -1.0897
16138TIP3   OH269828   4.624   2.254   5.879  0.2480  0.0472 -0.3309
16138TIP3    H169829   4.576   2.311   5.819  0.8511  0.1196 -0.7505
16138TIP3    H269830   4.601   2.165   5.850  1.4664  0.0805 -1.4287
16139TIP3   OH269831   1.413   3.645   1.215 -0.4633 -0.0311 -0.3846
16139TIP3    H169832   1.478   3.604   1.157  0.7470 -3.0293  2.9006
16139TIP3    H269833   1.328   3.622   1.176  0.3343 -0.2428 -2.0483
16140TIP3   OH269834   2.862   1.059   1.111  0.7728 -0.0672 -0.6497
16140TIP3    H169835   2.811   1.102   1.180  2.1091 -1.1224  1.0586
16140TIP3    H269836   2.824   1.091   1.029 -2.1452 -0.2366  0.5436
16141TIP3   OH269837   2.282   1.865  11.147 -0.2793  0.0833  0.2376
16141TIP3    H169838   2.280   1.846  11.053  0.3571 -0.7253  0.3778
16141TIP3    H269839   2.193   1.848  11.177 -0.5898  0.7450 -0.2926
16142TIP3   OH269840   4.503   6.057   0.726 -0.5371 -0.2229  0.0469
16142TIP3    H169841   4.444   6.113   0.777  0.1331 -0.5518  1.2260
16142TIP3    H269842   4.591   6.085   0.754 -0.0831  1.2813 -2.7689
16143TIP3   OH269843   2.015   5.416  12.121 -0.2074  0.1496  0.3430
16143TIP3    H169844   2.029   5.337  12.172  1.1554 -0.1721 -0.4964
16143TIP3    H269845   2.015   5.487  12.186 -1.2879 -0.5224  1.0754
16144TIP3   OH269846   5.684   1.785  13.106  0.2349 -0.3260 -0.2881
16144TIP3    H169847   5.693   1.880  13.119  2.5431 -0.8623  2.5425
16144TIP3    H269848   5.695   1.772  13.012 -0.1915  2.2143 -0.7335
16145TIP3   OH269849   3.145   4.957  14.756  0.5081  0.0951 -0.1606
16145TIP3    H169850   3.215   5.022  14.751  2.2179 -1.8023 -1.7615
16145TIP3    H269851   3.151   4.922  14.845  0.9684  0.6236  0.0214
16146TIP3   OH269852   1.877   0.172   0.127  0.3051 -0.1394  1.0318
16146TIP3    H169853   1.886   0.210   0.215 -0.5066  0.5561  0.8262
16146TIP3    H269854   1.787   0.192   0.102  0.8182  0.4883 -0.3454
16147TIP3   OH269855   3.037   3.427   1.278 -0.1327 -0.1519 -0.4366
16147TIP3    H169856   2.966   3.441   1.340  1.7469  0.4147  1.6731
16147TIP3    H269857   3.020   3.342   1.239 -1.8471 -0.0938  0.1594
16148TIP3   OH269858   1.002   0.130  11.879  0.1878  0.3887  0.5680
16148TIP3    H169859   1.057   0.110  11.955 -0.9516  0.8399  1.5350
16148TIP3    H269860   0.913   0.138  11.915 -0.6459 -1.1230 -1.0804
16149TIP3   OH269861   2.019   4.280  16.310 -0.1023 -0.0251 -0.4173
16149TIP3    H169862   2.061   4.342  16.250  0.5737 -1.3891 -1.3651
16149TIP3    H269863   1.938   4.324  16.337  1.3484  2.1642  0.5485
16150TIP3   OH269864   0.697   1.763  13.964  0.0182  0.1472  0.4283
16150TIP3    H169865   0.741   1.810  13.893 -0.0420 -0.6327 -0.1391
16150TIP3    H269866   0.606   1.792  13.961 -0.2476 -0.7475 -0.5757
16151TIP3   OH269867   3.812   0.129   4.479 -0.3917 -0.0283  0.3351
16151TIP3    H169868   3.892   0.080   4.496  0.5888  1.6371  0.6280
16151TIP3    H269869   3.814   0.146   4.385 -0.1902  0.3786  0.4136
16152TIP3   OH269870   6.604   6.378  12.391  0.3271  0.2645  0.5510
16152TIP3    H169871   6.586   6.467  12.422 -1.6465 -0.3718  1.2853
16152TIP3    H269872   6.602   6.385  12.296  1.4592  1.2488  0.5913
16153TIP3   OH269873   5.214   1.385   1.818 -0.1778  0.0867  0.6650
16153TIP3    H169874   5.248   1.297   1.807 -3.5047 -1.2147  0.2126
16153TIP3    H269875   5.211   1.421   1.729 -1.1724 -0.2933  0.5363
16154TIP3   OH269876   6.494   0.936   0.985  0.3209  0.7260 -0.8038
16154TIP3    H169877   6.407   0.973   0.976  0.2904  0.6613 -0.7798
16154TIP3    H269878   6.553   1.011   0.986  0.2948  0.7493 -1.1590
16155TIP3   OH269879   6.572   6.141   1.898  0.2802  0.0557 -0.0418
16155TIP3    H169880   6.563   6.199   1.974 -0.3898 -0.4020  0.2367
16155TIP3    H269881   6.483   6.110   1.881  0.0639  1.7483 -2.2842
16156TIP3   OH269882   5.729   1.806  15.361 -0.0433 -0.5219  0.1958
16156TIP3    H169883   5.746   1.777  15.450 -0.9667  0.2696  0.6405
16156TIP3    H269884   5.800   1.867  15.341  0.3333 -0.9366  0.2807
16157TIP3   OH269885   1.280   2.744  15.069  0.7228 -0.5735  0.0224
16157TIP3    H169886   1.372   2.764  15.057  0.3286  0.1474 -1.9429
16157TIP3    H269887   1.246   2.730  14.981 -1.9086  2.9912  0.3507
16158TIP3   OH269888   5.323   5.333   3.565 -0.2873  0.2789 -0.7198
16158TIP3    H169889   5.260   5.401   3.542 -2.8595 -0.6034  3.3257
16158TIP3    H269890   5.380   5.373   3.630  0.1455 -0.4854 -0.6191
16159TIP3   OH269891   2.553   3.419  14.402  0.0141 -0.3611 -0.3222
16159TIP3    H169892   2.519   3.498  14.360  1.9940  0.5654 -0.2184
16159TIP3    H269893   2.636   3.402  14.358 -0.8892 -3.0497 -1.1083
16160TIP3   OH269894   5.171   1.154  10.831 -0.2214 -0.1761  0.3325
16160TIP3    H169895   5.102   1.090  10.849 -1.6779  1.0265 -0.7548
16160TIP3    H269896   5.249   1.102  10.815 -1.3923 -1.6930 -0.5539
16161TIP3   OH269897   2.491   3.190  14.526 -0.1485 -0.8451 -0.3234
16161TIP3    H169898   2.541   3.268  14.504 -1.8534 -0.1287 -1.7783
16161TIP3    H269899   2.484   3.191  14.621  2.1592 -0.7107 -0.1271
16162TIP3   OH269900   4.122   0.704   5.404  0.7222  0.8028  0.4494
16162TIP3    H169901   4.049   0.726   5.347  1.6690  0.4633 -0.9221
16162TIP3    H269902   4.186   0.773   5.388  1.6485 -0.1744 -0.1126
16163TIP3   OH269903   5.823   5.624  14.424  0.5622 -0.2605  0.0794
16163TIP3    H169904   5.798   5.548  14.371 -1.0278  0.9335 -0.9289
16163TIP3    H269905   5.796   5.601  14.513 -1.7592 -0.0716 -0.5566
16164TIP3   OH269906   0.158   1.714  13.791 -0.0459  0.0131 -0.1263
16164TIP3    H169907   0.170   1.623  13.817 -2.1315 -0.4248 -0.6335
16164TIP3    H269908   0.063   1.727  13.790  0.1912  1.9004 -1.0830
16165TIP3   OH269909   2.391   2.371   3.635  0.1458 -0.1671 -0.0565
16165TIP3    H169910   2.368   2.415   3.716 -3.4109  0.9618 -1.5528
16165TIP3    H269911   2.379   2.278   3.654 -2.2160  0.1790  0.3534
16166TIP3   OH269912   1.306   0.511  14.046  0.2073  0.1536  0.5367
16166TIP3    H169913   1.370   0.441  14.060  0.4416  0.5217  1.3557
16166TIP3    H269914   1.232   0.468  14.003  0.4753 -0.5347  0.7539
16167TIP3   OH269915   6.486   4.286   4.904 -0.2137  0.0080  0.7562
16167TIP3    H169916   6.519   4.374   4.888 -0.9074 -0.0372 -1.0401
16167TIP3    H269917   6.496   4.273   4.998  0.9491  1.5703  0.8560
16168TIP3   OH269918   1.580   1.942   0.417 -0.3708  0.0135 -0.1694
16168TIP3    H169919   1.522   1.957   0.491 -0.9261 -1.3034 -0.3168
16168TIP3    H269920   1.521   1.928   0.343  0.1081 -1.5381 -0.2790
16169TIP3   OH269921   5.253   5.028   3.542  0.0932  0.3506  0.4152
16169TIP3    H169922   5.259   5.115   3.501  0.7039 -0.2896 -0.8769
16169TIP3    H269923   5.173   4.990   3.506 -0.2395  0.4196  1.0751
16170TIP3   OH269924   3.177   4.633   1.790 -0.3472  0.6734  0.1434
16170TIP3    H169925   3.186   4.584   1.709 -2.6958 -1.4390  1.1091
16170TIP3    H269926   3.233   4.587   1.853 -0.9600  0.4263  0.5166
16171TIP3   OH269927   1.422   5.509  14.903 -0.6570 -0.4199  0.0750
16171TIP3    H169928   1.344   5.508  14.958 -0.5024 -0.4803  0.2920
16171TIP3    H269929   1.388   5.503  14.814 -0.8769 -1.0162  0.1960
16172TIP3   OH269930   2.387   1.826   3.196  0.1951  0.8636 -0.0242
16172TIP3    H169931   2.389   1.730   3.187  0.5953  1.0478 -2.0204
16172TIP3    H269932   2.405   1.841   3.289  0.0176 -0.9980  0.3462
16173TIP3   OH269933   5.816   6.233  16.076 -0.5293 -0.2510 -0.5831
16173TIP3    H169934   5.854   6.321  16.070 -1.0969  0.0933  0.6456
16173TIP3    H269935   5.794   6.210  15.986  1.5010  0.0150 -1.1729
16174TIP3   OH269936   0.292   1.911   5.585 -0.1758 -1.1708  0.2378
16174TIP3    H169937   0.227   1.979   5.570  0.8758  0.1795  1.6310
16174TIP3    H269938   0.295   1.862   5.502 -1.9924 -0.4481 -0.2755
16175TIP3   OH269939   3.273   1.794  14.693  0.5117 -0.6129  0.1410
16175TIP3    H169940   3.270   1.791  14.788  0.7061  0.7266  0.2021
16175TIP3    H269941   3.283   1.887  14.672 -2.1591 -0.6033 -1.2746
16176TIP3   OH269942   3.550   6.210  15.306  0.1856  0.6539 -0.1332
16176TIP3    H169943   3.496   6.258  15.369 -0.7773  0.9003 -1.1166
16176TIP3    H269944   3.519   6.120  15.313  0.0894  0.6782 -0.2423
16177TIP3   OH269945   3.960   3.459   1.810  0.1682  0.5199 -0.3984
16177TIP3    H169946   3.992   3.534   1.759  0.6384  0.0150 -0.8530
16177TIP3    H269947   3.870   3.447   1.781  0.3538  0.3913 -0.9362
16178TIP3   OH269948   2.708   4.548  14.280  0.3772 -0.5031 -1.0341
16178TIP3    H169949   2.689   4.495  14.358  0.7816  2.0313  0.8464
16178TIP3    H269950   2.623   4.565  14.241  0.0306 -0.4989 -0.2841
16179TIP3   OH269951   0.209   0.794   3.240 -0.0088  0.3210 -0.1342
16179TIP3    H169952   0.232   0.701   3.243  1.1997  0.6550  1.5518
16179TIP3    H269953   0.254   0.827   3.162  0.7060 -0.2310  0.0344
16180TIP3   OH269954   0.492   0.702  13.251 -0.3410 -0.9998  0.0288
16180TIP3    H169955   0.522   0.627  13.302  0.6004 -1.1858 -0.7634
16180TIP3    H269956   0.448   0.759  13.314  3.0086  0.0194  1.5858
16181TIP3   OH269957   0.498   6.081   5.751  0.0400  0.5745 -0.4653
16181TIP3    H169958   0.574   6.032   5.721  0.6945  1.1249  0.2528
16181TIP3    H269959   0.530   6.130   5.827 -1.1946  0.3378  0.2190
16182TIP3   OH269960   5.427   5.250  13.330  0.4532 -0.2839 -0.2596
16182TIP3    H169961   5.381   5.211  13.404  0.9864  0.4080  0.4459
16182TIP3    H269962   5.462   5.332  13.364  0.0598  0.4127 -1.4979
16183TIP3   OH269963   0.319   4.122  13.829  0.5814 -0.0644 -0.1820
16183TIP3    H169964   0.293   4.047  13.776 -0.3433 -0.5785  0.9688
16183TIP3    H269965   0.311   4.197  13.769  1.4563 -0.8569 -1.3102
16184TIP3   OH269966   6.390   4.676  13.971 -0.1634  0.2858  0.2319
16184TIP3    H169967   6.444   4.597  13.969  1.1306  1.0460  2.9848
16184TIP3    H269968   6.314   4.654  13.916 -0.1921 -3.1077  1.5051
16185TIP3   OH269969   1.193   3.521  12.847 -0.5832 -0.0937 -0.2739
16185TIP3    H169970   1.208   3.613  12.869 -2.7856 -0.1844  1.8360
16185TIP3    H269971   1.120   3.523  12.785  0.9948 -0.3087 -2.1984
16186TIP3   OH269972   4.840   0.807  11.863  0.3650 -0.2836  0.5304
16186TIP3    H169973   4.774   0.787  11.797  0.7803 -0.9141  0.3031
16186TIP3    H269974   4.870   0.895  11.839  0.0925 -0.2657  0.2329
16187TIP3   OH269975   6.512   0.203  12.390  0.1472 -0.2352 -0.3123
16187TIP3    H169976   6.436   0.231  12.441  0.1505  0.0979 -0.4869
16187TIP3    H269977   6.484   0.210  12.299  0.1540 -0.7902 -0.3609
16188TIP3   OH269978   1.472   5.885  15.394 -0.1104  0.4907  0.1527
16188TIP3    H169979   1.417   5.935  15.454  0.8377  2.6061 -0.6964
16188TIP3    H269980   1.462   5.930  15.310  0.7988 -0.7297 -0.6168
16189TIP3   OH269981   5.225   3.288   4.108  0.3754  0.4370  0.0293
16189TIP3    H169982   5.174   3.209   4.131  1.5437 -0.9172 -1.8640
16189TIP3    H269983   5.290   3.295   4.177  0.1399 -0.1415  0.3171
16190TIP3   OH269984   6.180   2.391  10.857  0.3242  0.2912 -0.0901
16190TIP3    H169985   6.095   2.373  10.817 -0.5549  2.2802  0.8335
16190TIP3    H269986   6.199   2.312  10.909 -0.7428 -0.3361 -0.6372
16191TIP3   OH269987   5.782   2.106   5.125 -0.8248 -0.2516 -0.0222
16191TIP3    H169988   5.691   2.117   5.154 -0.3633 -0.7519  1.6214
16191TIP3    H269989   5.774   2.058   5.042 -1.9968 -1.4278  0.7564
16192TIP3   OH269990   3.653   2.377   1.108 -0.1818  0.2266  0.3883
16192TIP3    H169991   3.681   2.451   1.161  0.0877 -0.4960  1.2737
16192TIP3    H269992   3.733   2.348   1.063 -0.2873  0.4786  0.0417
16193TIP3   OH269993   4.147   3.879   0.382 -0.0008 -0.1798 -0.1587
16193TIP3    H169994   4.102   3.829   0.450 -0.8185  0.4917 -0.2039
16193TIP3    H269995   4.222   3.919   0.426 -0.0070 -0.4838  0.1305
16194TIP3   OH269996   2.245   3.941   3.722  0.1597  0.1944 -0.6531
16194TIP3    H169997   2.247   3.998   3.799 -0.4321 -1.3760  0.5463
16194TIP3    H269998   2.152   3.932   3.702  0.2843  0.1007 -1.1917
16195TIP3   OH269999   1.036   5.444  12.341 -0.3414 -0.1713 -0.1739
16195TIP3    H170000   1.119   5.490  12.352 -1.2483  0.7243  3.9842
16195TIP3    H270001   0.993   5.487  12.268  0.7429  2.6561  0.7980
16196TIP3   OH270002   2.472   4.089   0.235 -0.0142  0.6433 -1.0947
16196TIP3    H170003   2.526   4.020   0.197  0.6510  0.6724 -0.2240
16196TIP3    H270004   2.384   4.052   0.238  0.5438 -0.6079  0.4187
16197TIP3   OH270005   3.545   1.787  14.925 -0.5928 -0.5207 -0.2051
16197TIP3    H170006   3.599   1.729  14.873 -0.7774  0.7408 -1.8589
16197TIP3    H270007   3.456   1.752  14.916 -0.4637 -0.9412  0.1665
16198TIP3   OH270008   4.680   5.849   5.580  0.3778  0.2553 -0.3947
16198TIP3    H170009   4.642   5.937   5.587 -0.4504 -0.2359  1.5829
16198TIP3    H270010   4.614   5.798   5.534 -0.4169 -0.0453  1.0629
16199TIP3   OH270011   3.180   6.358  15.820 -0.0286  0.2657 -0.4892
16199TIP3    H170012   3.100   6.312  15.846  1.0134 -1.6942 -0.6804
16199TIP3    H270013   3.209   6.403  15.900  0.0470 -1.0792  0.2584
16200TIP3   OH270014   4.582   5.416  16.801  0.0075 -0.2764 -0.2079
16200TIP3    H170015   4.627   5.331  16.797  1.9136  0.7437 -1.0357
16200TIP3    H270016   4.649   5.477  16.833 -0.9920  1.1412 -0.7706
16201TIP3   OH270017   5.940   6.701   2.929  0.0365 -0.1365  0.2570
16201TIP3    H170018   5.930   6.740   2.842  1.8098 -0.4327 -0.0990
16201TIP3    H270019   6.018   6.646   2.922  0.8756  0.7118  2.3453
16202TIP3   OH270020   6.495   4.433  16.300  0.4027 -0.4937  0.6385
16202TIP3    H170021   6.474   4.466  16.387 -0.0412  0.3927  0.2022
16202TIP3    H270022   6.421   4.377  16.276 -1.0077  1.7554 -0.4460
16203TIP3   OH270023   6.215   1.419  12.381 -0.6978  0.1539 -0.2818
16203TIP3    H170024   6.222   1.514  12.392 -2.1010  0.2299  0.0106
16203TIP3    H270025   6.153   1.392  12.448  0.9201 -1.2094  0.6942
16204TIP3   OH270026   4.789   6.393  12.666  0.3868 -0.1321 -0.7155
16204TIP3    H170027   4.694   6.386  12.661  0.4238  0.1176 -2.1899
16204TIP3    H270028   4.818   6.376  12.576  1.7563 -0.5751 -0.1903
16205TIP3   OH270029   3.878   4.554   6.324 -0.2975 -0.1443  0.3604
16205TIP3    H170030   3.873   4.497   6.401  0.4851 -0.5480  0.1205
16205TIP3    H270031   3.972   4.564   6.308 -0.4420  0.6836  0.0035
16206TIP3   OH270032   3.887   0.504   1.860  0.4969  0.2074 -0.4040
16206TIP3    H170033   3.841   0.431   1.900 -1.7533  0.6116 -2.1236
16206TIP3    H270034   3.846   0.582   1.897  1.5511  0.5968 -0.0346
16207TIP3   OH270035   6.668   4.351   0.034 -0.8235  0.0643 -0.3842
16207TIP3    H170036   6.709   4.271   0.065  1.5300  1.6981  0.8491
16207TIP3    H270037   6.695   4.418   0.097 -2.0095  2.0120 -1.8889
16208TIP3   OH270038   5.641   3.363  12.210  0.6172 -0.1619 -0.4820
16208TIP3    H170039   5.641   3.365  12.305 -0.2985  0.5287 -0.4924
16208TIP3    H270040   5.691   3.441  12.184 -0.9385  0.8099 -0.5814
16209TIP3   OH270041   2.968   4.952  13.696 -0.2805  0.9377  0.1149
16209TIP3    H170042   3.018   4.937  13.615 -1.2515 -1.0309 -0.1551
16209TIP3    H270043   3.028   4.926  13.766  0.2586  1.8318 -0.0031
16210TIP3   OH270044   4.948   3.779  15.498 -0.0270 -0.1897  0.0079
16210TIP3    H170045   4.906   3.732  15.426  0.4813 -0.7871  0.0898
16210TIP3    H270046   5.019   3.720  15.526  1.3617  1.1394 -0.6412
16211TIP3   OH270047   6.585   1.638   3.111  0.8802 -0.1031 -0.1282
16211TIP3    H170048   6.500   1.632   3.067  0.4091 -0.5332  0.8224
16211TIP3    H270049   6.566   1.683   3.194  1.7145  0.5056 -0.2638
16212TIP3   OH270050   2.653   1.010   2.188 -0.0490 -0.2942 -0.4494
16212TIP3    H170051   2.692   1.090   2.153 -1.2786  0.0906 -0.9618
16212TIP3    H270052   2.597   0.978   2.118  0.3306 -1.5273 -0.1848
16213TIP3   OH270053   1.287   4.415  13.936 -0.1980  0.4169  0.5439
16213TIP3    H170054   1.200   4.448  13.914  0.0272 -0.0004 -1.0170
16213TIP3    H270055   1.340   4.436  13.860  0.1911 -2.6833 -0.0760
16214TIP3   OH270056   3.055   2.216  14.530 -0.4595 -0.0102  0.1874
16214TIP3    H170057   3.023   2.300  14.563  1.3372  0.7888 -0.0794
16214TIP3    H270058   3.007   2.202  14.448 -0.9800  0.5909  0.3864
16215TIP3   OH270059   6.606   2.300  16.210  0.3251 -0.1249 -0.2567
16215TIP3    H170060   6.601   2.362  16.283  0.0552 -2.1391  1.4736
16215TIP3    H270061   6.516   2.294  16.178  0.1390 -0.5440  0.3495
16216TIP3   OH270062   0.674   3.023  14.808 -0.0355  0.2722 -0.5040
16216TIP3    H170063   0.656   2.978  14.891  0.4345  0.8681 -0.0722
16216TIP3    H270064   0.728   2.961  14.759  0.5097  0.3085  0.0385
16217TIP3   OH270065   2.112   5.937   6.125  0.0930 -0.3840 -0.2314
16217TIP3    H170066   2.171   5.984   6.066 -1.2113  0.2264 -1.0770
16217TIP3    H270067   2.055   6.004   6.160 -0.5055 -1.0567  0.0957
16218TIP3   OH270068   0.441   6.076   0.551  0.2032 -0.1783  0.2818
16218TIP3    H170069   0.507   6.007   0.553  1.3593  0.7831 -2.2704
16218TIP3    H270070   0.485   6.152   0.589  0.3185  0.2203 -0.6186
16219TIP3   OH270071   4.096   1.852   4.096 -0.4247 -0.7294 -0.0179
16219TIP3    H170072   4.086   1.860   4.001  3.3369 -0.9653 -0.4914
16219TIP3    H270073   4.101   1.758   4.112  1.1501 -0.6289  0.1354
16220TIP3   OH270074   1.100   3.182   0.065  0.1981 -0.5257 -0.4409
16220TIP3    H170075   1.099   3.116  -0.004  2.1568 -0.8308 -0.2199
16220TIP3    H270076   1.012   3.220   0.064  0.3655 -0.1012 -3.4766
16221TIP3   OH270077   5.270   3.493  14.512 -0.0119  0.0469  0.4691
16221TIP3    H170078   5.294   3.550  14.439 -0.2695  1.0204  1.1434
16221TIP3    H270079   5.174   3.498  14.516 -0.0694 -0.7836  0.2562
16222TIP3   OH270080   0.976   5.115   4.380  0.5387 -0.1823  1.0220
16222TIP3    H170081   1.014   5.031   4.353 -0.1094 -0.0890 -0.2298
16222TIP3    H270082   0.991   5.173   4.305 -0.9783  0.1955  0.9941
16223TIP3   OH270083   3.936   1.116  12.659  0.0300  0.8783 -0.4324
16223TIP3    H170084   3.972   1.081  12.741  1.0967 -1.3524 -1.8254
16223TIP3    H270085   3.929   1.210  12.675  0.3599  0.5005  2.1656
16224TIP3   OH270086   5.307   4.500  16.112  0.1127 -0.1103 -0.6799
16224TIP3    H170087   5.265   4.520  16.195 -0.3708 -1.9061 -0.4791
16224TIP3    H270088   5.366   4.574  16.097 -0.3192  0.5745  0.8974
16225TIP3   OH270089   6.457   4.768   5.568 -0.4008 -0.5865 -0.3831
16225TIP3    H170090   6.474   4.830   5.639  0.8033  0.1665 -1.3046
16225TIP3    H270091   6.373   4.798   5.531 -0.0449  0.2406 -0.5409
16226TIP3   OH270092   5.727   6.173  16.612  0.2767  0.1619 -0.0849
16226TIP3    H170093   5.653   6.216  16.569  0.3709  0.6248  0.2164
16226TIP3    H270094   5.762   6.114  16.545  0.4194  0.8792 -0.6498
16227TIP3   OH270095   5.408   3.321   2.645 -0.0120 -0.7343 -0.5445
16227TIP3    H170096   5.384   3.376   2.720  1.5441  0.9498 -1.2325
16227TIP3    H270097   5.329   3.271   2.626 -0.7822 -0.3739  1.5097
16228TIP3   OH270098   0.524   6.034   1.487  0.3877  0.5373 -0.2539
16228TIP3    H170099   0.470   6.029   1.566 -0.7406  0.6545 -1.0062
16228TIP3    H270100   0.524   5.945   1.453 -2.4823  1.2842 -2.3158
16229TIP3   OH270101   4.528   5.692  16.919  0.4637  0.6255  0.3133
16229TIP3    H170102   4.513   5.777  16.959 -1.6950 -0.1728  1.3203
16229TIP3    H270103   4.475   5.632  16.972  2.2544 -1.4076 -0.1189
16230TIP3   OH270104   4.020   2.993   4.424 -0.0058  0.4206 -0.5877
16230TIP3    H170105   4.019   3.088   4.437 -2.7993  0.0416  2.8032
16230TIP3    H270106   3.942   2.975   4.371 -0.6974 -0.1446  0.5971
16231TIP3   OH270107   3.839   0.200  15.951 -0.7033  0.2518 -0.5622
16231TIP3    H170108   3.901   0.272  15.967  0.4506 -0.9486  0.5167
16231TIP3    H270109   3.835   0.193  15.856  2.8944 -1.3509 -0.6814
16232TIP3   OH270110   3.340   1.318   2.345  0.1715 -0.8777 -0.0781
16232TIP3    H170111   3.285   1.304   2.422 -0.1212  0.8909  0.0668
16232TIP3    H270112   3.419   1.267   2.362  0.7804  0.7146  2.1393
16233TIP3   OH270113   1.751   6.098  11.838  0.0539  0.3575 -0.7554
16233TIP3    H170114   1.669   6.148  11.844 -0.7558 -0.9832 -0.3785
16233TIP3    H270115   1.804   6.130  11.910 -0.9331 -0.1471  0.2148
16234TIP3   OH270116   4.561   3.901  15.636  0.3108  0.6838  0.2083
16234TIP3    H170117   4.483   3.915  15.583 -0.2342 -0.9834  0.5453
16234TIP3    H270118   4.633   3.937  15.583 -0.2920 -0.4442 -1.4199
16235TIP3   OH270119   3.781   6.059  15.632 -0.3593  0.4734  0.6067
16235TIP3    H170120   3.709   6.020  15.681  0.1243 -1.2109  0.0374
16235TIP3    H270121   3.756   6.048  15.540  0.7384 -0.3910  0.3987
16236TIP3   OH270122   4.829   2.209  14.727  0.0218  0.1434  0.3102
16236TIP3    H170123   4.777   2.133  14.752 -0.4219  0.1357 -0.6244
16236TIP3    H270124   4.914   2.173  14.701 -0.5515 -0.1410 -1.1907
16237TIP3   OH270125   2.818   2.085   3.068  0.6641  0.3747 -0.6179
16237TIP3    H170126   2.730   2.093   3.105  1.0819  0.7481  0.2932
16237TIP3    H270127   2.825   1.993   3.042 -0.0881  0.4038 -0.9345
16238TIP3   OH270128   5.067   4.401   0.998 -0.0604 -0.7251 -0.3317
16238TIP3    H170129   5.009   4.357   0.936  1.6422 -1.7261 -1.2745
16238TIP3    H270130   5.035   4.490   1.003 -1.7312 -1.2953 -0.7525
16239TIP3   OH270131   1.581   2.918  11.715  0.2118 -1.2034  0.5552
16239TIP3    H170132   1.630   2.987  11.761 -0.7813  0.5564 -0.9872
16239TIP3    H270133   1.643   2.884  11.650 -0.1902  0.1568 -0.5469
16240TIP3   OH270134   3.564   5.780  12.335  0.7198  0.7423  0.1729
16240TIP3    H170135   3.611   5.775  12.418  1.0517  0.1212 -0.0469
16240TIP3    H270136   3.587   5.699  12.289 -0.2181  0.6318 -0.1215
16241TIP3   OH270137   2.486   2.855  14.975 -0.1854 -0.6630  0.5598
16241TIP3    H170138   2.449   2.792  15.037  1.1022  0.0554  2.1250
16241TIP3    H270139   2.580   2.835  14.974  0.5279  2.2140  2.3779
16242TIP3   OH270140   1.630   0.645  14.766  0.1501 -0.3642  0.5278
16242TIP3    H170141   1.554   0.649  14.709  0.2319  1.8575  0.5188
16242TIP3    H270142   1.645   0.736  14.791  2.4653 -0.8480  0.9691
16243TIP3   OH270143   3.682   3.374   4.955 -0.6684 -0.1589  0.1197
16243TIP3    H170144   3.757   3.336   4.910 -0.7972  0.2128 -0.4072
16243TIP3    H270145   3.609   3.316   4.933 -0.9513  0.6226 -1.0286
16244TIP3   OH270146   3.902   0.885  15.288 -0.2659  0.0490 -0.7911
16244TIP3    H170147   3.826   0.850  15.334  0.5540 -0.0495  0.5072
16244TIP3    H270148   3.864   0.942  15.220 -1.4758  0.5567  0.2862
16245TIP3   OH270149   2.716   5.229  13.733  0.2913 -0.4336  0.1903
16245TIP3    H170150   2.802   5.233  13.774  0.4559  1.3643 -0.2706
16245TIP3    H270151   2.732   5.190  13.647  0.6104 -0.3280  0.2008
16246TIP3   OH270152   6.386   4.131   4.688 -0.3201  0.8304 -0.0347
16246TIP3    H170153   6.416   4.209   4.735 -0.6066  1.1727 -0.4194
16246TIP3    H270154   6.446   4.123   4.614  0.5940 -0.1388  0.7932
16247TIP3   OH270155   1.388   3.967  11.702 -0.1738 -0.2762  0.1963
16247TIP3    H170156   1.310   3.921  11.672 -0.0750 -0.2553 -0.1041
16247TIP3    H270157   1.358   4.025  11.771 -0.6470  0.6554 -0.7819
16248TIP3   OH270158   2.183   3.363   4.063  0.1182  0.2315 -0.7004
16248TIP3    H170159   2.263   3.413   4.048 -1.3840  3.3546  0.9864
16248TIP3    H270160   2.199   3.314   4.143 -0.1123  1.9830  0.4461
16249TIP3   OH270161   6.096   2.155   0.941  0.3416  0.1847 -0.1764
16249TIP3    H170162   6.187   2.132   0.926  0.3594  0.0925  0.0693
16249TIP3    H270163   6.047   2.101   0.880  0.3872 -0.4595  0.3598
16250TIP3   OH270164   2.613   2.673  17.207 -0.0459 -0.4291 -0.0705
16250TIP3    H170165   2.614   2.578  17.195 -1.7837 -0.7479  1.9738
16250TIP3    H270166   2.523   2.699  17.186  0.5431  0.8390 -1.0862
16251TIP3   OH270167   2.480   2.799  13.032  0.1699 -0.2552 -0.1391
16251TIP3    H170168   2.554   2.825  12.977 -0.7882  0.0343 -1.2927
16251TIP3    H270169   2.465   2.874  13.089 -0.9252  0.7467 -1.7077
16252TIP3   OH270170   5.291   3.504  10.612 -0.4338 -0.0418  0.0389
16252TIP3    H170171   5.269   3.597  10.616 -0.2824 -0.0862  2.2179
16252TIP3    H270172   5.303   3.486  10.518 -1.3242  1.9178 -0.4657
16253TIP3   OH270173   3.610   2.078   4.811  0.0180  0.1707  0.3640
16253TIP3    H170174   3.618   2.173   4.807  1.5392  0.0023 -0.8376
16253TIP3    H270175   3.692   2.049   4.851  0.8399 -0.8238 -1.9577
16254TIP3   OH270176   2.822   0.293   1.017  0.1908  0.4477  0.3410
16254TIP3    H170177   2.791   0.372   0.974  0.6484  1.0631  1.1227
16254TIP3    H270178   2.910   0.280   0.983  0.0437  0.1744  0.0709
16255TIP3   OH270179   4.632   3.356   0.491  0.0857 -0.0481  0.3323
16255TIP3    H170180   4.654   3.264   0.502  1.2924  0.3826  1.7860
16255TIP3    H270181   4.550   3.356   0.441  0.0935 -1.8922  0.2940
16256TIP3   OH270182   4.063   1.591  14.041 -0.5515  0.4569 -0.3187
16256TIP3    H170183   4.097   1.501  14.033 -1.4110  0.2047 -1.2036
16256TIP3    H270184   4.140   1.643  14.063  0.2398 -0.2680 -1.3056
16257TIP3   OH270185   3.569   4.761   2.463 -0.2221 -0.6115  0.2433
16257TIP3    H170186   3.497   4.824   2.454 -0.0919 -0.4307  0.4649
16257TIP3    H270187   3.525   4.675   2.462 -0.3204 -0.5556 -0.8806
16258TIP3   OH270188   5.124   5.909   1.926 -0.2217 -0.5580  0.8083
16258TIP3    H170189   5.099   5.945   1.841  1.3033  0.7607  0.9046
16258TIP3    H270190   5.192   5.845   1.906 -0.5292 -0.9460  0.9722
16259TIP3   OH270191   6.486   2.785   2.218 -0.2015 -0.1352  0.5381
16259TIP3    H170192   6.505   2.695   2.245  2.5283  0.3057  0.2853
16259TIP3    H270193   6.543   2.800   2.142 -0.5471  1.8068  0.6268
16260TIP3   OH270194   2.316   1.168  13.364  0.0561 -0.2418  0.3971
16260TIP3    H170195   2.294   1.259  13.385 -1.2118 -0.3096 -0.5784
16260TIP3    H270196   2.346   1.131  13.447 -0.6648  0.7083  1.1008
16261TIP3   OH270197   1.991   2.056   1.098 -0.7597 -0.0740  0.3087
16261TIP3    H170198   1.946   2.140   1.107 -1.3121 -0.3365  0.0090
16261TIP3    H270199   2.055   2.070   1.028 -0.8439  0.0969  0.2657
16262TIP3   OH270200   1.252   1.305  14.173  0.0914 -0.3408 -0.7531
16262TIP3    H170201   1.181   1.281  14.232  1.1791  1.4520  1.3376
16262TIP3    H270202   1.323   1.244  14.195  0.7844  0.8652  0.3872
16263TIP3   OH270203   1.450   6.479   2.140  0.2877  0.4906  0.0201
16263TIP3    H170204   1.460   6.394   2.183  1.2127 -0.1222 -1.4094
16263TIP3    H270205   1.519   6.482   2.074  1.2063  2.9673  1.0292
16264TIP3   OH270206   2.430   6.021  16.472 -0.2000  0.0961 -0.0237
16264TIP3    H170207   2.343   6.038  16.510  0.3053  3.1916 -0.0822
16264TIP3    H270208   2.461   5.942  16.516 -1.9647  0.4378  1.9108
16265TIP3   OH270209   6.611   5.472  11.808  0.1756 -0.0138  0.3812
16265TIP3    H170210   6.531   5.456  11.757  1.3717 -1.8047 -0.9733
16265TIP3    H270211   6.581   5.471  11.899 -1.7145  1.5780 -0.1815
16266TIP3   OH270212   2.713   2.279  13.731 -0.2821 -0.1298 -0.6673
16266TIP3    H170213   2.792   2.334  13.729 -1.1490  1.1493  0.0440
16266TIP3    H270214   2.677   2.286  13.643 -0.4838  0.5864 -0.5304
16267TIP3   OH270215   4.373   0.334   5.168  0.0563  0.8273  0.5225
16267TIP3    H170216   4.410   0.325   5.080  0.4255  1.0305  0.6588
16267TIP3    H270217   4.411   0.415   5.202  0.2201  0.5408  1.0212
16268TIP3   OH270218   0.828   6.259  15.777  0.3157 -0.3234 -0.2765
16268TIP3    H170219   0.796   6.346  15.803  0.0785 -0.2983 -0.6475
16268TIP3    H270220   0.817   6.257  15.682  0.6425 -0.6335 -0.3068
16269TIP3   OH270221   0.258   5.888  11.306  0.1791  0.1673 -0.5856
16269TIP3    H170222   0.179   5.911  11.354 -0.0220 -1.2566 -0.2317
16269TIP3    H270223   0.251   5.794  11.289  2.7703 -0.4566  1.3518
16270TIP3   OH270224   1.585   1.617  17.084 -0.4906  0.5570 -0.5823
16270TIP3    H170225   1.597   1.529  17.050  1.4576  0.1731  0.9391
16270TIP3    H270226   1.674   1.645  17.109 -1.4001  1.9474  1.2690
16271TIP3   OH270227   0.092   2.008  15.469  0.0262 -0.2627 -0.1175
16271TIP3    H170228   0.009   1.990  15.424  0.2999 -2.6554  0.2549
16271TIP3    H270229   0.134   2.076  15.417 -1.3969 -0.2780 -1.3003
16272TIP3   OH270230   3.895   0.909  11.320 -0.0083 -0.7384 -0.2110
16272TIP3    H170231   3.808   0.934  11.350 -0.9976 -1.5732 -2.2743
16272TIP3    H270232   3.892   0.813  11.315  1.2372 -0.8127  0.3163
16273TIP3   OH270233   2.582   4.761  11.833 -0.5153  0.2790  0.5312
16273TIP3    H170234   2.582   4.751  11.928 -2.3166 -0.5159  0.4711
16273TIP3    H270235   2.602   4.674  11.799 -2.1095  0.0267  0.1764
16274TIP3   OH270236   4.446   1.176  13.749  0.4590  0.3137 -0.1850
16274TIP3    H170237   4.398   1.254  13.724  1.0973  0.7534 -0.0643
16274TIP3    H270238   4.446   1.121  13.671 -1.9279 -0.5729  0.3965
16275TIP3   OH270239   2.367   2.649   1.334 -0.1382  0.2560  0.0011
16275TIP3    H170240   2.388   2.721   1.275  0.7459 -1.0178 -1.2589
16275TIP3    H270241   2.447   2.638   1.387 -0.7671  1.1012  1.1397
16276TIP3   OH270242   4.971   3.143  16.845 -0.2609  0.3330  0.1263
16276TIP3    H170243   4.957   3.210  16.778 -4.1787 -0.4264  0.0749
16276TIP3    H270244   4.980   3.062  16.796  1.0776  0.3389  0.3513
16277TIP3   OH270245   0.526   4.089  11.198 -0.4981  0.7223  0.5594
16277TIP3    H170246   0.504   4.167  11.148  0.9282  0.5065 -0.4546
16277TIP3    H270247   0.530   4.019  11.132 -0.6755  0.0284  1.2846
16278TIP3   OH270248   3.014   2.231   1.708  0.3892 -0.4538  0.7047
16278TIP3    H170249   2.937   2.183   1.677  0.4502 -0.9327  1.3034
16278TIP3    H270250   3.002   2.237   1.803  1.4970 -1.2580  0.9004
16279TIP3   OH270251   4.254   1.543  11.365 -0.2068  0.6168  0.0171
16279TIP3    H170252   4.282   1.493  11.442  1.3526 -0.7303 -1.3650
16279TIP3    H270253   4.259   1.635  11.393  0.2634  0.1486  1.5480
16280TIP3   OH270254   0.980   0.779   3.592 -0.1950 -0.4912 -0.0049
16280TIP3    H170255   0.937   0.860   3.623 -0.7506 -0.1762 -1.5069
16280TIP3    H270256   1.073   0.801   3.589 -0.4011  0.3080 -0.9676
16281TIP3   OH270257   1.695   3.906   2.305  0.5464  0.5589  0.4012
16281TIP3    H170258   1.611   3.860   2.302  0.6055  0.4767 -0.1274
16281TIP3    H270259   1.761   3.837   2.311  0.7416  0.4357 -2.1788
16282TIP3   OH270260   0.383   0.955  13.869 -0.0977  0.1526 -0.0573
16282TIP3    H170261   0.291   0.931  13.858 -0.1957 -1.1193  2.9383
16282TIP3    H270262   0.421   0.882  13.918  1.8936  1.8193  0.9804
16283TIP3   OH270263   5.530   2.695  10.784 -0.3356 -0.2966  0.3091
16283TIP3    H170264   5.474   2.761  10.743 -1.0834  1.8241  4.4810
16283TIP3    H270265   5.469   2.632  10.822  0.3158 -1.5845 -0.7246
16284TIP3   OH270266   3.155   1.091  11.923  0.2040 -0.0621  0.3155
16284TIP3    H170267   3.238   1.132  11.947 -0.6829 -0.1156  3.7120
16284TIP3    H270268   3.091   1.163  11.926 -0.2078 -0.3919 -0.3930
16285TIP3   OH270269   2.516   1.983  11.926  0.1372  0.2886  0.0045
16285TIP3    H170270   2.552   2.066  11.956  3.8595 -1.5530  0.8755
16285TIP3    H270271   2.479   1.943  12.004  1.9939 -0.6570  0.4035
16286TIP3   OH270272   4.420   5.477   3.360 -0.2040 -0.2021 -0.3229
16286TIP3    H170273   4.443   5.514   3.275 -1.7265  0.2061 -0.5682
16286TIP3    H270274   4.368   5.399   3.340 -0.7272 -0.0011  0.2322
16287TIP3   OH270275   0.964   4.659   1.391  0.0902 -0.0545 -0.0595
16287TIP3    H170276   1.033   4.725   1.388  0.4556 -0.4164  0.4593
16287TIP3    H270277   1.004   4.582   1.432 -1.0505  0.2548  1.7046
16288TIP3   OH270278   6.247   3.681  16.185  0.4382 -0.3023  0.1152
16288TIP3    H170279   6.328   3.641  16.217  0.6358 -0.8918 -1.0912
16288TIP3    H270280   6.256   3.681  16.090 -0.5164  0.6204  0.0122
16289TIP3   OH270281   0.677   5.716   4.173  0.3189  0.0820 -0.1856
16289TIP3    H170282   0.730   5.660   4.118  1.9307  1.8815 -0.5111
16289TIP3    H270283   0.699   5.691   4.263  0.3030 -0.4527 -0.3307
16290TIP3   OH270284   5.311   4.663  15.604  0.4384 -0.4018  0.0370
16290TIP3    H170285   5.392   4.623  15.572 -0.2626  0.3028 -2.7942
16290TIP3    H270286   5.299   4.741  15.549 -0.3252  1.4889  2.7695
16291TIP3   OH270287   4.273   3.932  13.796  0.1509  0.1349 -0.0883
16291TIP3    H170288   4.276   3.901  13.887  1.4044 -3.1144 -1.1772
16291TIP3    H270289   4.203   3.997  13.796 -0.0937 -0.0238  3.1308
16292TIP3   OH270290   0.793   2.699  15.020 -0.3589 -0.6770  0.0305
16292TIP3    H170291   0.817   2.791  15.027 -1.0217 -0.5373  0.5946
16292TIP3    H270292   0.763   2.675  15.108 -0.9004 -1.2212 -0.2901
16293TIP3   OH270293   6.319   4.183  16.430  0.3447 -0.0872 -0.3535
16293TIP3    H170294   6.277   4.148  16.508 -1.1007 -2.3348 -2.0762
16293TIP3    H270295   6.348   4.105  16.381 -1.3152  1.1130 -3.4063
16294TIP3   OH270296   3.190   3.877  13.205  0.0991 -0.0990 -0.0946
16294TIP3    H170297   3.122   3.934  13.241 -1.3738 -2.6209  1.3096
16294TIP3    H270298   3.271   3.928  13.212 -1.2147  1.9108  0.8203
16295TIP3   OH270299   1.504   3.766  12.242 -0.3900  0.1766  0.0635
16295TIP3    H170300   1.576   3.709  12.215 -1.0744 -0.3164 -0.7697
16295TIP3    H270301   1.523   3.850  12.200  0.7282  0.6355  1.4602
16296TIP3   OH270302   6.743   0.265  14.819 -0.0785 -0.1483 -0.1890
16296TIP3    H170303   6.696   0.184  14.800  0.9445 -0.3833 -1.8003
16296TIP3    H270304   6.823   0.259  14.767  1.2674  0.7038  1.7063
16297TIP3   OH270305   0.124   4.847  10.824 -0.1055  0.0576 -1.3315
16297TIP3    H170306   0.172   4.927  10.840  0.4270 -0.5701  0.2725
16297TIP3    H270307   0.072   4.865  10.745  0.3966  1.7768 -1.2763
16298TIP3   OH270308   5.408   1.006  11.325  0.9081 -0.5393  0.0650
16298TIP3    H170309   5.435   0.921  11.361  0.9261 -0.2710  0.6920
16298TIP3    H270310   5.318   1.016  11.354  0.7890 -0.5121 -0.3220
16299TIP3   OH270311   3.793   6.765  16.803  0.3481  0.9939  0.1807
16299TIP3    H170312   3.748   6.713  16.870 -0.6424  1.0409 -0.4308
16299TIP3    H270313   3.756   6.734  16.720  0.6101  1.8393 -0.2612
16300TIP3   OH270314   0.349   4.401   4.602 -0.4271 -0.1830  0.0896
16300TIP3    H170315   0.265   4.415   4.559 -0.8771  1.1025  1.3395
16300TIP3    H270316   0.400   4.349   4.539 -1.8666 -0.3093 -0.9997
16301TIP3   OH270317   6.055   4.754   4.521  0.0134 -0.4855  0.3573
16301TIP3    H170318   6.049   4.659   4.524 -0.8525 -0.4204  0.6208
16301TIP3    H270319   6.014   4.779   4.438 -1.0190 -0.2451  0.9336
16302TIP3   OH270320   4.065   6.185   2.288 -1.2565  0.3086 -0.3897
16302TIP3    H170321   4.149   6.208   2.327 -1.7007  0.0152  0.7554
16302TIP3    H270322   4.088   6.150   2.202 -0.4854  3.6742 -1.6230
16303TIP3   OH270323   0.476   5.679  13.397  0.1322  0.2020 -0.2329
16303TIP3    H170324   0.427   5.606  13.435  0.6129  0.4867  0.9756
16303TIP3    H270325   0.497   5.651  13.308  2.7468 -2.3160  1.1267
16304TIP3   OH270326   4.151   3.760   2.109 -0.3061 -0.2544  0.1702
16304TIP3    H170327   4.101   3.688   2.148 -0.4806 -0.9762 -1.3609
16304TIP3    H270328   4.232   3.719   2.077  0.2570  0.4966  0.5993
16305TIP3   OH270329   1.736   0.155   4.217 -0.0365  0.3739  0.5160
16305TIP3    H170330   1.672   0.217   4.252 -1.2097 -0.0124 -0.8868
16305TIP3    H270331   1.770   0.110   4.294 -0.1131  1.8622  1.4341
16306TIP3   OH270332   2.189   6.516   5.698  0.0919  0.3390  0.0808
16306TIP3    H170333   2.117   6.475   5.650 -0.1948 -0.0491  0.8214
16306TIP3    H270334   2.162   6.510   5.790 -0.1516  2.5864  0.1779
16307TIP3   OH270335   6.756   5.776   1.995  0.4037  0.1723 -0.3479
16307TIP3    H170336   6.793   5.727   2.069 -0.4425 -0.6678 -0.4776
16307TIP3    H270337   6.674   5.811   2.028  1.1589  1.8139 -0.1533
16308TIP3   OH270338   0.025   3.320   1.687  0.2730 -0.0466 -0.3965
16308TIP3    H170339   0.027   3.242   1.631  1.0393 -0.4492  0.1879
16308TIP3    H270340   0.002   3.287   1.774  1.0369  0.3259 -0.0541
16309TIP3   OH270341   1.554   0.892   1.287 -0.3996 -0.3108 -0.3909
16309TIP3    H170342   1.542   0.914   1.379  0.5536 -1.1788 -0.0492
16309TIP3    H270343   1.484   0.939   1.241 -0.6918  0.3638  0.7374
16310TIP3   OH270344   1.636   1.386   3.947  0.5893 -0.4721  0.1967
16310TIP3    H170345   1.620   1.310   3.890 -1.9145 -1.0421  1.5912
16310TIP3    H270346   1.597   1.361   4.030  1.4972  1.5998  1.2527
16311TIP3   OH270347   4.571   1.116   5.417 -0.2154  0.3042  0.3902
16311TIP3    H170348   4.592   1.047   5.480 -1.2845 -0.6654 -0.2945
16311TIP3    H270349   4.656   1.154   5.394  0.7053 -2.6031 -1.2675
16312TIP3   OH270350   0.130   5.695   1.280 -0.3181  0.3032 -0.4375
16312TIP3    H170351   0.060   5.728   1.335  0.0409  0.1352  0.1289
16312TIP3    H270352   0.086   5.646   1.211 -0.7254 -0.4413  0.3414
16313TIP3   OH270353   1.018   2.864  11.349  0.0401 -0.4992  0.4099
16313TIP3    H170354   1.076   2.854  11.424 -0.1063 -2.2092  0.3148
16313TIP3    H270355   1.060   2.932  11.295  1.2627 -0.7833  0.9872
16314TIP3   OH270356   4.816   0.494  14.079  0.3882  0.1470 -0.0674
16314TIP3    H170357   4.725   0.514  14.059  0.4889 -0.4046 -1.1509
16314TIP3    H270358   4.812   0.434  14.154 -0.1245  0.2779  0.0130
16315TIP3   OH270359   0.405   3.910   4.432  0.7340 -0.2387 -0.2156
16315TIP3    H170360   0.364   3.825   4.448  0.0366  0.1658  0.1200
16315TIP3    H270361   0.446   3.933   4.515 -1.0407  0.8341  0.3858
16316TIP3   OH270362   4.296   4.487   4.068 -0.1177 -0.2604  0.7631
16316TIP3    H170363   4.329   4.464   3.981 -0.1668 -0.5351  0.8179
16316TIP3    H270364   4.202   4.472   4.064 -0.0630 -0.6816  0.9919
16317TIP3   OH270365   4.552   4.807   3.660 -0.0572  0.0631 -0.1119
16317TIP3    H170366   4.597   4.768   3.584  2.5635  2.1096  0.2989
16317TIP3    H270367   4.513   4.733   3.706 -2.6169 -1.1539 -3.9763
16318TIP3   OH270368   5.033   6.018  15.333 -0.2204  0.3865  0.0575
16318TIP3    H170369   4.969   6.063  15.388 -1.6418  0.7287 -1.8418
16318TIP3    H270370   5.105   6.081  15.322  0.1407  0.2648  1.6032
16319TIP3   OH270371   0.078   1.618   1.215 -0.5111  0.1104  0.4367
16319TIP3    H170372   0.068   1.538   1.163 -0.4874  0.9825 -0.9477
16319TIP3    H270373   0.007   1.676   1.184  0.2382  1.0927  0.5279
16320TIP3   OH270374   3.223   4.306  12.286 -0.0367 -0.3544 -0.4860
16320TIP3    H170375   3.305   4.354  12.279 -0.0949 -0.5300 -2.4819
16320TIP3    H270376   3.156   4.368  12.256 -0.5178 -0.6025  0.0422
16321TIP3   OH270377   1.745   0.429   1.029  0.6828 -0.0307  0.2055
16321TIP3    H170378   1.682   0.501   1.032 -0.3126 -0.7443 -1.9717
16321TIP3    H270379   1.826   0.470   0.997  0.3492  0.2872 -0.2514
16322TIP3   OH270380   6.320   4.474  16.842  0.2329  0.2052 -0.8723
16322TIP3    H170381   6.299   4.567  16.838  1.6540  0.6130  0.3068
16322TIP3    H270382   6.401   4.471  16.894 -1.1634 -1.8975  1.2525
16323TIP3   OH270383   2.701   4.269  11.877  0.1757 -0.2701  0.0863
16323TIP3    H170384   2.785   4.244  11.916  0.6349  0.6443 -0.2883
16323TIP3    H270385   2.675   4.193  11.825  1.6790  0.0774 -1.2381
16324TIP3   OH270386   1.992   3.264  15.700  0.0601 -0.2661  0.0007
16324TIP3    H170387   2.076   3.230  15.730  0.0229 -0.9831 -0.6929
16324TIP3    H270388   1.999   3.265  15.604 -1.1306 -1.4206 -0.1184
16325TIP3   OH270389   0.261   4.659   5.906 -0.0829 -0.3171 -0.0717
16325TIP3    H170390   0.208   4.694   5.978 -0.3954 -1.0984  0.0755
16325TIP3    H270391   0.232   4.569   5.896  1.4993 -0.8891  0.2933
16326TIP3   OH270392   2.764   6.136   3.550 -0.1642 -0.2808 -0.4502
16326TIP3    H170393   2.853   6.152   3.582 -0.0172 -1.0941 -0.4440
16326TIP3    H270394   2.720   6.091   3.622 -0.2300 -0.9175 -0.8817
16327TIP3   OH270395   3.957   4.788   1.370  0.7986 -0.2753  0.0891
16327TIP3    H170396   4.030   4.843   1.343  0.0399  0.6667 -0.0592
16327TIP3    H270397   3.904   4.844   1.427  1.3609 -1.6399  2.0153
16328TIP3   OH270398   0.714   2.455   4.890  0.2189 -0.2175 -0.2142
16328TIP3    H170399   0.625   2.481   4.915  0.3674  0.7500 -0.6604
16328TIP3    H270400   0.701   2.399   4.813  0.0160  0.4615 -0.6885
16329TIP3   OH270401   2.915   3.478  16.303 -0.1889 -0.0513 -0.1534
16329TIP3    H170402   2.825   3.505  16.320 -0.1067  0.2932 -0.2540
16329TIP3    H270403   2.922   3.390  16.340 -0.0350  0.6656  1.5711
16330TIP3   OH270404   5.745   6.500  11.578  0.0470  0.5627  0.2588
16330TIP3    H170405   5.735   6.469  11.668 -0.8357  0.5773  0.1753
16330TIP3    H270406   5.655   6.501  11.544  0.2658  1.4999 -0.2997
16331TIP3   OH270407   0.575   4.889  13.979 -0.1736 -0.3518  0.4235
16331TIP3    H170408   0.552   4.977  13.948 -0.9456 -0.1993  1.4209
16331TIP3    H270409   0.506   4.832  13.942  0.4773 -0.5878 -0.4486
16332TIP3   OH270410   3.231   1.257   4.426 -0.0346 -0.2160  0.0739
16332TIP3    H170411   3.275   1.337   4.398  0.9826 -0.8102 -0.0211
16332TIP3    H270412   3.162   1.287   4.485  0.0233  0.7687 -0.3576
16333TIP3   OH270413   5.574   4.330   2.103  0.4303  0.1435  0.0187
16333TIP3    H170414   5.647   4.320   2.042 -0.0557  2.2373 -0.9721
16333TIP3    H270415   5.615   4.352   2.186  1.1031 -2.6988  0.4809
16334TIP3   OH270416   5.901   3.718  15.788 -0.2697  0.4674 -0.3846
16334TIP3    H170417   5.813   3.693  15.761 -0.5041  0.4398  0.3889
16334TIP3    H270418   5.947   3.634  15.798 -0.6797  0.3884  0.9470
16335TIP3   OH270419   3.806   5.061   4.069  0.0974 -0.6999 -0.1203
16335TIP3    H170420   3.831   5.124   4.137  1.1464 -1.2472  0.0074
16335TIP3    H270421   3.765   4.989   4.117  1.2238 -1.2842 -0.0009
16336TIP3   OH270422   6.384   4.667  15.297  0.1020  0.3451  0.1542
16336TIP3    H170423   6.355   4.710  15.378 -1.2362  0.0060 -0.1313
16336TIP3    H270424   6.391   4.738  15.233  0.9626  0.5851  0.5127
16337TIP3   OH270425   0.159   6.317   1.177 -0.6740 -0.3600  0.2386
16337TIP3    H170426   0.145   6.237   1.126  0.3415 -1.0528  1.0276
16337TIP3    H270427   0.090   6.377   1.147 -0.7163 -1.1073 -1.2174
16338TIP3   OH270428   0.160   0.849  13.081 -0.1673  0.5701  0.3105
16338TIP3    H170429   0.085   0.875  13.028  0.5573 -1.2809 -1.6876
16338TIP3    H270430   0.195   0.931  13.115 -1.7957  1.6326 -0.5147
16339TIP3   OH270431   1.624   0.580   0.028  0.1890  0.2314 -0.6339
16339TIP3    H170432   1.710   0.619   0.043  1.1351 -2.1547  0.3456
16339TIP3    H270433   1.567   0.655   0.007  2.3910  1.8801 -0.9326
16340TIP3   OH270434   0.878   6.357   5.977 -0.0720  0.1892  0.3033
16340TIP3    H170435   0.964   6.368   5.936  0.4198  0.0646  1.2725
16340TIP3    H270436   0.831   6.439   5.957  1.1216  1.2632  1.7356
16341TIP3   OH270437   4.076   2.737  12.189 -0.7910 -0.2560 -0.6802
16341TIP3    H170438   4.000   2.682  12.173 -1.0760 -0.1184  0.1960
16341TIP3    H270439   4.041   2.815  12.231 -0.6894  1.6299 -3.9104
16342TIP3   OH270440   2.841   3.057   0.956 -0.4662 -0.0777 -0.6979
16342TIP3    H170441   2.814   2.967   0.940 -1.7414  0.4972 -1.8780
16342TIP3    H270442   2.876   3.088   0.873 -1.3875  0.9631 -0.7239
16343TIP3   OH270443   5.078   0.919   1.506  0.2824  0.7642  0.2682
16343TIP3    H170444   4.989   0.946   1.528 -0.6064 -1.8963  0.0820
16343TIP3    H270445   5.106   0.983   1.441 -1.2334  2.0511  0.8413
16344TIP3   OH270446   0.401   2.404   6.354 -0.6250 -0.0030 -0.4620
16344TIP3    H170447   0.382   2.413   6.448  0.3002 -0.5501 -0.2162
16344TIP3    H270448   0.324   2.441   6.311 -1.8860 -1.4174  0.5064
16345TIP3   OH270449   3.942   2.583  13.014  1.0665 -0.3005  0.2526
16345TIP3    H170450   3.853   2.603  12.982  0.4215 -1.4338  1.2823
16345TIP3    H270451   3.931   2.571  13.108  2.3658 -0.2103  0.4167
16346TIP3   OH270452   2.636   0.996   0.397 -0.5199  0.5392  0.2729
16346TIP3    H170453   2.677   0.920   0.356 -0.0888 -1.0143  3.4817
16346TIP3    H270454   2.567   0.959   0.452 -0.8428  2.5443  1.2387
16347TIP3   OH270455   3.031   2.819  16.274 -0.4969 -0.9466  0.2212
16347TIP3    H170456   2.936   2.829  16.280 -0.3576 -0.2397  1.3171
16347TIP3    H270457   3.049   2.816  16.180 -1.4876  0.0472 -0.0038
16348TIP3   OH270458   5.754   4.022  14.947  0.2720  0.1599  0.5091
16348TIP3    H170459   5.672   3.973  14.950  0.3380 -0.0817 -1.4799
16348TIP3    H270460   5.809   3.979  15.012 -0.6110 -0.6959  0.7090
16349TIP3   OH270461   3.460   6.471   0.145 -0.3500 -0.5985  0.3982
16349TIP3    H170462   3.473   6.376   0.138 -0.0009 -0.5512  0.4140
16349TIP3    H270463   3.450   6.500   0.054 -1.0494 -0.7344  0.4302
16350TIP3   OH270464   2.429   2.395   0.240 -0.2014  0.7245  0.3628
16350TIP3    H170465   2.367   2.440   0.183 -1.3696  0.8798  1.7328
16350TIP3    H270466   2.404   2.302   0.233  0.7003  0.5434 -0.6248
16351TIP3   OH270467   0.238   3.687  17.176 -0.1567 -0.6659 -0.3047
16351TIP3    H170468   0.229   3.690  17.080  1.0817  1.4485 -0.3721
16351TIP3    H270469   0.150   3.707  17.208 -0.6456 -1.6458 -0.9892
16352TIP3   OH270470   0.884   1.575  13.095 -0.3521  0.1084  0.3320
16352TIP3    H170471   0.805   1.607  13.052 -0.9851  0.1676  1.5185
16352TIP3    H270472   0.951   1.642  13.075 -0.2009 -0.6858 -1.8951
16353TIP3   OH270473   3.754   3.259   5.944  0.2233 -0.0235  0.2382
16353TIP3    H170474   3.772   3.237   5.853  0.1763 -0.9051  0.4301
16353TIP3    H270475   3.699   3.187   5.975  1.4078 -0.4738  1.3494
16354TIP3   OH270476   3.070   6.748  12.011 -0.5178  0.2214 -0.7539
16354TIP3    H170477   3.134   6.816  12.035 -1.2161  0.6238 -0.0013
16354TIP3    H270478   3.041   6.772  11.923 -0.0933  0.3784 -0.8544
16355TIP3   OH270479   1.915   3.689   0.929 -0.2981 -0.1429  0.7109
16355TIP3    H170480   1.824   3.698   0.904 -0.2979 -1.2926  0.2767
16355TIP3    H270481   1.954   3.633   0.861  0.6233 -0.0095  1.1139
16356TIP3   OH270482   0.834   5.729   4.731  0.1263  0.4633 -0.1608
16356TIP3    H170483   0.766   5.700   4.792  0.2889 -0.6207 -0.4867
16356TIP3    H270484   0.794   5.723   4.645  0.9626 -1.2027 -0.4493
16357TIP3   OH270485   4.435   5.048  17.157  0.1755  0.3464  0.0617
16357TIP3    H170486   4.431   4.984  17.229  0.9728 -0.3955 -0.5360
16357TIP3    H270487   4.408   4.998  17.080  0.0722  0.9354 -0.2809
16358TIP3   OH270488   1.622   1.532  15.119  0.0904  0.2914 -0.2278
16358TIP3    H170489   1.559   1.604  15.108 -0.3500 -0.0566  0.0136
16358TIP3    H270490   1.599   1.492  15.202 -2.1005 -2.5033 -2.0873
16359TIP3   OH270491   4.780   1.815   5.104 -0.0015 -0.2701  0.0444
16359TIP3    H170492   4.819   1.730   5.080 -0.9389 -0.4758 -0.7994
16359TIP3    H270493   4.704   1.792   5.157 -0.4089  0.0186 -0.4039
16360TIP3   OH270494   1.190   5.414  11.725  0.6185  0.2169 -0.2885
16360TIP3    H170495   1.204   5.402  11.631  1.1799 -0.1724 -0.1553
16360TIP3    H270496   1.105   5.375  11.742  0.5438  0.2310 -0.6230
16361TIP3   OH270497   1.456   5.458  11.691 -0.6492 -0.3203  0.0121
16361TIP3    H170498   1.374   5.492  11.728  0.0468  3.3807 -1.5627
16361TIP3    H270499   1.524   5.493  11.748  0.1169  1.1711 -1.7766
16362TIP3   OH270500   0.984   3.914  11.205  0.3792  0.3708  0.2239
16362TIP3    H170501   0.976   3.830  11.251 -1.0985 -0.4903 -1.5129
16362TIP3    H270502   0.939   3.976  11.262 -1.1139 -0.6025  0.1409
16363TIP3   OH270503   2.429   4.504  13.261  0.0120 -0.2847  0.5352
16363TIP3    H170504   2.347   4.512  13.310  0.2124 -1.4553  1.0708
16363TIP3    H270505   2.465   4.420  13.288  1.3726  0.1967  0.2624
16364TIP3   OH270506   2.904   0.561   5.407 -0.4874  0.1309  0.0238
16364TIP3    H170507   2.875   0.594   5.492 -0.3501 -1.2677  0.6305
16364TIP3    H270508   2.831   0.580   5.348 -1.7001 -1.1960  1.0260
16365TIP3   OH270509   6.688   5.986   4.116  0.3391 -0.2569 -0.0035
16365TIP3    H170510   6.614   6.034   4.154 -0.3385 -0.5976 -0.8828
16365TIP3    H270511   6.651   5.901   4.091  0.7871 -0.0512 -1.3953
16366TIP3   OH270512   2.825   4.793   3.068 -0.4086 -0.4655 -0.0123
16366TIP3    H170513   2.831   4.782   2.973  0.7255 -0.8231  0.0933
16366TIP3    H270514   2.868   4.877   3.085 -0.2477 -0.5980  0.2343
16367TIP3   OH270515   3.935   0.641  11.368  0.4401  0.3976 -0.7749
16367TIP3    H170516   3.959   0.579  11.438 -1.1133  0.2963 -0.3123
16367TIP3    H270517   3.965   0.598  11.288  0.8582 -0.1983 -0.3124
16368TIP3   OH270518   2.036   3.622   2.048  0.3186  0.3222  0.3912
16368TIP3    H170519   1.947   3.657   2.042 -0.1639 -0.7544  1.0460
16368TIP3    H270520   2.070   3.627   1.959 -0.8324 -0.3596 -0.0979
16369TIP3   OH270521   3.364   0.542  13.845  0.6651  0.1235  0.7346
16369TIP3    H170522   3.275   0.526  13.814  0.7417  2.0986 -0.5625
16369TIP3    H270523   3.356   0.615  13.906  1.1626 -0.9138  2.0976
16370TIP3   OH270524   5.117   5.955   1.633 -0.1095  0.1445  0.3235
16370TIP3    H170525   5.201   5.991   1.603 -0.0512 -0.0286  0.2806
16370TIP3    H270526   5.120   5.862   1.608  0.6425 -0.4020  2.3367
16371TIP3   OH270527   6.294   5.067   1.420 -0.1783  0.2932 -0.2614
16371TIP3    H170528   6.316   4.975   1.404 -0.7431 -0.1658  1.4912
16371TIP3    H270529   6.373   5.115   1.394 -0.1678 -0.5834 -1.9778
16372TIP3   OH270530   2.615   0.259   0.457  0.3158  0.5464 -0.3587
16372TIP3    H170531   2.541   0.221   0.505  0.9743  0.4379  0.5826
16372TIP3    H270532   2.661   0.184   0.420  0.4235  0.5593 -0.2513
16373TIP3   OH270533   2.645   1.646  16.904  0.2479  0.2688  0.3993
16373TIP3    H170534   2.665   1.605  16.987 -1.9608  0.6394  1.1654
16373TIP3    H270535   2.683   1.733  16.910  3.3869 -0.9752 -0.5213
16374TIP3   OH270536   5.412   3.307  16.187 -0.0428  0.1037 -0.2936
16374TIP3    H170537   5.448   3.384  16.231  1.2762  0.3395 -1.7480
16374TIP3    H270538   5.476   3.238  16.204  0.8998  0.4011 -2.4913
16375TIP3   OH270539   4.310   3.721   0.781  0.0144  0.6036  0.3334
16375TIP3    H170540   4.223   3.742   0.815  0.0602 -0.2816  1.0182
16375TIP3    H270541   4.368   3.783   0.825  0.0425 -0.3799  1.7210
16376TIP3   OH270542   5.414   3.791  10.725  0.0937  0.0313  0.0678
16376TIP3    H170543   5.420   3.787  10.820  1.1090 -2.5124 -0.0496
16376TIP3    H270544   5.320   3.789  10.706 -0.1915  2.7813  1.0426
16377TIP3   OH270545   2.089   1.686  11.217  0.4281  0.0910 -0.0477
16377TIP3    H170546   2.083   1.686  11.312 -0.0026  2.3990 -0.0375
16377TIP3    H270547   2.081   1.594  11.192 -1.9738 -0.3030  1.9824
16378TIP3   OH270548   5.201   0.847  12.953  0.1010  0.0812  0.1308
16378TIP3    H170549   5.147   0.778  12.993  0.2283 -0.4356 -0.5777
16378TIP3    H270550   5.291   0.819  12.970  0.1580  1.0256  1.4517
16379TIP3   OH270551   5.936   1.466  15.397 -0.6289  0.8740  0.0361
16379TIP3    H170552   6.029   1.479  15.416 -0.2493 -1.5801  0.0179
16379TIP3    H270553   5.893   1.544  15.433  1.1003  0.6622  2.7401
16380TIP3   OH270554   0.824   2.711  15.906 -0.4262  0.4430  0.3388
16380TIP3    H170555   0.739   2.668  15.921 -0.4498  0.6769  0.8794
16380TIP3    H270556   0.805   2.778  15.840 -0.3103 -0.6238 -0.8119
16381TIP3   OH270557   2.359   0.163  15.307  0.5825  0.3619  0.1074
16381TIP3    H170558   2.318   0.081  15.334  0.5886 -0.3592 -1.9791
16381TIP3    H270559   2.452   0.151  15.326  0.8034 -0.7168 -1.5076
16382TIP3   OH270560   0.015   5.763  16.917  0.3170  0.5016  0.5547
16382TIP3    H170561   0.076   5.829  16.948  1.0184  0.6533 -1.0513
16382TIP3    H270562  -0.071   5.802  16.929  0.7327  1.8619 -0.6388
16383TIP3   OH270563   1.524   1.055  16.563  0.1691  0.5290  0.1838
16383TIP3    H170564   1.528   1.080  16.470  0.6599 -1.6627 -0.4104
16383TIP3    H270565   1.614   1.031  16.585 -0.4517 -1.5625  0.4779
16384TIP3   OH270566   3.584   6.182  15.026  0.0124  0.1354 -0.1094
16384TIP3    H170567   3.565   6.268  14.988  0.0062 -0.6065 -1.8349
16384TIP3    H270568   3.554   6.189  15.117 -1.5701  1.3995 -0.6990
16385TIP3   OH270569   5.659   5.584  17.088  0.0112 -0.1500 -0.3045
16385TIP3    H170570   5.633   5.666  17.131  1.0940 -0.7563  1.5376
16385TIP3    H270571   5.609   5.584  17.007 -2.3884  0.8565  1.1073
16386TIP3   OH270572   5.251   2.540   2.194  0.3560 -0.1132  0.5467
16386TIP3    H170573   5.306   2.577   2.263 -0.1330  0.6604  0.5306
16386TIP3    H270574   5.223   2.455   2.228 -2.7863  1.7338  2.8789
16387TIP3   OH270575   3.571   0.767   5.549 -0.1571 -0.5287  0.4404
16387TIP3    H170576   3.575   0.767   5.454 -0.0872 -2.0100  0.4303
16387TIP3    H270577   3.560   0.859   5.573 -0.9010 -0.2331 -1.0169
16388TIP3   OH270578   5.082   2.045   3.988  0.1199 -0.4699  0.3089
16388TIP3    H170579   5.078   1.950   3.998  0.2719 -0.6673 -1.4209
16388TIP3    H270580   5.152   2.073   4.047 -0.3706 -1.3416  1.3257
16389TIP3   OH270581   2.277   5.158  16.844 -0.0983  0.3734 -0.1692
16389TIP3    H170582   2.358   5.208  16.856  0.5619 -0.8310  0.5018
16389TIP3    H270583   2.301   5.089  16.781 -0.9844  0.8639 -1.0530
16390TIP3   OH270584   5.157   0.002  13.873  0.3823  0.8242 -0.9133
16390TIP3    H170585   5.181  -0.045  13.953  1.3716 -1.1375 -2.3016
16390TIP3    H270586   5.105   0.076  13.903 -2.2761 -1.8280  1.2958
16391TIP3   OH270587   1.270   6.655   1.346 -0.1237 -0.1876  0.6741
16391TIP3    H170588   1.265   6.560   1.333  1.0788 -0.4882  2.3764
16391TIP3    H270589   1.253   6.691   1.259 -0.2208 -1.9705 -0.0704
16392TIP3   OH270590   3.019   4.609  13.403  0.0085 -0.0263 -0.2889
16392TIP3    H170591   3.090   4.551  13.375 -1.9567 -2.1058 -1.0782
16392TIP3    H270592   2.947   4.590  13.344 -1.8286  0.7124  1.6353
16393TIP3   OH270593   1.961   0.207  15.573  0.1459 -0.6028  0.2438
16393TIP3    H170594   2.034   0.242  15.624  1.1457  0.2002 -1.6935
16393TIP3    H270595   2.002   0.149  15.509 -0.8072  0.4708 -1.3784
16394TIP3   OH270596   4.314   0.761   0.963 -0.5835 -0.5705  0.1886
16394TIP3    H170597   4.296   0.819   0.889 -0.1528 -2.1076 -1.1477
16394TIP3    H270598   4.409   0.769   0.977 -0.7204 -0.0138  0.8031
16395TIP3   OH270599   3.215   1.851   2.540 -0.4450 -0.1356 -0.8398
16395TIP3    H170600   3.186   1.858   2.631 -1.3467  2.1211 -1.2696
16395TIP3    H270601   3.257   1.935   2.522  2.6668 -1.7304 -1.5604
16396TIP3   OH270602   0.213   4.812   2.712 -0.2943  0.2335  0.7316
16396TIP3    H170603   0.297   4.816   2.668 -0.4443 -0.7987  0.3426
16396TIP3    H270604   0.161   4.882   2.672 -0.6772 -1.1796 -1.2652
16397TIP3   OH270605   5.903   3.229  13.908 -0.1734 -0.1610 -0.4451
16397TIP3    H170606   5.972   3.272  13.857  1.8681 -0.8832  1.6107
16397TIP3    H270607   5.914   3.265  13.996 -2.5409 -0.1997 -0.1065
16398TIP3   OH270608   1.768   0.217  11.764  0.1181 -0.4802 -0.0796
16398TIP3    H170609   1.695   0.276  11.774  1.4384  1.6123 -2.2272
16398TIP3    H270610   1.755   0.149  11.831 -2.1698  1.4338  1.4500
16399TIP3   OH270611   3.812   6.093   5.643  0.3636 -0.7415  0.1851
16399TIP3    H170612   3.872   6.084   5.569 -1.7781 -2.1861 -1.4146
16399TIP3    H270613   3.794   6.187   5.648  1.4161 -0.5002 -0.3759
16400TIP3   OH270614   0.421   6.371  14.316 -0.8174 -0.2520 -0.3200
16400TIP3    H170615   0.501   6.367  14.263  0.6942  2.3888  1.6490
16400TIP3    H270616   0.416   6.285  14.358  0.3911 -0.8053 -1.2599
16401TIP3   OH270617   3.818   6.439  15.071 -0.0734  0.5858 -0.0002
16401TIP3    H170618   3.730   6.446  15.034 -0.1697 -0.5259 -0.0207
16401TIP3    H270619   3.844   6.529  15.089 -0.4940  1.0720 -1.6831
16402TIP3   OH270620   4.357   6.372  11.840  0.3772 -0.0448 -0.3202
16402TIP3    H170621   4.394   6.429  11.773  1.0115 -0.3590 -0.2301
16402TIP3    H270622   4.402   6.396  11.921  0.7011 -0.7259 -0.2938
16403TIP3   OH270623   3.560   5.543   1.544  0.3907  0.2902 -0.2297
16403TIP3    H170624   3.614   5.597   1.602 -1.3160  0.2562  1.4337
16403TIP3    H270625   3.474   5.585   1.545  0.0448 -0.3538 -1.8833
16404TIP3   OH270626   1.285   5.244  16.046 -0.1089 -0.2119  0.3793
16404TIP3    H170627   1.281   5.159  16.091 -0.1428 -0.8895 -0.8696
16404TIP3    H270628   1.200   5.285  16.065 -0.3926 -0.7851  0.3775
16405TIP3   OH270629   6.615   2.070   2.880  0.1004 -0.0988  0.2956
16405TIP3    H170630   6.526   2.037   2.880 -1.4964  3.8361 -0.2881
16405TIP3    H270631   6.616   2.137   2.948  2.1762  0.8868 -0.6447
16406TIP3   OH270632   1.320   6.234  15.395  0.6127 -0.4918  0.0148
16406TIP3    H170633   1.321   6.233  15.299  1.6975  0.0324  0.0184
16406TIP3    H270634   1.250   6.173  15.419 -0.0425 -0.1965 -1.1188
16407TIP3   OH270635   3.200   4.595   4.894 -0.1797  0.4408  0.0397
16407TIP3    H170636   3.258   4.661   4.856 -0.1040  0.6826  0.5663
16407TIP3    H270637   3.116   4.609   4.851  0.3508 -0.4315 -1.3173
16408TIP3   OH270638   1.468   0.716  14.084 -0.0946  0.3791  0.2578
16408TIP3    H170639   1.433   0.765  14.158 -0.9409  1.6208 -0.9340
16408TIP3    H270640   1.415   0.636  14.081 -0.0546  0.3257  0.9837
16409TIP3   OH270641   1.783   6.277   5.225  0.2314 -0.0256 -0.5578
16409TIP3    H170642   1.773   6.224   5.147 -1.1669 -0.2132 -0.2553
16409TIP3    H270643   1.700   6.324   5.233  0.0240 -0.6698  1.2972
16410TIP3   OH270644   1.964   0.503  15.734  0.0851  0.1687  0.0823
16410TIP3    H170645   2.007   0.495  15.819  0.1709  0.2274  0.0456
16410TIP3    H270646   2.016   0.569  15.687  1.0217 -1.0252 -0.6034
16411TIP3   OH270647   6.182   0.756  11.216 -0.3047 -0.4551 -0.0551
16411TIP3    H170648   6.115   0.744  11.148 -2.5650 -0.0317  2.0404
16411TIP3    H270649   6.256   0.705  11.185 -0.3954  1.5673 -3.9965
16412TIP3   OH270650   2.881   3.942   5.222 -0.1550 -0.1201 -0.3771
16412TIP3    H170651   2.801   3.946   5.275  0.6048  0.5084  0.7519
16412TIP3    H270652   2.874   4.016   5.162 -1.1614 -1.0086 -1.3925
16413TIP3   OH270653   6.533   3.845   0.125  0.5201  0.3152 -0.3337
16413TIP3    H170654   6.527   3.805   0.038 -1.5503 -0.9154  0.3283
16413TIP3    H270655   6.527   3.939   0.108 -1.3259  0.0317 -1.4415
16414TIP3   OH270656   2.096   0.563  10.216  0.5535  0.1481  0.2039
16414TIP3    H170657   2.064   0.476  10.193 -1.2709  0.9545 -0.4214
16414TIP3    H270658   2.190   0.559  10.198  0.4906 -1.6831  0.1783
16415TIP3   OH270659   1.545   4.002  15.578  0.3342 -0.5183 -0.0751
16415TIP3    H170660   1.465   4.034  15.620  0.4733 -1.6026  1.0102
16415TIP3    H270661   1.616   4.037  15.632  0.5215 -1.6224  0.3996
16416TIP3   OH270662   6.313   4.962  14.730  0.1501 -0.0536  0.0570
16416TIP3    H170663   6.307   5.009  14.647  0.5671  0.2137  0.1785
16416TIP3    H270664   6.299   4.870  14.706 -1.7177  0.2479 -0.0284
16417TIP3   OH270665   0.718   5.177   4.531 -0.7379  0.2565  0.1086
16417TIP3    H170666   0.738   5.265   4.498  0.0231  0.0488  0.0151
16417TIP3    H270667   0.778   5.120   4.484  0.5854 -0.0114  2.0818
16418TIP3   OH270668   6.019   3.113   0.569 -0.1613  0.4712  0.3161
16418TIP3    H170669   6.015   3.078   0.480 -0.7089 -0.2616  0.6263
16418TIP3    H270670   5.996   3.039   0.625  1.4574  0.5789  1.1557
16419TIP3   OH270671   1.404   0.586  15.598 -0.4583  0.5668 -0.2621
16419TIP3    H170672   1.341   0.613  15.666  0.1484  1.0948  0.0985
16419TIP3    H270673   1.352   0.534  15.537 -1.0018  0.0234  0.6469
16420TIP3   OH270674   0.374   5.105  13.681 -0.5393  0.2963 -0.6461
16420TIP3    H170675   0.443   5.096  13.746  1.5777  2.0208 -2.5220
16420TIP3    H270676   0.411   5.068  13.601 -1.4269  2.0046 -1.9029
16421TIP3   OH270677   3.746   5.927  15.403 -0.4111 -0.3791  0.3638
16421TIP3    H170678   3.799   5.847  15.411  0.5992  0.0578 -1.8078
16421TIP3    H270679   3.764   5.960  15.315  0.4625  3.1424  1.7691
16422TIP3   OH270680   4.465   4.719  11.069  0.6394 -0.0240  0.4166
16422TIP3    H170681   4.459   4.645  11.008  0.6816 -2.0352  2.7743
16422TIP3    H270682   4.379   4.760  11.065  0.5362 -0.3245 -0.7567
16423TIP3   OH270683   0.039   4.030   3.345  0.2259 -0.0137 -0.0453
16423TIP3    H170684  -0.001   4.094   3.287  0.8576 -0.6375 -1.2017
16423TIP3    H270685   0.022   3.945   3.303  2.4719 -0.3060 -0.4108
16424TIP3   OH270686   3.702   2.635   3.242 -0.3108 -0.3721  0.6745
16424TIP3    H170687   3.737   2.696   3.307  0.4389  0.1131 -0.1653
16424TIP3    H270688   3.777   2.617   3.184 -1.2645  0.0985 -0.7172
16425TIP3   OH270689   0.397   4.508  11.239  0.7153  0.0869 -0.2395
16425TIP3    H170690   0.485   4.544  11.234  0.2055  1.8138  2.1396
16425TIP3    H270691   0.402   4.443  11.309 -0.2478  1.3313  1.0076
16426TIP3   OH270692   1.872   3.235   3.390  0.2028  0.4393  0.6380
16426TIP3    H170693   1.890   3.150   3.351 -0.9534 -0.0139  1.0611
16426TIP3    H270694   1.953   3.284   3.379  0.4716 -0.2845 -0.7263
16427TIP3   OH270695   4.929   5.338   0.819 -0.3548 -0.0022 -0.1571
16427TIP3    H170696   4.872   5.328   0.895 -0.2436  2.4045  0.2749
16427TIP3    H270697   4.871   5.325   0.744 -1.3585  1.7048  0.2935
16428TIP3   OH270698   3.084   2.497  16.234 -0.0779  0.6465  0.0769
16428TIP3    H170699   3.171   2.489  16.196  0.0658  1.2477  0.2765
16428TIP3    H270700   3.096   2.554  16.310 -0.8584  1.7659 -0.6251
16429TIP3   OH270701   3.530   4.740  14.640 -0.1266  0.2137  0.2378
16429TIP3    H170702   3.435   4.732  14.645  0.0212 -0.2545  2.4355
16429TIP3    H270703   3.556   4.776  14.724  1.8838 -2.0909  0.6526
16430TIP3   OH270704   6.350   3.398  11.534  0.5109  0.1073 -0.5543
16430TIP3    H170705   6.363   3.472  11.593  1.5242  0.2150 -0.8948
16430TIP3    H270706   6.339   3.438  11.447  0.4385 -0.1098 -0.6440
16431TIP3   OH270707   6.635   3.471   1.942  0.2339 -0.1929  0.0091
16431TIP3    H170708   6.656   3.441   1.854  2.0923 -1.9202  0.9746
16431TIP3    H270709   6.707   3.531   1.965  0.9731 -1.4486  1.1118
16432TIP3   OH270710   5.511   5.840   2.014 -0.2175  0.4362 -0.0369
16432TIP3    H170711   5.544   5.753   2.035  0.5438  1.0638  1.4320
16432TIP3    H270712   5.509   5.886   2.099 -1.1503  1.6567 -0.7068
16433TIP3   OH270713   3.044   0.688   6.700  0.0964 -0.3541 -0.1294
16433TIP3    H170714   3.057   0.770   6.747 -2.0543  0.1180 -0.3001
16433TIP3    H270715   3.127   0.673   6.655  0.5797  1.6215  0.0421
16434TIP3   OH270716   5.468   6.033   0.927  0.0521  0.2019  0.2953
16434TIP3    H170717   5.420   5.952   0.906  0.7568  0.2290 -1.5891
16434TIP3    H270718   5.434   6.061   1.011  0.3552 -2.5068  1.3612
16435TIP3   OH270719   5.270   3.741  16.061 -0.7927  0.8955 -0.0224
16435TIP3    H170720   5.185   3.710  16.032 -0.6539 -0.2130  0.7084
16435TIP3    H270721   5.251   3.805  16.129 -1.0239 -1.0845  1.8236
16436TIP3   OH270722   6.176   4.317  15.052  0.7122 -0.2640  0.5300
16436TIP3    H170723   6.138   4.282  15.133 -1.2763 -0.5836 -0.4994
16436TIP3    H270724   6.100   4.351  15.004  2.0744  1.4322 -0.4613
16437TIP3   OH270725   2.729   1.463   3.755 -0.0005  0.1116 -0.6408
16437TIP3    H170726   2.797   1.398   3.771  0.3134  0.0147 -2.2222
16437TIP3    H270727   2.658   1.439   3.815  1.5918  0.6084  1.4750
16438TIP3   OH270728   2.064   4.201  16.643  0.2861  0.3223 -0.3141
16438TIP3    H170729   2.079   4.128  16.704 -0.7680  0.5191  0.1757
16438TIP3    H270730   2.040   4.158  16.561 -0.4985  0.1122  0.0185
16439TIP3   OH270731   5.037   5.595  11.975 -0.0599 -0.5839 -0.3176
16439TIP3    H170732   5.015   5.594  12.068  0.2328 -0.6023 -0.2481
16439TIP3    H270733   5.099   5.668  11.966  0.6883 -1.2183 -0.3199
16440TIP3   OH270734   2.526   2.915  10.782  0.4046  0.0129 -0.2573
16440TIP3    H170735   2.613   2.911  10.821  0.4921 -0.4183 -0.4924
16440TIP3    H270736   2.540   2.892  10.690 -0.1513 -1.4236  0.0046
16441TIP3   OH270737   4.774   6.302   3.623 -0.1903  0.1156  0.2581
16441TIP3    H170738   4.812   6.254   3.549 -0.3420  2.5909 -1.4692
16441TIP3    H270739   4.680   6.294   3.611 -0.2183  0.9321 -0.1174
16442TIP3   OH270740   2.633   1.571  14.309  0.0425 -0.4696 -0.1839
16442TIP3    H170741   2.714   1.542  14.267  0.9302 -0.0830  1.2504
16442TIP3    H270742   2.636   1.667  14.303 -0.3897 -0.4597 -0.2721
16443TIP3   OH270743   4.253   0.907   0.751 -0.3258  0.6918 -0.5054
16443TIP3    H170744   4.261   1.002   0.744 -0.7467  0.7262 -0.5298
16443TIP3    H270745   4.204   0.881   0.673  0.7055  0.3347 -1.0338
16444TIP3   OH270746   5.960   6.569  12.953  0.3920 -0.1168 -0.5341
16444TIP3    H170747   6.036   6.612  12.914 -0.0807  2.8457  1.6099
16444TIP3    H270748   5.996   6.513  13.021  0.6572  2.0287  1.1364
16445TIP3   OH270749   0.656   5.462   1.742  0.2017 -0.4322 -0.5131
16445TIP3    H170750   0.612   5.497   1.820  1.0365 -0.4176 -0.0301
16445TIP3    H270751   0.611   5.503   1.668 -1.0435 -0.9694 -0.0624
16446TIP3   OH270752   3.206   2.485  15.824  0.0646  0.0324  0.2485
16446TIP3    H170753   3.112   2.502  15.824 -0.1325 -1.0153 -0.0935
16446TIP3    H270754   3.231   2.491  15.732  0.2279 -0.2696  0.2754
16447TIP3   OH270755   6.098   5.600   3.218  0.3442  0.1530 -0.2859
16447TIP3    H170756   6.077   5.522   3.166 -0.0399  0.7696 -1.0703
16447TIP3    H270757   6.031   5.601   3.287  1.4367 -1.2051  0.8227
16448TIP3   OH270758   4.448   3.876   2.386 -0.5375  0.3417 -0.3265
16448TIP3    H170759   4.532   3.836   2.364  0.0128  0.4172  1.5472
16448TIP3    H270760   4.444   3.955   2.332 -0.3218 -0.6826 -1.8840
16449TIP3   OH270761   6.745   0.532   1.288  0.2304  0.0001 -0.2551
16449TIP3    H170762   6.817   0.544   1.225 -0.2786  1.2921 -0.6072
16449TIP3    H270763   6.677   0.592   1.258 -0.7019 -0.6514  0.5305
16450TIP3   OH270764   4.186   4.750  14.699  0.7648 -0.4775 -0.1160
16450TIP3    H170765   4.094   4.759  14.675  1.2428  2.3320 -1.1356
16450TIP3    H270766   4.223   4.837  14.684  3.5377 -1.5012  0.4894
16451TIP3   OH270767   5.995   4.856   5.183  0.6777  0.1537 -0.1264
16451TIP3    H170768   6.064   4.790   5.179 -0.6561 -1.2922  0.1698
16451TIP3    H270769   6.005   4.896   5.270  0.6004 -0.6578  0.2564
16452TIP3   OH270770   1.258   5.721   1.781 -0.1024 -0.0307 -0.2591
16452TIP3    H170771   1.307   5.649   1.822  1.3095  0.3906 -1.1594
16452TIP3    H270772   1.318   5.795   1.786 -1.3453  0.9473  0.1741
16453TIP3   OH270773   0.341   6.561   4.083 -0.3513  0.0323  0.0847
16453TIP3    H170774   0.385   6.629   4.134  0.4950  1.4515 -2.4533
16453TIP3    H270775   0.412   6.506   4.049 -0.8907 -0.8431  0.3589
16454TIP3   OH270776   1.312   6.050   3.496  0.1228  0.2365 -0.6517
16454TIP3    H170777   1.358   6.084   3.420  0.3844 -0.4328 -0.7960
16454TIP3    H270778   1.232   6.102   3.501  1.3216  2.0512  0.1688
16455TIP3   OH270779   5.857   2.348  15.826 -0.1822  0.4342  0.0006
16455TIP3    H170780   5.944   2.334  15.788  0.8945  1.8030  1.8761
16455TIP3    H270781   5.823   2.425  15.779 -0.0272  0.4090 -0.1522
16456TIP3   OH270782   6.293   6.018   4.442 -0.2181 -0.0239  0.1202
16456TIP3    H170783   6.327   5.999   4.529 -0.5642 -0.5899  0.1396
16456TIP3    H270784   6.238   5.942   4.421 -3.3450  1.8851  1.0470
16457TIP3   OH270785   4.881   4.674  12.073  0.2336 -0.1737 -0.0680
16457TIP3    H170786   4.833   4.637  12.147 -0.1464 -1.0155 -0.7319
16457TIP3    H270787   4.908   4.761  12.103 -2.4879  0.6874 -0.0120
16458TIP3   OH270788   1.522   5.879   5.325  0.5344 -0.5261  0.2009
16458TIP3    H170789   1.607   5.838   5.306  1.1359  0.1351  1.4073
16458TIP3    H270790   1.522   5.889   5.420 -0.4918  0.3881  0.1042
16459TIP3   OH270791   6.780   5.202   5.061  0.2177  0.0579  0.2619
16459TIP3    H170792   6.815   5.245   5.139 -1.9844 -0.3209  1.5010
16459TIP3    H270793   6.708   5.148   5.094  1.1087 -2.3568 -1.6492
16460TIP3   OH270794   4.523   5.911   2.854 -0.2356  0.2191 -0.0872
16460TIP3    H170795   4.530   6.003   2.878  0.1861 -0.0837  0.9883
16460TIP3    H270796   4.588   5.867   2.909 -0.0705 -0.6524 -0.9611
16461TIP3   OH270797   5.886   3.212  12.095 -0.0940  0.1944  0.8662
16461TIP3    H170798   5.886   3.166  12.179 -0.8067  0.1256  0.8239
16461TIP3    H270799   5.821   3.282  12.106 -1.5901 -0.9963 -0.2916
16462TIP3   OH270800   2.331   5.335   6.458  0.1495  1.0970  0.2327
16462TIP3    H170801   2.361   5.278   6.529 -2.1420 -2.5974 -1.5981
16462TIP3    H270802   2.383   5.308   6.382 -0.7237  1.6804 -0.5825
16463TIP3   OH270803   4.911   2.819  15.920  0.6226  0.0795 -0.1436
16463TIP3    H170804   5.001   2.793  15.903  0.3478 -0.1984 -1.2024
16463TIP3    H270805   4.916   2.912  15.941  0.7828  0.9120 -3.6061
16464TIP3   OH270806   6.745   3.792  14.471 -0.1261 -0.3642  0.5401
16464TIP3    H170807   6.779   3.771  14.558 -0.0247  1.1448  0.8735
16464TIP3    H270808   6.784   3.877  14.449 -0.2253 -0.6823 -0.9426
16465TIP3   OH270809   5.599   5.127  14.755  0.1064 -0.1507  0.4470
16465TIP3    H170810   5.655   5.076  14.814  0.5284 -0.2483 -0.0355
16465TIP3    H270811   5.636   5.215  14.757  0.3989 -0.2604 -0.0201
16466TIP3   OH270812   5.261   3.109   1.691 -0.1536  0.2024 -0.0469
16466TIP3    H170813   5.223   3.185   1.648  3.0898  1.9916  0.1013
16466TIP3    H270814   5.259   3.130   1.784  1.5397  0.5404 -0.0634
16467TIP3   OH270815   3.270   6.147  10.066 -0.2224 -0.3661  0.2520
16467TIP3    H170816   3.290   6.219  10.125  0.0869 -0.7344  0.6001
16467TIP3    H270817   3.221   6.084  10.119  1.3340 -1.3763  0.5364
16468TIP3   OH270818   3.870   0.744   5.291  0.3786  0.0954  0.2885
16468TIP3    H170819   3.844   0.653   5.308  1.6485 -0.3297  0.0356
16468TIP3    H270820   3.790   0.786   5.259 -0.1038 -1.0690 -0.0860
16469TIP3   OH270821   0.096   0.930  13.823  0.4946  0.1775 -0.3288
16469TIP3    H170822   0.089   0.963  13.733  0.6775  0.9171 -0.0801
16469TIP3    H270823   0.084   0.835  13.815 -1.0987  0.4125 -0.9369
16470TIP3   OH270824   4.563   1.951  11.561 -0.6365  0.2844 -0.0631
16470TIP3    H170825   4.494   1.915  11.616 -1.6252 -0.5181 -1.8032
16470TIP3    H270826   4.517   1.989  11.486  0.8293 -1.1201 -1.7353
16471TIP3   OH270827   5.746   4.754   2.173 -0.1843  0.0682  0.0217
16471TIP3    H170828   5.820   4.808   2.144  0.1358 -2.0051 -3.1887
16471TIP3    H270829   5.784   4.693   2.236  0.4986  0.1910 -0.2690
16472TIP3   OH270830   6.703   1.524  13.003  0.2417  0.1666  0.0795
16472TIP3    H170831   6.733   1.433  12.994  0.5648  0.5963 -3.9294
16472TIP3    H270832   6.781   1.576  12.990 -0.5307  1.0874 -0.9316
16473TIP3   OH270833   1.584   6.649   2.474 -0.0916 -0.0263 -0.3508
16473TIP3    H170834   1.592   6.740   2.446 -0.5667  0.4801  1.0927
16473TIP3    H270835   1.649   6.639   2.543 -0.4599 -0.6128 -0.0791
16474TIP3   OH270836   2.188   4.830   3.915  0.2186 -0.3106  0.2069
16474TIP3    H170837   2.199   4.923   3.893  0.7469 -0.3296  0.4027
16474TIP3    H270838   2.115   4.829   3.978  0.1913 -0.0347  0.1796
16475TIP3   OH270839   3.572   5.946   5.185 -0.6031  0.2257  0.3615
16475TIP3    H170840   3.493   5.999   5.198  0.0687  0.9827  1.4177
16475TIP3    H270841   3.606   5.931   5.273  1.8975  2.1678 -0.2138
16476TIP3   OH270842   4.664   0.967   3.414 -0.8480  0.4058  0.2571
16476TIP3    H170843   4.737   1.026   3.432  1.2550 -2.1436  0.4152
16476TIP3    H270844   4.603   0.982   3.486 -0.1982  2.0942  0.4897
16477TIP3   OH270845   5.131   4.660   0.395 -0.1127 -0.7156 -0.2964
16477TIP3    H170846   5.140   4.629   0.304 -0.2827 -2.9554  0.4295
16477TIP3    H270847   5.216   4.641   0.435 -0.2037 -0.1785  0.1441
16478TIP3   OH270848   5.197   2.090   1.721  0.0797 -0.4086  0.0211
16478TIP3    H170849   5.239   2.110   1.637  1.5190 -1.0073  0.5856
16478TIP3    H270850   5.155   2.005   1.708 -2.7271  1.0923 -1.1687
16479TIP3   OH270851   0.783   1.182   2.765 -0.1959 -0.1505  0.3264
16479TIP3    H170852   0.736   1.145   2.690  0.2464  0.1972 -0.1152
16479TIP3    H270853   0.791   1.108   2.826 -0.1282 -0.5524 -0.1651
16480TIP3   OH270854   1.805   2.135  14.116  0.6917  0.2699 -0.2305
16480TIP3    H170855   1.894   2.103  14.100  1.1197  1.2278  0.1664
16480TIP3    H270856   1.782   2.184  14.037  0.5936  0.1882 -0.2521
16481TIP3   OH270857   2.366   3.226   1.574 -0.1092 -0.3977  0.0482
16481TIP3    H170858   2.337   3.135   1.580 -0.2683 -0.4251 -1.0192
16481TIP3    H270859   2.313   3.272   1.639 -3.4869 -0.2291 -2.6869
16482TIP3   OH270860   3.879   1.924   0.305  0.0886 -0.0224 -0.1125
16482TIP3    H170861   3.871   2.020   0.309  1.6213  0.1241 -0.3732
16482TIP3    H270862   3.905   1.906   0.215  0.4402 -0.6269  0.1093
16483TIP3   OH270863   2.978   1.453  15.380 -0.2909 -0.0955 -0.9522
16483TIP3    H170864   2.992   1.361  15.357  1.0094 -0.2137  0.2443
16483TIP3    H270865   3.025   1.502  15.313  1.7633 -0.3951  0.2190
16484TIP3   OH270866   0.505   6.332  14.780 -0.2574 -0.0799 -0.0889
16484TIP3    H170867   0.598   6.348  14.798 -0.1937  0.1990 -0.6482
16484TIP3    H270868   0.496   6.237  14.783 -0.1059 -0.0691  0.7087
16485TIP3   OH270869   6.787   2.399  16.020  0.3428  0.5529  0.3062
16485TIP3    H170870   6.744   2.331  16.072 -1.3866  1.6989  0.4274
16485TIP3    H270871   6.717   2.435  15.965  1.4135  1.6728 -0.3632
16486TIP3   OH270872   6.134   3.739  15.372  0.0324  0.1559 -0.3480
16486TIP3    H170873   6.126   3.730  15.277  1.8847  0.8213 -0.5933
16486TIP3    H270874   6.228   3.730  15.389 -0.3960 -1.0732  1.5488
16487TIP3   OH270875   2.297   5.675   3.956 -0.5706 -0.1053 -0.3206
16487TIP3    H170876   2.266   5.721   4.034 -0.2996 -1.0957  0.3700
16487TIP3    H270877   2.224   5.618   3.932 -0.4720 -0.1448 -0.5278
16488TIP3   OH270878   4.944   3.152   0.653  0.1332  0.0243 -0.1073
16488TIP3    H170879   4.916   3.061   0.640  1.2374 -0.6413  2.0009
16488TIP3    H270880   4.916   3.197   0.573 -2.8253 -1.5705 -0.0535
16489TIP3   OH270881   1.304   3.302   2.889  0.1565  0.1369 -0.2003
16489TIP3    H170882   1.253   3.246   2.830 -0.1704  2.6310 -2.3432
16489TIP3    H270883   1.309   3.386   2.844  1.0821  1.7023  2.7378
16490TIP3   OH270884   1.783   6.732   4.399  0.4232  0.1524 -0.2986
16490TIP3    H170885   1.691   6.711   4.387  0.5813 -0.1303 -1.0734
16490TIP3    H270886   1.823   6.649   4.425  0.1118  0.7252  2.1112
16491TIP3   OH270887   0.393   3.813  11.584  0.5106 -0.6477  0.0035
16491TIP3    H170888   0.461   3.750  11.608  0.0120 -1.2677 -0.1976
16491TIP3    H270889   0.326   3.803  11.651 -0.8053 -2.2711 -1.5014
16492TIP3   OH270890   2.862   2.533   4.417  0.0489 -0.3954 -1.1086
16492TIP3    H170891   2.868   2.559   4.509  0.3752 -1.8804 -0.7036
16492TIP3    H270892   2.953   2.532   4.386 -0.0219 -0.3716 -1.3231
16493TIP3   OH270893   0.816   6.196  16.798  0.4953  0.1304  0.2262
16493TIP3    H170894   0.794   6.104  16.813 -2.5020  1.0080  1.5746
16493TIP3    H270895   0.824   6.204  16.703  0.4840 -1.4421  0.0740
16494TIP3   OH270896   0.533   2.471   0.661  0.3499 -0.1517 -0.0522
16494TIP3    H170897   0.627   2.457   0.658  0.5316  0.6469  1.3518
16494TIP3    H270898   0.503   2.416   0.734 -0.3355 -0.7546 -0.7836
16495TIP3   OH270899   6.262   0.417   1.754  0.0028 -0.0502  0.8195
16495TIP3    H170900   6.354   0.391   1.761 -0.1167 -0.6411  0.1386
16495TIP3    H270901   6.264   0.499   1.704  0.2337  0.4130  1.5784
16496TIP3   OH270902   0.079   5.434  16.123  0.5678 -0.3210 -0.3455
16496TIP3    H170903   0.078   5.353  16.174  0.8055  0.0183  0.2055
16496TIP3    H270904  -0.013   5.449  16.101  0.3270  0.0839  0.8889
16497TIP3   OH270905   3.481   5.415  15.071  0.0786  0.1968 -0.3443
16497TIP3    H170906   3.556   5.464  15.104  2.1567 -1.8233 -1.8822
16497TIP3    H270907   3.491   5.417  14.976 -1.3736 -0.7496 -0.5268
16498TIP3   OH270908   5.051   6.340   5.634 -0.5009 -0.6215 -0.2782
16498TIP3    H170909   5.083   6.430   5.643  0.4953 -1.1599  1.6928
16498TIP3    H270910   5.008   6.339   5.548 -0.3147  1.6630 -0.4312
16499TIP3   OH270911   3.018   3.428   5.312  0.0050 -0.2108  0.1227
16499TIP3    H170912   2.942   3.385   5.350 -0.3403 -0.6823 -1.0894
16499TIP3    H270913   3.046   3.490   5.379 -0.2748 -1.3929  1.3670
16500TIP3   OH270914   0.502   5.595  12.624 -0.2821  0.4783 -0.2358
16500TIP3    H170915   0.566   5.592  12.553 -0.1163 -0.5739 -0.0613
16500TIP3    H270916   0.434   5.533  12.597 -0.9587  1.1749 -0.1601
16501TIP3   OH270917   3.793   4.287  16.021 -0.4805  0.4005 -0.3704
16501TIP3    H170918   3.734   4.246  15.957 -0.6316  0.7169 -0.4387
16501TIP3    H270919   3.737   4.307  16.096 -0.0942 -0.8848  0.2711
16502TIP3   OH270920   4.719   2.705   3.844 -0.1802  0.0219  0.1832
16502TIP3    H170921   4.645   2.752   3.884 -0.8768 -0.4613 -0.5114
16502TIP3    H270922   4.795   2.730   3.897 -0.4905  2.1223 -0.3274
16503TIP3   OH270923   6.174   4.961  16.981  0.5423 -0.2344 -0.4951
16503TIP3    H170924   6.214   5.029  17.035 -0.1293  0.6149 -1.0539
16503TIP3    H270925   6.109   5.007  16.928 -0.1668 -1.3661 -0.6371
16504TIP3   OH270926   0.345   4.835   4.206  0.2648  0.0525  0.2203
16504TIP3    H170927   0.305   4.844   4.120 -1.1424  0.1119  0.8745
16504TIP3    H270928   0.286   4.882   4.265  1.1145 -0.1566  1.2518
16505TIP3   OH270929   5.028   5.718  15.823  0.3854  0.4770 -0.4413
16505TIP3    H170930   4.972   5.641  15.833  0.4094  0.6598  1.1111
16505TIP3    H270931   5.074   5.727  15.906 -0.3687  2.7670 -0.2298
16506TIP3   OH270932   4.239   2.963   3.985 -0.2938 -0.1697 -0.4406
16506TIP3    H170933   4.258   2.912   3.906  0.1632  1.2718 -1.2649
16506TIP3    H270934   4.318   3.016   3.998 -0.3979 -0.3424  0.9481
16507TIP3   OH270935   0.460   2.717   0.619 -0.6742  0.3856 -0.2154
16507TIP3    H170936   0.454   2.630   0.656  0.3502  0.3556 -0.1289
16507TIP3    H270937   0.396   2.717   0.547 -1.1761 -0.2004  0.2279
16508TIP3   OH270938   4.273   5.102  12.449 -0.0879 -0.1433  0.2324
16508TIP3    H170939   4.233   5.056  12.523 -2.8846  0.0419 -1.0989
16508TIP3    H270940   4.234   5.190  12.451 -0.9748 -0.4557 -2.0539
16509TIP3   OH270941   6.417   5.754  13.674 -0.2918 -0.1365  0.0499
16509TIP3    H170942   6.409   5.658  13.671 -1.2760 -0.0345 -0.9559
16509TIP3    H270943   6.351   5.785  13.612  2.0561  1.0861 -1.9269
16510TIP3   OH270944   5.412   3.271   2.193  0.2688 -0.3890  0.4046
16510TIP3    H170945   5.423   3.234   2.105 -1.3799 -0.0421  0.0351
16510TIP3    H270946   5.496   3.254   2.237  0.2584 -2.7579 -0.4082
16511TIP3   OH270947   5.578   2.459  13.302  0.1523  0.0962  0.3466
16511TIP3    H170948   5.488   2.483  13.284  0.8315  3.2809  0.9016
16511TIP3    H270949   5.572   2.388  13.365 -1.9599  1.2653  1.5213
16512TIP3   OH270950   4.608   0.550  13.292  0.0796  0.0006 -0.2158
16512TIP3    H170951   4.536   0.613  13.303 -1.1246 -1.4987  0.7640
16512TIP3    H270952   4.686   0.598  13.320 -0.5937  1.5281 -0.8943
16513TIP3   OH270953   4.574   5.684  15.633  0.3560 -0.4548  0.4026
16513TIP3    H170954   4.620   5.654  15.711  3.0315  0.9557 -0.5429
16513TIP3    H270955   4.580   5.779  15.637  0.5058 -0.3676 -1.4939
16514TIP3   OH270956   3.099   4.460  14.743 -0.9100 -0.0506 -0.1677
16514TIP3    H170957   3.084   4.444  14.650 -1.9657 -1.4350  0.2226
16514TIP3    H270958   3.011   4.465  14.781 -0.5341  2.8611  0.3927
16515TIP3   OH270959   6.355   2.931   4.751  0.0618  0.3075  0.7459
16515TIP3    H170960   6.435   2.924   4.698  0.3117  0.2115  1.1239
16515TIP3    H270961   6.297   2.864   4.716  0.5614 -0.3528  1.1551
16516TIP3   OH270962   1.797   6.330   5.648  0.0889 -0.2752 -0.1172
16516TIP3    H170963   1.766   6.390   5.580  0.3982 -0.8830 -0.7961
16516TIP3    H270964   1.717   6.299   5.691 -0.1937 -1.0819 -1.2220
16517TIP3   OH270965   1.065   0.206   1.488 -0.2315 -0.3297  0.5149
16517TIP3    H170966   0.994   0.164   1.440 -0.7028  0.1409  0.7923
16517TIP3    H270967   1.037   0.297   1.496  0.7990  0.0603 -0.1367
16518TIP3   OH270968   3.981   3.892  12.855 -0.2284  0.2945 -0.5243
16518TIP3    H170969   3.965   3.984  12.872 -0.2507 -0.3265  3.2099
16518TIP3    H270970   4.077   3.885  12.854 -0.2289  0.2391 -0.1428
16519TIP3   OH270971   6.762   6.604  11.959 -0.0308 -0.7554 -0.7497
16519TIP3    H170972   6.825   6.570  11.896  0.7120 -0.7712 -0.0073
16519TIP3    H270973   6.768   6.699  11.951 -2.0847 -0.7513 -2.8029
16520TIP3   OH270974   4.141   2.923  12.508  0.0205  0.3147 -0.0607
16520TIP3    H170975   4.133   2.978  12.430 -0.9635  0.1666 -0.0667
16520TIP3    H270976   4.086   2.965  12.574 -0.8062 -0.6962 -0.0922
16521TIP3   OH270977   2.198   5.088   0.226  0.0773  0.0730  0.1447
16521TIP3    H170978   2.135   5.160   0.217 -0.1985  0.0406  1.5781
16521TIP3    H270979   2.144   5.011   0.245  0.3288 -0.6565 -1.9608
16522TIP3   OH270980   0.204   4.153  16.020  0.3158 -0.0287  0.6114
16522TIP3    H170981   0.289   4.130  16.056  0.3960  0.7551  0.9439
16522TIP3    H270982   0.223   4.216  15.950  0.1690 -1.6436 -0.8940
16523TIP3   OH270983   5.344   3.976   2.695  0.2622 -0.3988 -0.4097
16523TIP3    H170984   5.249   3.965   2.690 -0.0232  1.9751 -1.0232
16523TIP3    H270985   5.379   3.887   2.692 -2.0022 -1.3994  1.3748
16524TIP3   OH270986   1.397   0.252  10.997 -0.1141  0.7605  0.1714
16524TIP3    H170987   1.486   0.237  10.968 -0.4111  0.4169 -0.5784
16524TIP3    H270988   1.349   0.273  10.917 -1.0076 -0.4996  0.3502
16525TIP3   OH270989   0.977   5.202   4.994  0.2576  0.0415 -0.1654
16525TIP3    H170990   0.953   5.154   4.915  1.2043 -0.6256 -0.0463
16525TIP3    H270991   0.945   5.291   4.978 -0.1453 -0.2532 -1.0182
16526TIP3   OH270992   5.890   0.316  11.785  0.0484 -0.0679  0.0377
16526TIP3    H170993   5.878   0.362  11.702 -0.2122  1.0289  0.6740
16526TIP3    H270994   5.916   0.384  11.847 -0.5550 -0.7424  1.0487
16527TIP3   OH270995   2.703   3.652   3.990  0.3394 -0.4488 -0.1312
16527TIP3    H170996   2.755   3.649   3.910  3.3980  2.0598  1.6391
16527TIP3    H270997   2.760   3.613   4.057 -0.7908  0.6305  1.5032
16528TIP3   OH270998   4.610   6.686   3.461  0.7688 -0.2065 -0.3829
16528TIP3    H170999   4.576   6.697   3.373  0.6035  1.3449 -0.1379
16528TIP3    H271000   4.702   6.711   3.456  0.5470  0.7199  0.0569
16529TIP3   OH271001   4.633   2.201   3.507 -0.0305 -0.2906 -0.0358
16529TIP3    H171002   4.678   2.199   3.423 -0.0572  0.2854 -0.0614
16529TIP3    H271003   4.694   2.243   3.567 -0.5346  0.5128 -0.0749
16530TIP3   OH271004   2.801   0.379   6.916 -0.2441 -0.2420  0.2519
16530TIP3    H171005   2.726   0.381   6.856  0.7536  0.9254 -1.0034
16530TIP3    H271006   2.877   0.391   6.859  0.7965  0.0030  1.6624
16531TIP3   OH271007   2.231   6.777   3.433 -0.3473  0.6139  0.0392
16531TIP3    H171008   2.182   6.859   3.437  1.0046  1.3865  1.3325
16531TIP3    H271009   2.320   6.802   3.457  0.6542 -0.7872 -2.0977
16532TIP3   OH271010   5.151   3.804   5.159  0.3871 -0.2012 -0.4035
16532TIP3    H171011   5.239   3.768   5.144  0.6198 -0.0899  0.6097
16532TIP3    H271012   5.094   3.728   5.165  0.0836 -0.1986 -3.0125
16533TIP3   OH271013   2.149   1.716  11.889  1.2450  0.4251  0.0600
16533TIP3    H171014   2.226   1.684  11.936  0.4194 -2.0026 -0.2102
16533TIP3    H271015   2.185   1.759  11.811  2.2816 -1.9869 -0.8187
16534TIP3   OH271016   1.225   0.537   5.556 -0.1695 -0.2345  0.3772
16534TIP3    H171017   1.275   0.473   5.504  1.1839  1.0085  0.1115
16534TIP3    H271018   1.260   0.527   5.645 -1.1781 -1.0589  0.6922
16535TIP3   OH271019   3.872   1.027   2.390  0.0117  0.1936  0.1190
16535TIP3    H171020   3.903   0.942   2.359 -0.2014 -0.0922  0.6808
16535TIP3    H271021   3.794   1.007   2.442 -0.6178  0.8318 -0.5763
16536TIP3   OH271022   4.456   1.527   1.670 -0.1726 -0.2625  0.3871
16536TIP3    H171023   4.534   1.542   1.723  0.4409  0.0183 -0.5820
16536TIP3    H271024   4.480   1.455   1.612 -0.3582  0.3606 -0.4711
16537TIP3   OH271025   3.045   0.467   2.974 -0.5967  0.1198  0.3286
16537TIP3    H171026   3.029   0.423   2.891  0.4773  0.1284  0.1024
16537TIP3    H271027   3.080   0.398   3.031  0.9194  0.6172  0.0271
16538TIP3   OH271028   2.500   0.715  10.880  0.3168 -0.0734  0.2298
16538TIP3    H171029   2.530   0.630  10.848  3.0375  0.4981  1.1264
16538TIP3    H271030   2.523   0.776  10.809 -4.2217 -0.3777 -1.6973
16539TIP3   OH271031   3.981   1.943  16.997 -0.1945  0.1829 -0.1943
16539TIP3    H171032   3.914   2.011  16.996 -0.6812 -0.2960 -2.2895
16539TIP3    H271033   3.958   1.886  16.924 -0.0767 -2.5283  1.8382
16540TIP3   OH271034   5.610   5.716  15.338 -0.3923 -0.5115  0.3505
16540TIP3    H171035   5.638   5.727  15.247  0.2181  0.8320  0.6991
16540TIP3    H271036   5.532   5.661  15.332  1.3425 -2.9380 -0.7399
16541TIP3   OH271037   3.242   1.606   0.369  0.1179  0.3886 -0.0627
16541TIP3    H171038   3.320   1.575   0.324 -0.0329  1.2126 -0.9134
16541TIP3    H271039   3.256   1.700   0.380 -0.5897  0.4773  0.1025
16542TIP3   OH271040   1.774   1.870   3.803 -0.5770  0.0073  0.1167
16542TIP3    H171041   1.864   1.855   3.834 -1.1480  0.3236  1.9935
16542TIP3    H271042   1.744   1.783   3.775 -0.5004 -0.5791  1.7625
16543TIP3   OH271043   1.339   3.226  14.251 -0.0537 -0.6319 -0.3663
16543TIP3    H171044   1.318   3.238  14.158  0.4596  2.2058 -0.1711
16543TIP3    H271045   1.434   3.228  14.255 -0.0541 -1.6453  0.1162
16544TIP3   OH271046   1.680   2.671  15.326 -0.2175  0.3664  0.3725
16544TIP3    H171047   1.688   2.701  15.236  0.9259 -0.9663 -0.0019
16544TIP3    H271048   1.635   2.587  15.320  0.7545 -0.2046  0.9445
16545TIP3   OH271049   3.951   4.205  14.967 -0.0175 -0.5759  0.4531
16545TIP3    H171050   3.925   4.126  14.919 -0.8288 -0.7766  1.1978
16545TIP3    H271051   3.952   4.274  14.900  1.4245 -1.3554 -0.3400
16546TIP3   OH271052   2.729   6.610  16.630 -0.0084 -0.3770 -0.0713
16546TIP3    H171053   2.824   6.620  16.617  0.1070 -3.7087 -2.4366
16546TIP3    H271054   2.690   6.655  16.555 -0.1488 -1.7213 -0.8190
16547TIP3   OH271055   2.736   3.484   3.517  0.3480  0.1793 -0.3293
16547TIP3    H171056   2.779   3.429   3.451  0.7655  0.8855 -0.6464
16547TIP3    H271057   2.644   3.458   3.514  0.5472 -0.5149 -0.4724
16548TIP3   OH271058   5.831   3.511  13.815  0.4480 -0.7346 -0.3728
16548TIP3    H171059   5.766   3.485  13.881  0.7212  0.1566  0.2540
16548TIP3    H271060   5.820   3.447  13.745 -2.7204  0.7563 -1.3330
16549TIP3   OH271061   2.693   4.663  16.881 -0.1446 -0.1696 -0.4344
16549TIP3    H171062   2.769   4.683  16.825 -0.7213 -0.6300 -1.4089
16549TIP3    H271063   2.672   4.745  16.925  0.5818  0.0975 -0.5825
16550TIP3   OH271064   6.708   0.785  13.649  0.1546  0.4193 -0.0358
16550TIP3    H171065   6.774   0.790  13.580  0.1376  0.3345 -0.0578
16550TIP3    H271066   6.703   0.692  13.671 -1.6228  0.1001 -1.6550
16551TIP3   OH271067   5.797   6.466  11.839  0.3624  0.3986  0.3576
16551TIP3    H171068   5.809   6.558  11.862 -1.1405  0.5209  0.6799
16551TIP3    H271069   5.860   6.419  11.895 -1.0068  0.9759  2.4219
16552TIP3   OH271070   2.578   4.097   2.566  0.8979  0.3601 -0.0747
16552TIP3    H171071   2.658   4.146   2.551  1.5910 -0.7656 -0.1256
16552TIP3    H271072   2.604   4.025   2.623 -0.4059  0.9065  1.2689
16553TIP3   OH271073   3.026   2.964  15.998 -0.4138  0.3207  0.1425
16553TIP3    H171074   3.106   3.014  15.982  0.0157  0.0598  1.4508
16553TIP3    H271075   3.010   2.918  15.915  1.7485 -0.9516  0.3915
16554TIP3   OH271076   2.040   2.016  14.029 -0.0605 -0.2378  0.4566
16554TIP3    H171077   2.105   1.998  14.096  1.1131  3.0087  0.2600
16554TIP3    H271078   2.033   1.934  13.980  1.0310 -1.8061  2.8283
16555TIP3   OH271079   0.080   0.618  16.523 -0.1357 -0.3795  0.1689
16555TIP3    H171080  -0.006   0.659  16.532 -0.8404 -1.3759 -1.6785
16555TIP3    H271081   0.136   0.686  16.486 -0.4995 -0.1458  0.0478
16556TIP3   OH271082   0.668   0.043   0.523  0.4166  0.4357  0.1574
16556TIP3    H171083   0.692   0.136   0.532 -0.3812  0.5778  0.8626
16556TIP3    H271084   0.692   0.003   0.606  2.1921 -0.3344 -0.6947
16557TIP3   OH271085   0.827   1.009  15.401  0.3505 -0.1371  0.4747
16557TIP3    H171086   0.890   1.052  15.343  0.6265 -0.9023  0.1875
16557TIP3    H271087   0.776   1.080  15.440  0.1384  0.3772 -0.7319
16558TIP3   OH271088   6.605   6.666  13.533  0.3355 -0.0453 -0.2858
16558TIP3    H171089   6.671   6.623  13.587  0.3775 -1.1595 -1.1929
16558TIP3    H271090   6.559   6.594  13.490  0.2106  0.8001 -1.6098
16559TIP3   OH271091   3.376   5.976   1.057  0.1861 -0.5460  0.0074
16559TIP3    H171092   3.345   6.005   0.971 -1.4346  1.1866  1.1446
16559TIP3    H271093   3.408   6.056   1.099 -0.0614 -1.1752  1.4207
16560TIP3   OH271094   0.884   4.806  15.585  0.0714 -0.3232  0.8434
16560TIP3    H171095   0.946   4.832  15.517  0.4964 -1.6050  0.7246
16560TIP3    H271096   0.887   4.711  15.585 -0.7249 -0.3600  1.9280
16561TIP3   OH271097   0.526   3.822  10.739  0.0144 -0.4898 -0.2024
16561TIP3    H171098   0.473   3.743  10.726 -1.9526  1.0655 -2.1254
16561TIP3    H271099   0.527   3.863  10.653  1.5183  1.2699  0.6466
16562TIP3   OH271100   2.040   3.142   4.914  0.1486 -0.0942 -0.1966
16562TIP3    H171101   1.957   3.129   4.867 -1.0000  1.2231  1.4150
16562TIP3    H271102   2.016   3.192   4.992  2.5927  0.9952 -0.0970
16563TIP3   OH271103   0.617   3.300  14.358  0.1381  0.0591  0.7358
16563TIP3    H171104   0.644   3.335  14.273 -0.3640  0.1009  0.5914
16563TIP3    H271105   0.567   3.371  14.398  0.4559  0.0742  1.1060
16564TIP3   OH271106   2.516   1.643  12.949 -0.1722  0.2416 -0.1276
16564TIP3    H171107   2.428   1.653  12.914  0.3179 -0.0391 -1.4944
16564TIP3    H271108   2.532   1.548  12.945  0.7529  0.4433 -1.3240
16565TIP3   OH271109   2.386   2.300   4.818  0.3485  0.2624 -0.6638
16565TIP3    H171110   2.349   2.271   4.902  0.2629 -0.7402 -1.0413
16565TIP3    H271111   2.457   2.359   4.843  1.9214 -1.8910  0.2269
16566TIP3   OH271112   4.991   5.232   1.904 -0.2733 -0.2696  0.6962
16566TIP3    H171113   4.967   5.324   1.900 -1.8736 -0.6934  0.0669
16566TIP3    H271114   5.039   5.223   1.986 -1.1407  0.9020  1.3453
16567TIP3   OH271115   2.687   0.683  13.476  0.1209 -0.1779 -0.0008
16567TIP3    H171116   2.632   0.633  13.536  0.8266 -1.4103 -0.3484
16567TIP3    H271117   2.700   0.624  13.401  1.0577  0.4900 -0.3736
16568TIP3   OH271118   2.824   5.616  13.720 -0.1173  0.4474 -0.2401
16568TIP3    H171119   2.897   5.646  13.774  1.0010 -0.7216 -1.0971
16568TIP3    H271120   2.778   5.553  13.775  0.5135 -0.0928 -0.3333
16569TIP3   OH271121   1.143   4.428   2.653  0.0854  0.1380 -0.2537
16569TIP3    H171122   1.225   4.399   2.614 -0.6090 -2.3963  0.0937
16569TIP3    H271123   1.080   4.426   2.581 -0.6144 -2.0959  0.3687
16570TIP3   OH271124   2.578   0.758   2.285 -0.2129  0.1605 -0.2482
16570TIP3    H171125   2.613   0.847   2.279 -2.5553  1.0552 -1.7123
16570TIP3    H271126   2.541   0.742   2.198 -1.7198 -1.4057  0.6646
16571TIP3   OH271127   5.533   6.479  14.878 -0.2277 -0.1504  0.1944
16571TIP3    H171128   5.607   6.444  14.829 -0.1604 -0.0729  0.2389
16571TIP3    H271129   5.543   6.441  14.966  1.2695  1.9280  0.9828
16572TIP3   OH271130   0.806   6.460   2.523 -0.3683  0.1795 -0.5612
16572TIP3    H171131   0.813   6.506   2.606 -1.3726 -1.3179  0.3798
16572TIP3    H271132   0.737   6.396   2.537 -0.1543 -0.4747 -2.3759
16573TIP3   OH271133   5.850   1.630  15.146 -0.3247  0.3500  0.1391
16573TIP3    H171134   5.757   1.609  15.141 -0.2890  0.0277  0.7557
16573TIP3    H271135   5.886   1.564  15.205  0.5157 -0.2607 -1.0422
16574TIP3   OH271136   2.695   2.160  16.459 -0.1238 -0.5022  0.3007
16574TIP3    H171137   2.775   2.111  16.441 -0.1723 -0.4188 -0.1565
16574TIP3    H271138   2.725   2.250  16.473 -0.4672  0.3255 -3.6739
16575TIP3   OH271139   5.517   1.276  15.658 -0.6322 -0.3471 -0.6635
16575TIP3    H171140   5.470   1.348  15.700 -1.9608 -0.4516 -1.9365
16575TIP3    H271141   5.525   1.303  15.566 -0.6311 -1.5647 -1.0245
16576TIP3   OH271142   0.057   0.206  13.339 -0.5083 -0.2819  0.8486
16576TIP3    H171143   0.112   0.144  13.387  0.0478  2.2246  3.5691
16576TIP3    H271144  -0.030   0.166  13.338 -0.0282 -1.3771  2.0098
16577TIP3   OH271145   6.188   0.413  15.191 -0.0753  0.9612 -0.1171
16577TIP3    H171146   6.117   0.474  15.169  0.6194  2.2940  1.2195
16577TIP3    H271147   6.265   0.469  15.197  0.7346 -0.2000  0.3339
16578TIP3   OH271148   1.527   1.527  13.038 -0.2829  0.2045  0.2849
16578TIP3    H171149   1.464   1.471  12.992 -0.0427  0.1226  0.0541
16578TIP3    H271150   1.494   1.532  13.128 -0.0383 -0.7158  0.4299
16579TIP3   OH271151   5.393   5.171  11.947  0.6134  0.0607 -0.5141
16579TIP3    H171152   5.478   5.126  11.945  0.2968 -0.5568 -0.3999
16579TIP3    H271153   5.376   5.184  12.040  1.6012  2.1724 -0.5961
16580TIP3   OH271154   0.098   6.230   0.367  0.6072  0.0196 -0.2822
16580TIP3    H171155   0.010   6.200   0.391  0.3111  1.2913  0.2729
16580TIP3    H271156   0.088   6.324   0.354  1.6754  0.0115 -1.2626
16581TIP3   OH271157   1.311   1.721   1.973  0.1669  0.4774 -0.4484
16581TIP3    H171158   1.362   1.802   1.965  0.1444  0.4545 -0.8315
16581TIP3    H271159   1.283   1.720   2.064  1.6059  0.0357  0.0019
16582TIP3   OH271160   4.947   6.765   4.214  0.5258 -0.4475  0.3076
16582TIP3    H171161   5.004   6.824   4.262  1.5833  0.2166 -1.6851
16582TIP3    H271162   4.987   6.679   4.224  0.8188 -0.2876  0.5070
16583TIP3   OH271163   1.602   3.934   2.961  0.3906  0.2624 -0.1458
16583TIP3    H171164   1.613   4.010   3.018  0.0004  0.3977 -0.2460
16583TIP3    H271165   1.516   3.898   2.986 -0.6328  1.3995 -1.9050
16584TIP3   OH271166   1.774   2.170   3.136 -0.5005 -0.6705  0.0825
16584TIP3    H171167   1.756   2.258   3.170  0.9100 -0.2657 -0.1798
16584TIP3    H271168   1.869   2.162   3.141 -0.4586 -1.4496 -1.7059
16585TIP3   OH271169   1.108   5.704  16.771 -0.1565  0.9425  0.1761
16585TIP3    H171170   1.015   5.717  16.756 -0.2364  1.7311  1.2797
16585TIP3    H271171   1.115   5.614  16.803 -0.1494 -0.2345 -2.9271
16586TIP3   OH271172   0.901   3.453   4.433  0.3189  0.4892 -0.0371
16586TIP3    H171173   0.884   3.442   4.340 -1.1507  1.5230  0.0910
16586TIP3    H271174   0.886   3.366   4.471 -1.2914  0.5643 -0.4584
16587TIP3   OH271175   1.045   0.540   0.097 -0.0521  0.0676  0.1026
16587TIP3    H171176   0.997   0.545   0.014 -0.3931 -0.7241  0.2479
16587TIP3    H271177   1.137   0.544   0.072 -0.1076 -1.7550 -0.4431
16588TIP3   OH271178   3.989   2.865   2.983 -0.2115 -0.4900 -0.2595
16588TIP3    H171179   3.979   2.869   2.887  0.1629  1.3202 -0.2474
16588TIP3    H271180   3.899   2.858   3.015 -0.3816 -0.5334 -0.7363
16589TIP3   OH271181   0.788   0.745   2.995  0.1382 -0.1261  0.6068
16589TIP3    H171182   0.817   0.836   2.986  1.8122 -0.7737 -0.7780
16589TIP3    H271183   0.707   0.751   3.046  0.5223  2.0864  1.0197
16590TIP3   OH271184   3.652   1.028   0.575  0.2571  0.4049  0.2930
16590TIP3    H171185   3.713   1.054   0.644 -0.1658 -1.2068  1.3225
16590TIP3    H271186   3.565   1.043   0.613  0.0216 -0.5113  0.1511
16591TIP3   OH271187   0.955   4.551  15.310 -0.3552 -0.0245 -0.4117
16591TIP3    H171188   0.878   4.494  15.308 -0.7700  0.5305 -0.3851
16591TIP3    H271189   0.967   4.572  15.402  0.2787 -0.7089 -0.3329
16592TIP3   OH271190   2.199   1.277   0.430  0.0701  0.0682  0.2303
16592TIP3    H171191   2.111   1.267   0.466  0.4144 -1.0512  0.7814
16592TIP3    H271192   2.238   1.190   0.439  1.6213  0.8402  1.0183
16593TIP3   OH271193   1.225   0.100  15.590  0.3242  0.5939  0.3978
16593TIP3    H171194   1.162   0.044  15.635  0.7579  0.0930  0.3846
16593TIP3    H271195   1.171   0.159  15.537 -0.1796  1.1059  1.4654
16594TIP3   OH271196   6.111   4.914   0.860 -0.3402 -0.7817 -0.8038
16594TIP3    H171197   6.059   4.990   0.832 -0.0548 -0.4137 -0.3273
16594TIP3    H271198   6.178   4.950   0.917 -0.8386 -1.5224  0.2640
16595TIP3   OH271199   6.198   6.741   0.806 -0.4548 -0.5984 -0.1325
16595TIP3    H171200   6.123   6.691   0.775 -0.0903 -1.8560  0.9816
16595TIP3    H271201   6.255   6.676   0.847  1.3261  0.2988 -1.0943
16596TIP3   OH271202   4.854   1.898   1.912 -0.2469 -0.4044  0.3976
16596TIP3    H171203   4.812   1.839   1.850  0.8653 -1.0024  0.1942
16596TIP3    H271204   4.861   1.981   1.865  0.3824 -0.7899 -0.2173
16597TIP3   OH271205   4.211   0.162  13.812  0.4814 -0.0372  0.1838
16597TIP3    H171206   4.193   0.239  13.757  2.1139  1.0905  1.2068
16597TIP3    H271207   4.135   0.105  13.798 -0.6282  1.6340 -0.7958
16598TIP3   OH271208   1.173   3.367   5.689 -0.6615 -0.6102 -0.3371
16598TIP3    H171209   1.169   3.373   5.785 -3.2997  0.9472 -0.4916
16598TIP3    H271210   1.137   3.281   5.669  0.7833 -1.3424  0.0678
16599TIP3   OH271211   6.054   4.429  16.989 -0.4603  0.1981 -0.0123
16599TIP3    H171212   6.039   4.509  17.038  0.0015  0.9481 -1.0799
16599TIP3    H271213   6.058   4.457  16.897 -1.9243 -1.2593 -0.5483
16600TIP3   OH271214   4.336   1.908  11.701 -0.0026  1.0349  0.2813
16600TIP3    H171215   4.267   1.971  11.724 -0.7133 -0.0120  1.0650
16600TIP3    H271216   4.388   1.900  11.781  1.8666  2.8304 -0.7040
16601TIP3   OH271217   4.619   1.505   5.194 -0.0730 -0.5129  0.1039
16601TIP3    H171218   4.601   1.417   5.160  2.7536 -1.1578  0.1500
16601TIP3    H271219   4.713   1.516   5.184 -0.2688  2.2185  0.8656
16602TIP3   OH271220   2.547   0.005  14.561 -0.4964 -0.1623  0.0741
16602TIP3    H171221   2.521   0.097  14.561 -0.4238 -0.1129 -1.6657
16602TIP3    H271222   2.466  -0.044  14.577 -0.4286  0.2232  1.6007
16603TIP3   OH271223   5.186   2.541  16.141 -0.0434  0.4858 -0.0903
16603TIP3    H171224   5.277   2.510  16.135 -0.5702 -0.9358 -0.8495
16603TIP3    H271225   5.152   2.496  16.219 -0.4116  0.2103 -0.4131
16604TIP3   OH271226   1.454   4.646   2.562  0.1961 -0.3496 -0.0576
16604TIP3    H171227   1.379   4.675   2.510  0.6511  0.2915 -0.3642
16604TIP3    H271228   1.438   4.553   2.579 -0.5574 -0.2634 -0.3056
16605TIP3   OH271229   4.044   1.141  16.475 -0.3265 -0.3282 -0.1413
16605TIP3    H171230   4.030   1.235  16.471 -2.5147 -0.6111 -0.0859
16605TIP3    H271231   3.963   1.103  16.439  1.1398 -2.1683 -1.6198
16606TIP3   OH271232   3.768   2.658   0.156 -0.1624  0.1144 -0.6514
16606TIP3    H171233   3.708   2.716   0.111  0.9277  1.4516 -0.4171
16606TIP3    H271234   3.748   2.670   0.249 -0.2921 -0.2741 -0.6295
16607TIP3   OH271235   4.355   3.809   6.890  0.0685  0.5310  0.0696
16607TIP3    H171236   4.349   3.839   6.799  1.0088 -0.1875 -0.2459
16607TIP3    H271237   4.422   3.740   6.888 -0.2262  0.1914  1.2263
16608TIP3   OH271238   4.024   6.122  16.247 -0.1683 -0.0592  0.2484
16608TIP3    H171239   4.024   6.216  16.266 -0.7134 -0.0312  0.1348
16608TIP3    H271240   4.038   6.116  16.153 -2.0308 -0.0052 -0.0486
16609TIP3   OH271241   4.981   6.025  12.033 -0.2064 -0.6297  0.0432
16609TIP3    H171242   4.905   5.990  12.079 -1.1654  0.0050 -1.0319
16609TIP3    H271243   4.973   6.120  12.043  0.7788 -0.5847  0.4406
16610TIP3   OH271244   0.997   3.551   4.892 -0.2135 -0.7928 -0.1177
16610TIP3    H171245   0.973   3.643   4.885  0.1175 -0.7867 -1.3506
16610TIP3    H271246   1.006   3.521   4.801  0.2922 -1.8757  0.2721
16611TIP3   OH271247   2.985   4.071   6.302 -0.5370  0.7262 -0.2608
16611TIP3    H171248   3.074   4.036   6.300 -1.5868 -2.1408  1.4079
16611TIP3    H271249   2.991   4.148   6.359  0.6674 -0.1026  0.7646
16612TIP3   OH271250   0.418   1.185  14.169  0.0419 -0.2770 -0.1141
16612TIP3    H171251   0.389   1.219  14.084  3.8206  0.2360 -1.2787
16612TIP3    H271252   0.483   1.118  14.148  1.0401 -0.1380  2.3575
16613TIP3   OH271253   4.196   3.711   2.720  0.0432 -0.0425 -0.1643
16613TIP3    H171254   4.217   3.714   2.627  2.5474  1.2860  0.3996
16613TIP3    H271255   4.233   3.791   2.756 -0.0921 -0.9680  2.1363
16614TIP3   OH271256   1.814   5.148  10.605 -0.1436  0.5171  0.1603
16614TIP3    H171257   1.791   5.065  10.566 -0.2461  1.5503 -2.0439
16614TIP3    H271258   1.834   5.127  10.696 -2.0153 -1.5959  0.1160
16615TIP3   OH271259   4.117   3.885  15.392 -0.2876 -0.1392  0.5279
16615TIP3    H171260   4.103   3.969  15.348 -0.4355 -0.0803  0.6880
16615TIP3    H271261   4.173   3.836  15.332  1.8233  0.9717  1.5196
16616TIP3   OH271262   5.762   3.205  15.223  0.1371  0.3196 -0.0528
16616TIP3    H171263   5.756   3.288  15.177 -2.0358  0.4372  0.3662
16616TIP3    H271264   5.691   3.152  15.185  1.5262 -1.3698 -0.3622
16617TIP3   OH271265   4.916   4.715  11.178 -0.0109  0.0315 -0.1212
16617TIP3    H171266   4.825   4.702  11.207  0.2291 -0.7446  0.2894
16617TIP3    H271267   4.956   4.628  11.186  1.6498  0.9746  2.7747
16618TIP3   OH271268   2.457   4.808  12.502 -0.2905 -0.0261  0.1253
16618TIP3    H171269   2.504   4.889  12.521  0.9589 -0.0955 -2.4595
16618TIP3    H271270   2.510   4.740  12.543 -0.3552  0.2816  0.7270
16619TIP3   OH271271   1.277   6.630   3.988 -0.0693 -0.1410  0.3263
16619TIP3    H171272   1.215   6.681   3.938 -0.7614 -1.2771  0.0110
16619TIP3    H271273   1.357   6.629   3.935 -0.4522 -0.4369 -0.2378
16620TIP3   OH271274   6.364   1.078   3.043  0.0189 -0.0608 -0.0529
16620TIP3    H171275   6.293   1.049   3.101  0.9652 -0.1330  1.0825
16620TIP3    H271276   6.434   1.016   3.058  0.7612  0.7094 -0.2850
16621TIP3   OH271277   5.086   3.502   2.355 -0.5913  0.2139 -0.1200
16621TIP3    H171278   4.993   3.523   2.364 -0.9671 -0.4520 -2.1648
16621TIP3    H271279   5.086   3.408   2.336  0.4365  0.4429 -1.2337
16622TIP3   OH271280   0.077   3.581  16.700  0.5171  0.5436  0.0265
16622TIP3    H171281   0.002   3.621  16.655 -0.4625 -0.3552  0.8440
16622TIP3    H271282   0.060   3.487  16.698  1.7105  0.3173  0.0726
16623TIP3   OH271283   2.980   3.248  15.888 -0.2164  0.1247 -0.3052
16623TIP3    H171284   2.953   3.192  15.815  1.1131 -1.1657  0.1551
16623TIP3    H271285   2.965   3.194  15.965  0.9286  0.4764  0.1640
16624TIP3   OH271286   3.534   6.169  12.827 -0.1738 -0.5056 -0.8966
16624TIP3    H171287   3.630   6.173  12.824 -0.1999  0.4119 -0.5078
16624TIP3    H271288   3.510   6.229  12.897 -1.0922 -0.0455 -1.6045
16625TIP3   OH271289   6.059   3.623  14.952 -0.1062 -0.1289 -0.0876
16625TIP3    H171290   5.999   3.647  14.881  0.6763 -1.6918 -1.3267
16625TIP3    H271291   6.021   3.543  14.989 -0.7668  0.9568  1.5823
16626TIP3   OH271292   5.757   3.845  17.056  0.0535 -0.1062 -0.0911
16626TIP3    H171293   5.852   3.829  17.056  0.3163  1.2516  1.8813
16626TIP3    H271294   5.718   3.758  17.054  1.3093 -0.6568 -2.3970
16627TIP3   OH271295   0.654   3.610  15.680 -0.3122 -0.3421  0.1428
16627TIP3    H171296   0.716   3.671  15.641  2.0431 -1.6983  1.6348
16627TIP3    H271297   0.623   3.655  15.759 -0.6231  0.0264 -0.1917
16628TIP3   OH271298   4.869   1.403   1.576  0.4304 -0.2082 -0.0911
16628TIP3    H171299   4.928   1.463   1.621 -0.8691 -0.1535  1.5704
16628TIP3    H271300   4.810   1.371   1.644 -0.3566 -1.6130 -1.3918
16629TIP3   OH271301   1.169   1.837  11.758  0.3675  0.9466 -0.7860
16629TIP3    H171302   1.257   1.804  11.743  0.5316  0.2387  1.5682
16629TIP3    H271303   1.111   1.763  11.738  0.2018  1.6870 -3.2434
16630TIP3   OH271304   4.385   2.729  13.621 -0.3565 -0.1161 -0.6992
16630TIP3    H171305   4.343   2.765  13.699 -0.8956 -0.1449 -0.9760
16630TIP3    H271306   4.322   2.666  13.586  1.4699 -3.0238  1.0402
16631TIP3   OH271307   5.304   2.241  10.868 -0.0299 -0.4015  0.6250
16631TIP3    H171308   5.307   2.336  10.883 -1.4181 -0.2201 -0.1395
16631TIP3    H271309   5.394   2.218  10.843 -0.0362  0.9933 -0.7475
16632TIP3   OH271310   5.000   4.910  10.955 -0.1688  0.3378  0.5909
16632TIP3    H171311   4.949   4.855  11.015 -1.4775  0.7960 -0.0669
16632TIP3    H271312   5.066   4.952  11.010  0.7574 -1.7663  1.1171
16633TIP3   OH271313   3.688   0.455   2.632 -0.1103  0.3201 -0.4213
16633TIP3    H171314   3.738   0.377   2.655 -1.8366  0.0835  2.8663
16633TIP3    H271315   3.598   0.424   2.625 -0.9244  2.0820  1.6567
16634TIP3   OH271316   2.768   1.249  13.787 -0.5111 -0.0350 -0.0741
16634TIP3    H171317   2.836   1.223  13.850  0.9938 -0.0397 -1.6659
16634TIP3    H271318   2.756   1.343  13.804 -0.0496 -0.0127  0.1638
16635TIP3   OH271319   5.911   2.827   4.212  0.0825  0.1651  0.5101
16635TIP3    H171320   5.857   2.762   4.167 -0.6594  0.8273  0.4403
16635TIP3    H271321   5.989   2.835   4.158 -0.9456  1.1989 -0.8387
16636TIP3   OH271322   3.640   5.010  11.991 -0.7691 -0.8020  0.5465
16636TIP3    H171323   3.708   4.952  11.956 -1.8757 -2.0522  0.4370
16636TIP3    H271324   3.580   4.951  12.038 -0.6315  0.5418  2.4686
16637TIP3   OH271325   0.180   3.970  14.901  0.3078  0.1922  0.2115
16637TIP3    H171326   0.221   4.056  14.892  3.9066 -1.4503 -0.1381
16637TIP3    H271327   0.187   3.931  14.814 -1.7909 -0.2667  0.2264
16638TIP3   OH271328   3.232   6.488   1.177  0.4895  0.5111 -0.1460
16638TIP3    H171329   3.166   6.557   1.189  1.3330  0.9525  2.2802
16638TIP3    H271330   3.208   6.421   1.241  2.1645  0.5205  0.5196
16639TIP3   OH271331   4.146   0.957  15.370 -0.1914  0.3082 -0.0843
16639TIP3    H171332   4.069   0.924  15.323  0.2979 -0.4938 -0.3334
16639TIP3    H271333   4.199   0.999  15.303 -0.0602  0.2191 -0.0358
16640TIP3   OH271334   5.714   4.756   3.840 -0.1353 -0.0632  0.0279
16640TIP3    H171335   5.743   4.828   3.784  0.1638 -0.5371 -0.4367
16640TIP3    H271336   5.782   4.750   3.908  0.3134 -0.4841 -0.4502
16641TIP3   OH271337   5.108   5.833   5.237 -0.1671 -0.0104  0.0891
16641TIP3    H171338   5.070   5.748   5.262  0.5449  0.2842  2.2001
16641TIP3    H271339   5.195   5.833   5.275 -0.3831  1.9294  0.6445
16642TIP3   OH271340   0.788   0.353  17.105  0.1168 -0.3849 -0.2767
16642TIP3    H171341   0.802   0.446  17.121  0.1361 -0.5957  0.9171
16642TIP3    H271342   0.729   0.350  17.029  0.3040  0.5882 -0.4571
16643TIP3   OH271343   1.455   0.616  11.763  0.2530 -0.3586  0.2100
16643TIP3    H171344   1.382   0.677  11.768 -1.7698 -2.6424 -0.2845
16643TIP3    H271345   1.501   0.639  11.683 -0.5399  0.4659 -0.0122
16644TIP3   OH271346   4.876   0.858   2.054  0.5619  0.4985 -0.2695
16644TIP3    H171347   4.930   0.847   1.976  0.2889 -1.0264 -0.2568
16644TIP3    H271348   4.798   0.805   2.037 -0.5486  1.9842  0.0740
16645TIP3   OH271349   6.578   3.933   0.936  0.4767  0.3853 -0.3306
16645TIP3    H171350   6.671   3.954   0.924  0.6837 -0.0476  0.4443
16645TIP3    H271351   6.578   3.859   0.997 -0.3793  0.4072 -0.2953
16646TIP3   OH271352   4.120   1.170  10.726 -0.4111  0.4816  0.3683
16646TIP3    H171353   4.062   1.229  10.774 -0.3453  1.2489 -0.4740
16646TIP3    H271354   4.180   1.228  10.679 -0.1573 -0.2565 -0.2371
16647TIP3   OH271355   3.161   0.897   4.190 -0.4742  0.0745  0.0183
16647TIP3    H171356   3.097   0.921   4.258 -0.7552  0.7164 -0.4661
16647TIP3    H271357   3.132   0.945   4.113  0.6987  0.5040 -0.1594
16648TIP3   OH271358   3.757   3.773  13.739 -0.0266  0.1904 -0.2813
16648TIP3    H171359   3.819   3.778  13.812  1.5614  0.4702 -1.6025
16648TIP3    H271360   3.751   3.862  13.706 -2.4589  0.4842  0.8486
16649TIP3   OH271361   3.318   5.577  16.019  0.1160  0.1744 -0.0718
16649TIP3    H171362   3.389   5.634  16.050  1.3339 -1.4063  0.1152
16649TIP3    H271363   3.325   5.498  16.074 -1.4060 -0.2416 -0.4668
16650TIP3   OH271364   2.729   5.946   5.955  0.1975  0.1041 -0.2742
16650TIP3    H171365   2.721   5.929   6.048  1.1839 -1.6667 -0.4949
16650TIP3    H271366   2.715   5.861   5.913  0.5658  0.7178 -1.6933
16651TIP3   OH271367   4.183   0.307  13.572 -0.4468 -0.5355 -0.3621
16651TIP3    H171368   4.135   0.368  13.515 -3.5553 -2.4084  0.1091
16651TIP3    H271369   4.213   0.238  13.514  1.9497  0.7421 -0.6884
16652TIP3   OH271370   3.928   0.263   3.304 -0.4224 -0.0467 -0.1739
16652TIP3    H171371   4.010   0.304   3.333 -0.0152 -1.4471  0.7144
16652TIP3    H271372   3.953   0.210   3.229 -0.6933  0.2260 -0.4604
16653TIP3   OH271373   2.096   0.556  13.085 -0.0542 -0.1301  0.6418
16653TIP3    H171374   2.094   0.599  12.999 -0.4110 -1.1029  0.1542
16653TIP3    H271375   2.026   0.491  13.080 -0.6636  0.4090  1.9904
16654TIP3   OH271376   3.066   5.247  15.238 -0.4136  0.6250 -0.2489
16654TIP3    H171377   3.000   5.194  15.193 -0.6357  1.4812 -0.9344
16654TIP3    H271378   3.078   5.203  15.322 -0.2198 -0.8132 -1.0095
16655TIP3   OH271379   6.086   0.192   1.092 -0.7476 -0.0438  0.2661
16655TIP3    H171380   6.047   0.110   1.064  0.0907  0.2689 -1.9540
16655TIP3    H271381   6.180   0.182   1.073 -0.4840  1.0379  0.9159
16656TIP3   OH271382   5.764   0.088   5.528  0.1877 -0.3185  0.3403
16656TIP3    H171383   5.742   0.180   5.512  1.8380  0.1747  0.9193
16656TIP3    H271384   5.768   0.080   5.623 -0.0936 -1.0294  0.2938
16657TIP3   OH271385   6.689   4.921   3.284 -0.2224 -0.5183 -0.2989
16657TIP3    H171386   6.705   4.980   3.210 -0.5179 -2.5046 -2.0046
16657TIP3    H271387   6.766   4.931   3.340  0.3747  0.4469 -1.2723
16658TIP3   OH271388   4.584   6.736  11.138 -0.1208 -0.0762 -0.0196
16658TIP3    H171389   4.543   6.795  11.074 -0.2360 -0.1584 -0.0199
16658TIP3    H271390   4.549   6.650  11.117 -0.7294  0.0099  0.6313
16659TIP3   OH271391   4.858   6.048   4.971  0.4371  0.3243 -0.4364
16659TIP3    H171392   4.950   6.048   4.996  0.2415  1.0734  0.3168
16659TIP3    H271393   4.858   6.075   4.879  0.8613  2.1119  0.0579
16660TIP3   OH271394   4.317   2.030   0.277  0.1340 -0.1894  1.2455
16660TIP3    H171395   4.391   2.002   0.329  0.3146  0.3812  1.3058
16660TIP3    H271396   4.297   1.956   0.220 -0.1421 -0.8502  2.2149
16661TIP3   OH271397   5.194   2.842  16.774 -0.3991  0.1766  0.4335
16661TIP3    H171398   5.250   2.919  16.774  1.0193 -0.8334  0.2048
16661TIP3    H271399   5.214   2.797  16.692 -1.5129 -0.2139  0.3720
16662TIP3   OH271400   1.684   0.892  14.861 -0.2890 -0.2699 -0.2206
16662TIP3    H171401   1.780   0.889  14.863 -0.2992 -1.3912 -0.6216
16662TIP3    H271402   1.664   0.973  14.816  0.4788 -0.1454 -0.3587
16663TIP3   OH271403   2.770   1.633   0.410 -0.0530 -0.0215  0.5102
16663TIP3    H171404   2.737   1.588   0.488 -0.1004 -3.4804 -1.3781
16663TIP3    H271405   2.831   1.570   0.371  1.8603  2.6419 -0.9051
16664TIP3   OH271406   0.127   3.223   6.230  0.6556  0.3750 -0.3183
16664TIP3    H171407   0.038   3.208   6.199  1.2596  0.8700 -2.3267
16664TIP3    H271408   0.167   3.136   6.233  0.3678  0.2472 -0.2252
16665TIP3   OH271409   1.093   6.359   0.132  0.0788  0.1242  0.4945
16665TIP3    H171410   1.014   6.390   0.088  0.2613 -1.8203 -1.3148
16665TIP3    H271411   1.061   6.299   0.199  0.0319 -1.4459 -0.9051
16666TIP3   OH271412   4.718   2.195  11.752 -0.2655 -0.2236 -0.2194
16666TIP3    H171413   4.629   2.164  11.770  0.0009 -0.3408  0.9727
16666TIP3    H271414   4.726   2.194  11.657 -0.4822 -3.2560 -0.2389
16667TIP3   OH271415   4.485   6.644   0.015  0.4670  0.0976  0.0363
16667TIP3    H171416   4.525   6.678  -0.065 -0.2833 -0.0840 -0.4161
16667TIP3    H271417   4.559   6.630   0.074  1.1610 -0.8961 -1.0469
16668TIP3   OH271418   2.166   5.997   0.284 -0.3894 -0.3264  1.1526
16668TIP3    H171419   2.125   6.020   0.201  0.3246  1.1526  1.1879
16668TIP3    H271420   2.247   5.953   0.260 -0.8267 -1.0924  1.0740
16669TIP3   OH271421   2.360   0.459  15.308  0.3170  0.5755  0.0354
16669TIP3    H171422   2.397   0.495  15.389  0.9865  1.5930 -0.7198
16669TIP3    H271423   2.373   0.364  15.317 -1.1067  0.5177  1.8502
16670TIP3   OH271424   4.258   2.091   1.180 -0.2721 -0.0350 -0.2905
16670TIP3    H171425   4.196   2.018   1.184  2.3460 -2.2488  1.9348
16670TIP3    H271426   4.311   2.072   1.102  0.6809 -0.7788  0.5252
16671TIP3   OH271427   4.534   5.986   6.612  0.1031  0.7434  0.0028
16671TIP3    H171428   4.491   5.923   6.555  0.7146  1.0530 -0.8070
16671TIP3    H271429   4.617   6.006   6.568  1.0137  0.2786  1.4562
16672TIP3   OH271430   4.777   1.576   1.375 -0.2137  0.1600 -0.1138
16672TIP3    H171431   4.785   1.486   1.407 -2.9434  0.0067  0.2878
16672TIP3    H271432   4.860   1.617   1.396  0.0910 -1.5274  2.1393
16673TIP3   OH271433   0.772   1.514   3.516  0.2329 -0.0956 -0.4320
16673TIP3    H171434   0.692   1.485   3.471 -0.2235  1.7520 -0.8604
16673TIP3    H271435   0.745   1.525   3.607 -0.2376  1.3021 -0.7224
16674TIP3   OH271436   4.329   4.781   0.136 -0.0115  0.2103 -0.0175
16674TIP3    H171437   4.344   4.778   0.041 -0.7022 -0.3513 -0.1122
16674TIP3    H271438   4.342   4.691   0.165  1.2839  0.5919  0.5945
16675TIP3   OH271439   4.972   4.475   5.495  0.5322  0.1723  0.1869
16675TIP3    H171440   4.984   4.410   5.565  3.1192  1.2172  0.7869
16675TIP3    H271441   4.966   4.558   5.542  2.6488  0.9240 -0.8325
16676TIP3   OH271442   6.703   0.907  11.181  0.2256 -0.3964  0.2526
16676TIP3    H171443   6.635   0.896  11.115  1.7376  2.4519 -1.8879
16676TIP3    H271444   6.766   0.838  11.163 -1.1770 -1.9437  1.1356
16677TIP3   OH271445   4.206   1.798   2.116 -0.1944  0.8500 -0.1296
16677TIP3    H171446   4.131   1.824   2.169 -0.0301 -0.0920  0.5767
16677TIP3    H271447   4.169   1.774   2.031 -0.5225  1.7836 -0.2555
16678TIP3   OH271448   1.396   2.775   4.349 -0.2708 -0.2409  0.9728
16678TIP3    H171449   1.425   2.684   4.351 -0.2891 -0.2322  1.9396
16678TIP3    H271450   1.476   2.826   4.338 -0.3035 -0.3971  0.0411
16679TIP3   OH271451   0.885   2.643   0.784 -0.3600 -0.2851  0.1987
16679TIP3    H171452   0.795   2.672   0.771 -0.8283 -0.9109  2.0056
16679TIP3    H271453   0.900   2.649   0.878  1.3015 -0.7426 -0.0118
16680TIP3   OH271454   0.144   3.335   2.616 -0.1128 -0.2079  0.5950
16680TIP3    H171455   0.187   3.411   2.655 -1.8032  2.0009 -1.6612
16680TIP3    H271456   0.059   3.331   2.659 -0.7863  0.3879 -0.6629
16681TIP3   OH271457   1.490   1.952   1.894  0.5694  0.2582  1.1026
16681TIP3    H171458   1.543   1.975   1.970  0.3594  0.1683  1.2768
16681TIP3    H271459   1.513   1.861   1.875  0.1259  0.0669  1.4717
16682TIP3   OH271460   4.201   6.650   3.416  0.2805 -0.6935 -0.1971
16682TIP3    H171461   4.232   6.694   3.337  0.1073 -0.8374 -0.3458
16682TIP3    H271462   4.209   6.716   3.485 -0.4647 -0.2562 -0.5176
16683TIP3   OH271463   3.193   6.504   5.169  0.0180 -0.4891 -0.3227
16683TIP3    H171464   3.133   6.498   5.094 -0.4453  0.5834 -0.0427
16683TIP3    H271465   3.141   6.544   5.238  0.2835 -2.0008  0.7657
16684TIP3   OH271466   2.389   0.462   3.667  0.3169  0.0364 -0.0115
16684TIP3    H171467   2.400   0.506   3.582  0.3337  0.9590  0.4628
16684TIP3    H271468   2.455   0.502   3.723 -2.0944  2.1127  1.4699
16685TIP3   OH271469   0.217   2.619  12.187 -0.1895  0.1257 -0.0731
16685TIP3    H171470   0.231   2.561  12.261  1.9963 -0.8271 -1.1725
16685TIP3    H271471   0.232   2.707  12.222 -0.1691 -0.2409  0.8454
16686TIP3   OH271472   1.231   2.305  16.196  0.4390 -0.1775 -0.2311
16686TIP3    H171473   1.245   2.333  16.105 -0.9731  2.1119  0.2350
16686TIP3    H271474   1.315   2.322  16.239  1.4507 -2.2185 -1.2889
16687TIP3   OH271475   1.860   0.304   4.525 -0.7414  0.5167  0.4623
16687TIP3    H171476   1.809   0.325   4.447 -1.9368 -1.8534  0.5475
16687TIP3    H271477   1.800   0.254   4.580  0.5775  0.7904  2.2099
16688TIP3   OH271478   0.939   6.445   3.981 -0.2955 -0.3244 -0.2403
16688TIP3    H171479   1.007   6.397   3.933 -0.8857 -0.8135 -0.6003
16688TIP3    H271480   0.885   6.485   3.912 -1.1895 -1.0924 -0.0075
16689TIP3   OH271481   5.400   1.813   1.972 -0.4043 -0.0297 -0.2853
16689TIP3    H171482   5.425   1.790   1.882  3.1066  0.1556  0.5816
16689TIP3    H271483   5.412   1.907   1.977 -2.1661  0.1999 -0.0497
16690TIP3   OH271484   0.482   1.761   0.370  0.4019 -0.1364 -0.1670
16690TIP3    H171485   0.390   1.788   0.365  0.5951  0.2958 -1.6496
16690TIP3    H271486   0.508   1.749   0.278  1.7026 -0.6723  0.2647
16691TIP3   OH271487   3.241   4.808  12.156 -0.3174 -0.0807 -0.2203
16691TIP3    H171488   3.336   4.818  12.160 -0.2422 -0.8654 -0.0032
16691TIP3    H271489   3.225   4.767  12.071 -0.2865 -1.8884  0.6317
16692TIP3   OH271490   3.640   3.980   2.885 -0.2126 -0.5289 -0.2848
16692TIP3    H171491   3.545   3.968   2.890 -0.2270 -0.5873 -0.6682
16692TIP3    H271492   3.666   3.930   2.808 -0.0368  0.5043 -0.9044
16693TIP3   OH271493   1.202   3.985  15.929  0.1505  0.4099  0.4014
16693TIP3    H171494   1.272   3.921  15.931  1.3310  1.7166  2.7608
16693TIP3    H271495   1.226   4.046  15.859  0.5525 -0.0346  0.1576
16694TIP3   OH271496   5.072   6.322   0.666 -0.7097 -0.2796  0.5724
16694TIP3    H171497   5.101   6.390   0.727 -0.6076  1.2840 -1.1964
16694TIP3    H271498   5.014   6.266   0.718 -0.4302  0.8841  2.1634
16695TIP3   OH271499   5.178   5.697   2.398 -0.3685  0.1474 -0.3641
16695TIP3    H171500   5.221   5.612   2.387  2.6779  1.5152  0.3294
16695TIP3    H271501   5.141   5.694   2.486  0.8894 -0.0369  0.1803
16696TIP3   OH271502   0.272   5.695   2.887  0.1195 -0.4858  0.0856
16696TIP3    H171503   0.328   5.760   2.930 -0.9327 -1.4212  2.9629
16696TIP3    H271504   0.217   5.747   2.828  0.5908  1.0183  0.9367
16697TIP3   OH271505   4.288   1.711  13.750  0.4546  0.2911  0.3365
16697TIP3    H171506   4.198   1.681  13.739  0.9991 -0.8676 -1.1101
16697TIP3    H271507   4.295   1.788  13.694  1.0254 -1.0579 -1.5121
16698TIP3   OH271508   3.926   0.759   2.077 -0.7043  0.2033 -0.5869
16698TIP3    H171509   3.883   0.792   2.156 -0.6478  1.2596 -0.9877
16698TIP3    H271510   4.004   0.713   2.109  0.0249  1.7488 -0.0890
16699TIP3   OH271511   5.234   0.139   1.975  0.3763 -0.0667  0.6927
16699TIP3    H171512   5.253   0.052   1.942 -0.0474  0.3646 -0.7097
16699TIP3    H271513   5.141   0.136   1.998 -0.6496  1.1111 -2.9684
16700TIP3   OH271514   5.408   2.623   2.417 -0.7010  0.1757 -0.2050
16700TIP3    H171515   5.404   2.718   2.406  0.0094  0.2133 -0.1806
16700TIP3    H271516   5.373   2.607   2.504  1.8657  0.6816  0.9577
16701TIP3   OH271517   0.675   2.844   6.585  0.3861  0.1850 -0.6502
16701TIP3    H171518   0.638   2.789   6.654  2.0075 -0.8265 -0.5741
16701TIP3    H271519   0.598   2.885   6.544 -0.6604 -0.0490  1.0186
16702TIP3   OH271520   5.661   3.883  11.538 -0.4789  0.5722  0.0342
16702TIP3    H171521   5.566   3.891  11.529 -0.5810 -2.8328 -3.3610
16702TIP3    H271522   5.696   3.946  11.474 -0.4820  0.3718 -0.1638
16703TIP3   OH271523   4.457   4.065   4.538  0.4553 -0.4615 -0.3699
16703TIP3    H171524   4.437   4.157   4.552 -0.2323 -0.9611  2.3509
16703TIP3    H271525   4.508   4.040   4.616  1.1101 -2.2408 -1.3381
16704TIP3   OH271526   3.147   3.285   0.240 -0.0905  0.1199  0.1237
16704TIP3    H171527   3.109   3.269   0.153  0.9500 -0.3689 -0.2537
16704TIP3    H271528   3.076   3.263   0.301 -0.8061  0.3922 -0.6000
16705TIP3   OH271529   4.251   0.179  16.028 -0.6418  0.4599 -0.0217
16705TIP3    H171530   4.174   0.234  16.016  0.2845  1.4781 -1.5045
16705TIP3    H271531   4.313   0.235  16.074  0.3060  0.7030 -1.5481
16706TIP3   OH271532   1.791   5.654  12.589 -0.3186 -0.4973  0.2005
16706TIP3    H171533   1.818   5.658  12.680 -0.9614 -1.6634  0.4456
16706TIP3    H271534   1.696   5.638  12.592 -0.1408 -1.7896 -0.6657
16707TIP3   OH271535   0.429   1.640  16.851 -0.0346  0.7988 -0.0484
16707TIP3    H171536   0.381   1.683  16.781 -2.0012 -1.9082 -0.4680
16707TIP3    H271537   0.362   1.618  16.916  0.9220 -1.1871  0.3215
16708TIP3   OH271538   3.256   5.626   5.047 -0.4208  0.5844 -0.0749
16708TIP3    H171539   3.269   5.613   4.953 -1.8373  1.2667 -0.3833
16708TIP3    H271540   3.343   5.619   5.085  0.1342  0.0954 -1.4186
16709TIP3   OH271541   4.288   5.658  13.432  0.0618  0.5160  0.5273
16709TIP3    H171542   4.277   5.748  13.461 -0.6500  0.1765  1.3331
16709TIP3    H271543   4.233   5.650  13.355  1.6185  1.2995 -0.6924
16710TIP3   OH271544   4.496   4.979   0.835 -0.3079  0.0895  0.2191
16710TIP3    H171545   4.469   5.013   0.920 -0.0219  0.7119  0.0662
16710TIP3    H271546   4.458   5.040   0.772  1.9017  1.3359  0.0194
16711TIP3   OH271547   3.809   3.210  12.773  0.3142 -0.4262  0.4289
16711TIP3    H171548   3.800   3.159  12.692  0.6454 -0.3225  0.3229
16711TIP3    H271549   3.890   3.178  12.812  1.5413  1.3173 -0.5973
16712TIP3   OH271550   0.527   1.094  16.683  0.5655 -0.3974 -0.1643
16712TIP3    H171551   0.594   1.032  16.711  0.4478 -0.4336  0.0304
16712TIP3    H271552   0.574   1.177  16.675  0.2109  0.0251  1.9441
16713TIP3   OH271553   2.539   5.222  10.623  0.0546 -0.3787  0.0992
16713TIP3    H171554   2.514   5.253  10.536  1.5430  2.3182  0.5469
16713TIP3    H271555   2.590   5.143  10.607  0.0635 -0.0724 -1.4870
16714TIP3   OH271556   0.374   2.478   5.299  0.5259  1.0906 -0.1281
16714TIP3    H171557   0.338   2.391   5.312  1.2343  0.7966 -0.0855
16714TIP3    H271558   0.311   2.522   5.243  1.2881 -0.2307 -2.0904
16715TIP3   OH271559   1.105   6.448   5.866 -0.2698  0.6957  0.1641
16715TIP3    H171560   1.104   6.434   5.772  0.3173 -0.0085  0.2577
16715TIP3    H271561   1.174   6.390   5.899 -1.1957  0.1274  1.1497
16716TIP3   OH271562   0.621   6.705  15.685  0.1278  0.0506  0.7320
16716TIP3    H171563   0.621   6.616  15.650 -1.4401  1.0012 -1.7961
16716TIP3    H271564   0.528   6.726  15.694  0.4956  1.4982  1.2054
16717TIP3   OH271565   1.472   4.551  14.110 -0.4927  0.0486 -0.2981
16717TIP3    H171566   1.471   4.597  14.026 -1.4232  0.0784 -0.2771
16717TIP3    H271567   1.412   4.478  14.098 -1.3073  0.5484  0.6135
16718TIP3   OH271568   1.274   6.528  12.958 -0.6108 -0.3506  0.2482
16718TIP3    H171569   1.309   6.613  12.985  3.6001 -2.8547  3.3573
16718TIP3    H271570   1.214   6.503  13.028  0.2256 -1.0868  0.7108
16719TIP3   OH271571   4.746   1.502  12.921 -0.0517 -0.5608  0.2566
16719TIP3    H171572   4.755   1.489  13.015 -1.2414 -0.5119  0.3844
16719TIP3    H271573   4.732   1.414  12.886  1.4830 -0.7119 -0.0136
16720TIP3   OH271574   1.279   6.246   5.889  0.2463  0.2958 -0.3896
16720TIP3    H171575   1.273   6.155   5.861  0.9975  0.4567 -1.0860
16720TIP3    H271576   1.363   6.252   5.934  0.1201  0.6062 -0.1916
16721TIP3   OH271577   2.452   5.627   4.466  0.7808  0.5206 -0.4957
16721TIP3    H171578   2.496   5.673   4.394  1.5211 -0.3342 -0.5920
16721TIP3    H271579   2.462   5.534   4.445 -1.7078  0.3140 -0.9117
16722TIP3   OH271580   1.324   4.288  16.375 -0.6283  0.5388  0.6953
16722TIP3    H171581   1.256   4.222  16.379 -1.0071  0.7819 -1.4048
16722TIP3    H271582   1.406   4.239  16.372 -0.7863  0.2203  1.5659
16723TIP3   OH271583   3.062   1.307   0.897  0.1467 -0.6340 -0.1464
16723TIP3    H171584   3.089   1.331   0.808 -0.0201 -2.6100 -0.7438
16723TIP3    H271585   2.969   1.285   0.889  0.3319 -1.6164  0.3357
16724TIP3   OH271586   0.379   1.600   3.906 -0.0494 -0.5917 -0.3070
16724TIP3    H171587   0.465   1.560   3.921  0.0708 -0.7689 -1.4236
16724TIP3    H271588   0.391   1.692   3.928  0.0634 -0.8666  0.8414
16725TIP3   OH271589   0.507   6.146  13.399 -0.6229 -0.4903 -0.0997
16725TIP3    H171590   0.460   6.067  13.370 -0.8504 -1.3142  2.3886
16725TIP3    H271591   0.585   6.112  13.443 -0.6855  0.6726  0.9282
16726TIP3   OH271592   5.090   0.548   4.546  0.3640 -0.8534  0.0355
16726TIP3    H171593   5.049   0.463   4.529  0.6550 -1.2474  1.2463
16726TIP3    H271594   5.149   0.532   4.620  0.7236  0.3128  0.0127
16727TIP3   OH271595   3.776   2.793  11.127  0.3737 -0.4148  0.7672
16727TIP3    H171596   3.842   2.759  11.067 -1.4438 -0.5860 -1.2094
16727TIP3    H271597   3.714   2.839  11.070 -0.3099  1.2004  2.7566
16728TIP3   OH271598   4.599   4.209   0.759  0.0732  0.8380  0.4045
16728TIP3    H171599   4.602   4.292   0.807  0.9334  0.6609  0.6780
16728TIP3    H271600   4.600   4.235   0.667  1.2732  1.1126  0.4883
16729TIP3   OH271601   0.049   2.003  15.757 -0.2883  0.2010  0.8230
16729TIP3    H171602  -0.046   1.998  15.770 -0.3852  0.0776  0.0842
16729TIP3    H271603   0.060   2.011  15.662  0.5601 -2.4114  0.6690
16730TIP3   OH271604   3.517   4.173   0.483 -0.4618  0.0069  0.1148
16730TIP3    H171605   3.459   4.146   0.554 -1.3333 -0.5699 -0.8054
16730TIP3    H271606   3.560   4.252   0.516 -0.4478 -0.5735  1.4932
16731TIP3   OH271607   4.884   0.979  13.785  0.3245 -0.0167  0.3372
16731TIP3    H171608   4.916   0.918  13.719 -0.2825  0.3079 -0.2679
16731TIP3    H271609   4.833   0.926  13.846  0.1118 -0.1686  0.0232
16732TIP3   OH271610   4.694   1.830  15.354 -0.8270  1.4151  0.1685
16732TIP3    H171611   4.773   1.813  15.405 -0.5225 -0.7429 -0.9884
16732TIP3    H271612   4.715   1.906  15.300 -0.8343  3.1471  2.5140
16733TIP3   OH271613   4.293   5.191   4.916 -0.3579  0.3121 -0.3804
16733TIP3    H171614   4.222   5.187   4.852 -0.5456 -0.3088 -0.1364
16733TIP3    H271615   4.369   5.220   4.865 -0.8504  1.2696 -0.5753
16734TIP3   OH271616   1.801   5.769  13.832 -0.5946 -0.2168  0.1858
16734TIP3    H171617   1.848   5.696  13.791  2.0602  1.4067  0.1982
16734TIP3    H271618   1.770   5.822  13.759 -0.8916 -0.3621  0.2050
16735TIP3   OH271619   0.048   5.476   0.401  0.2483  0.0085  0.0604
16735TIP3    H171620   0.037   5.546   0.335  1.7449  0.2563  0.0601
16735TIP3    H271621   0.056   5.523   0.484  1.4159 -0.1463  0.0404
16736TIP3   OH271622   2.082   0.510  16.655  1.0234  0.6384 -0.1413
16736TIP3    H171623   2.136   0.586  16.676  2.1190 -0.0705 -0.3314
16736TIP3    H271624   2.140   0.453  16.604  0.1572 -0.2314 -0.1661
16737TIP3   OH271625   2.085   0.037  11.563 -0.3990  0.5734  0.2535
16737TIP3    H171626   2.048   0.062  11.478  0.9911  1.3551 -0.1412
16737TIP3    H271627   2.070   0.114  11.618 -0.0750  0.5783  0.3300
16738TIP3   OH271628   4.951   4.494  14.463 -0.3847  0.2230 -0.3755
16738TIP3    H171629   5.043   4.478  14.482 -0.2911 -1.5152 -2.0766
16738TIP3    H271630   4.931   4.577  14.506  1.5229 -0.2119  1.3953
16739TIP3   OH271631   1.139   5.038   3.083 -0.6726 -0.1579  0.1368
16739TIP3    H171632   1.180   5.051   3.168 -0.3508  0.4320 -0.1087
16739TIP3    H271633   1.061   5.093   3.085 -0.5281  0.0543 -0.0448
16740TIP3   OH271634   1.412   3.516  11.503  0.0225 -0.0892 -0.6860
16740TIP3    H171635   1.356   3.455  11.551  1.9852  0.5375  2.4941
16740TIP3    H271636   1.467   3.461  11.448 -0.3207 -0.9926 -0.1301
16741TIP3   OH271637   4.632   2.429   0.505 -0.1875  0.1742  0.1887
16741TIP3    H171638   4.644   2.356   0.566 -2.2755 -1.1416 -0.9164
16741TIP3    H271639   4.618   2.387   0.420  2.3648  1.9672 -1.1806
16742TIP3   OH271640   1.625   0.195   2.959  0.5990  0.2214 -0.4367
16742TIP3    H171641   1.554   0.152   2.912 -0.0190  0.5783  0.1678
16742TIP3    H271642   1.699   0.192   2.899 -0.5153  1.7687 -1.9533
16743TIP3   OH271643   5.223   2.925  13.617  0.4147 -0.1956  0.3561
16743TIP3    H171644   5.308   2.961  13.638  0.8840 -1.6399  1.0527
16743TIP3    H271645   5.238   2.830  13.611 -0.6896 -0.2578 -1.7703
16744TIP3   OH271646   5.305   0.885  10.884 -0.4947  0.0269 -0.6059
16744TIP3    H171647   5.215   0.885  10.916 -0.5814 -3.1531 -0.6251
16744TIP3    H271648   5.355   0.932  10.951 -2.1042  1.5502 -0.4465
16745TIP3   OH271649   1.346   2.431   5.371 -0.0199 -0.0536 -0.4071
16745TIP3    H171650   1.250   2.429   5.365 -0.1892  2.5218  0.7936
16745TIP3    H271651   1.371   2.503   5.312  1.1588 -0.5164 -0.4692
16746TIP3   OH271652   3.750   5.576   5.281 -0.2443  0.1805  0.5764
16746TIP3    H171653   3.704   5.495   5.261  0.9517 -0.5759  0.8113
16746TIP3    H271654   3.780   5.565   5.371  1.5880  0.0464 -0.0194
16747TIP3   OH271655   2.469   6.461  14.522  0.3423 -0.3622  0.1452
16747TIP3    H171656   2.501   6.411  14.447 -0.0693  1.4124 -1.2631
16747TIP3    H271657   2.475   6.401  14.596 -0.1453 -2.4815 -1.4849
16748TIP3   OH271658   0.106   2.161  14.580  0.5957  1.0360  0.2144
16748TIP3    H171659   0.074   2.223  14.514  0.9438  2.9639  1.7955
16748TIP3    H271660   0.114   2.078  14.533 -0.8110  1.9442 -1.7314
16749TIP3   OH271661   3.247   6.035   4.570  0.0003  0.7710 -0.0890
16749TIP3    H171662   3.251   5.957   4.625 -0.3326  0.3274 -0.6824
16749TIP3    H271663   3.215   6.003   4.485 -0.2492  1.5668 -0.3014
16750TIP3   OH271664   6.687   5.824  11.286  0.3697 -0.4080 -0.1027
16750TIP3    H171665   6.738   5.749  11.315 -1.5122 -0.5010  3.2422
16750TIP3    H271666   6.730   5.899  11.325  1.8983  0.2458 -2.9511
16751TIP3   OH271667   3.098   1.075  12.193 -0.1930  0.3214  0.6762
16751TIP3    H171668   3.167   1.012  12.215 -0.1730  0.2176  0.3174
16751TIP3    H271669   3.096   1.076  12.097 -3.4810 -2.7605  0.6035
16752TIP3   OH271670   0.943   3.008  12.902  0.0401 -0.0833 -0.5468
16752TIP3    H171671   0.922   3.066  12.976  0.8004 -0.9806  0.3940
16752TIP3    H271672   0.997   3.063  12.845  0.0241  0.4144 -0.0955
16753TIP3   OH271673   0.923   1.998  15.382  0.0625  0.2508 -0.5709
16753TIP3    H171674   0.901   2.061  15.450  0.7674 -0.0200 -0.0732
16753TIP3    H271675   0.959   2.050  15.311  1.2198  0.3726  0.0839
16754TIP3   OH271676   1.642   3.886   0.129  0.2502 -0.1472  0.2535
16754TIP3    H171677   1.713   3.856   0.186  1.6151  0.9620 -0.8280
16754TIP3    H271678   1.655   3.981   0.123  1.4848 -0.4854 -3.6447
16755TIP3   OH271679   2.068   6.024  14.557  0.4151  0.0693  0.2644
16755TIP3    H171680   2.110   5.951  14.511  0.6761 -0.6287  1.6144
16755TIP3    H271681   2.141   6.079  14.586  0.2349  0.6630 -0.3779
16756TIP3   OH271682   4.468   1.014  16.619 -0.2688 -0.4115 -0.1508
16756TIP3    H171683   4.542   0.999  16.678  0.1973 -1.4314 -0.9851
16756TIP3    H271684   4.458   1.109  16.615  1.8827 -0.2142 -1.1337
16757TIP3   OH271685   3.895   3.965   3.005  0.1527 -0.3751 -0.3789
16757TIP3    H171686   3.928   4.054   3.000  2.9678 -1.4053 -1.3821
16757TIP3    H271687   3.825   3.961   2.940 -1.0785  1.4728  0.7664
16758TIP3   OH271688   5.641   4.710  17.190  0.5512  0.0375 -0.3602
16758TIP3    H171689   5.703   4.662  17.244  1.9778  2.3588  0.1459
16758TIP3    H271690   5.668   4.691  17.100  0.8959 -0.3495 -0.1795
16759TIP3   OH271691   0.648   4.392   4.340 -0.6956  0.8689 -0.2165
16759TIP3    H171692   0.590   4.320   4.366  0.2352  0.3755  0.5371
16759TIP3    H271693   0.656   4.445   4.419 -0.6173  1.2815 -0.5035
16760TIP3   OH271694   2.387   6.605   5.540 -0.3827  0.1230  0.3905
16760TIP3    H171695   2.322   6.558   5.593 -2.5102  2.1811 -0.2964
16760TIP3    H271696   2.361   6.697   5.546  0.1548  0.5657 -2.9974
16761TIP3   OH271697   6.308   2.017   5.023  0.2260 -0.1729 -0.4314
16761TIP3    H171698   6.355   1.984   5.099  3.1358 -0.0896 -2.1066
16761TIP3    H271699   6.261   2.093   5.054 -0.5126 -1.4974  1.7943
16762TIP3   OH271700   0.556   5.340   5.322  0.2120  0.2877  0.0811
16762TIP3    H171701   0.585   5.329   5.232  1.6407 -1.1708  0.6947
16762TIP3    H271702   0.636   5.344   5.374 -0.5280  3.1071  1.1101
16763TIP3   OH271703   4.863   1.131  13.231 -0.2469 -0.7524  0.3274
16763TIP3    H171704   4.768   1.135  13.237 -0.4031 -1.0201 -1.6366
16763TIP3    H271705   4.881   1.098  13.143  1.6889  1.8340 -0.3380
16764TIP3   OH271706   0.659   0.221  14.087  0.0343 -0.4098 -1.1225
16764TIP3    H171707   0.745   0.186  14.110  0.5691  0.9509 -0.9950
16764TIP3    H271708   0.674   0.273  14.008 -0.9191 -1.2388 -1.8551
16765TIP3   OH271709   3.380   1.724   4.855 -0.3897 -0.0066  0.0395
16765TIP3    H171710   3.475   1.717   4.862 -0.3658  0.4315  0.1675
16765TIP3    H271711   3.357   1.669   4.779  0.0823  0.8032 -0.6973
16766TIP3   OH271712   2.346   5.228  17.120 -0.1094 -0.8402  0.0559
16766TIP3    H171713   2.315   5.259  17.035 -2.2358  0.0724  1.1118
16766TIP3    H271714   2.298   5.147  17.135 -0.2343 -0.6626  0.6553
16767TIP3   OH271715   3.356   3.338   3.956 -0.1735 -0.0953  1.1946
16767TIP3    H171716   3.432   3.336   3.897 -0.7999 -1.4087  0.4100
16767TIP3    H271717   3.392   3.315   4.041 -0.0154 -2.8419  0.4239
16768TIP3   OH271718   0.871   5.568  14.689 -0.2725  0.3745 -0.2623
16768TIP3    H171719   0.862   5.663  14.680 -0.3563  0.3613 -0.3207
16768TIP3    H271720   0.786   5.533  14.662 -0.2623  0.2875 -0.1805
16769TIP3   OH271721   1.079   3.055  11.145 -0.5114 -0.4073 -0.0636
16769TIP3    H171722   1.045   3.140  11.173  0.7290 -0.3650  1.4399
16769TIP3    H271723   1.103   3.067  11.054 -2.1614  0.2764 -0.4320
16770TIP3   OH271724   1.723   6.667  14.401  0.2293 -0.1514  0.4561
16770TIP3    H171725   1.759   6.578  14.404  0.8815  0.0919 -0.0084
16770TIP3    H271726   1.767   6.708  14.327 -0.9011  0.2125 -0.0144
16771TIP3   OH271727   4.767   2.880   2.390  0.1223 -1.2645 -0.5051
16771TIP3    H171728   4.777   2.860   2.483 -0.9708  1.2950  0.2304
16771TIP3    H271729   4.675   2.908   2.382  1.3059  2.6189 -1.4801
16772TIP3   OH271730   2.184   0.845   2.978  0.5608 -0.1958 -0.1346
16772TIP3    H171731   2.123   0.795   3.032 -0.6325 -0.5482 -1.7636
16772TIP3    H271732   2.161   0.936   2.994 -0.4874 -0.3331 -0.8268
16773TIP3   OH271733   2.800   5.821  17.104 -0.6200  0.7810  0.0043
16773TIP3    H171734   2.849   5.881  17.048  0.6996  0.6725  1.0277
16773TIP3    H271735   2.736   5.878  17.147  0.5163  1.4552  0.8477
16774TIP3   OH271736   3.062   4.000  15.396 -0.2467  0.5141 -0.1150
16774TIP3    H171737   2.973   3.990  15.359  0.3525  0.7955 -1.6855
16774TIP3    H271738   3.116   3.940  15.344  0.2850 -0.5502  1.6242
16775TIP3   OH271739   5.918   5.725  14.811 -0.1492 -0.1162  0.3321
16775TIP3    H171740   5.827   5.713  14.785 -0.1335 -0.3452  0.3840
16775TIP3    H271741   5.962   5.645  14.784  0.7530  1.3380 -2.7857
16776TIP3   OH271742   3.460   0.328   2.538  0.0003 -0.0595  0.3839
16776TIP3    H171743   3.513   0.249   2.550  2.0895  1.3536  0.6998
16776TIP3    H271744   3.375   0.307   2.578  0.7689 -1.8776  1.0861
16777TIP3   OH271745   3.636   6.479   1.103  0.1506 -0.1332  0.0046
16777TIP3    H171746   3.595   6.565   1.103 -0.6782 -0.4907  1.7922
16777TIP3    H271747   3.709   6.487   1.041 -1.9299  0.8264 -2.3958
16778TIP3   OH271748   2.693   5.941   0.746 -0.0956 -0.6017 -0.2344
16778TIP3    H171749   2.723   5.995   0.673 -0.1185 -0.2518  0.0112
16778TIP3    H271750   2.599   5.930   0.731 -0.4998  1.1345  0.7812
16779TIP3   OH271751   1.397   3.798  15.951  0.5761 -0.3539 -0.4384
16779TIP3    H171752   1.405   3.713  15.908  1.6714 -0.5633  0.1522
16779TIP3    H271753   1.473   3.802  16.009 -0.4996  0.1960  0.9782
16780TIP3   OH271754   3.939   3.318  15.434  0.2159  0.1570  0.5170
16780TIP3    H171755   4.033   3.309  15.449  0.3499 -0.2502 -0.5413
16780TIP3    H271756   3.902   3.233  15.459  0.1204  0.3328  0.9799
16781TIP3   OH271757   4.261   5.149  13.465 -0.1563 -0.2714 -0.3288
16781TIP3    H171758   4.343   5.118  13.503  0.9101  0.5563 -1.8944
16781TIP3    H271759   4.239   5.085  13.397 -1.0753 -0.7476  0.3989
16782TIP3   OH271760   4.881   4.112  11.400  0.1601  0.1640 -0.4006
16782TIP3    H171761   4.892   4.026  11.360 -1.1411  0.6601 -1.8322
16782TIP3    H271762   4.905   4.175  11.332 -1.3556  0.9996 -0.1933
16783TIP3   OH271763   1.062   0.685   5.383  0.6094 -0.0701 -0.2419
16783TIP3    H171764   0.974   0.684   5.422  1.0969  2.5016  1.0452
16783TIP3    H271765   1.109   0.617   5.431  0.6329  1.7315  2.3783
16784TIP3   OH271766   2.704   2.546   3.338  0.0908  0.1874 -0.7304
16784TIP3    H171767   2.648   2.549   3.416  0.7290 -1.5822 -0.1776
16784TIP3    H271768   2.762   2.621   3.347  0.9133 -0.6350  1.1162
16785TIP3   OH271769   0.342   1.477   5.473  0.3726  0.8676 -0.0056
16785TIP3    H171770   0.390   1.469   5.555  1.2169  1.1908 -0.4587
16785TIP3    H271771   0.409   1.492   5.407 -0.4076  2.2459 -0.5332
16786TIP3   OH271772   4.417   0.277  11.686  0.0199 -0.2500  0.0419
16786TIP3    H171773   4.470   0.328  11.624 -1.6363  0.9687 -0.4098
16786TIP3    H271774   4.350   0.236  11.632 -0.5863 -0.3173  0.8417
16787TIP3   OH271775   1.119   3.277   3.315 -0.2509  0.0310  0.0044
16787TIP3    H171776   1.056   3.349   3.320 -2.2521 -1.6459 -0.3224
16787TIP3    H271777   1.185   3.307   3.252 -2.5779  0.4787 -2.3104
16788TIP3   OH271778   3.033   1.556   3.275 -0.3615  0.3104  0.4117
16788TIP3    H171779   2.985   1.599   3.205  0.4245  0.0810 -0.2729
16788TIP3    H271780   3.125   1.568   3.253 -0.1274 -2.2393 -0.1300
16789TIP3   OH271781   4.908   2.014   3.331 -0.3812 -0.5375 -1.0639
16789TIP3    H171782   4.885   2.107   3.332 -0.8498 -0.6520  0.2526
16789TIP3    H271783   4.830   1.970   3.366 -0.1706 -1.4323 -1.7026
16790TIP3   OH271784   1.110   2.976   0.610  0.3860  0.0954  0.0214
16790TIP3    H171785   1.191   2.925   0.614  0.6316  0.4582 -0.2151
16790TIP3    H271786   1.130   3.056   0.659 -0.6145 -0.8588  2.0118
16791TIP3   OH271787   2.762   1.803   1.717  0.0141 -0.3444 -0.0977
16791TIP3    H171788   2.713   1.722   1.700  0.2435 -0.7516  1.1621
16791TIP3    H271789   2.719   1.868   1.662 -1.7351 -0.7716  0.7212
16792TIP3   OH271790   1.800   1.118  12.533  0.0581  0.3751  0.1965
16792TIP3    H171791   1.833   1.036  12.497  1.2684  1.1380 -0.4736
16792TIP3    H271792   1.841   1.186  12.480 -2.0719  1.3946 -0.2240
16793TIP3   OH271793   6.232   3.097  13.450  0.1197  0.4318 -0.5529
16793TIP3    H171794   6.258   3.189  13.464  1.4312  0.1393 -0.9817
16793TIP3    H271795   6.238   3.085  13.355 -2.6550  0.6405 -0.8067
16794TIP3   OH271796   1.715   4.555   0.889 -0.2577  0.3566  0.3059
16794TIP3    H171797   1.769   4.566   0.810 -0.3550  0.2074  0.2171
16794TIP3    H271798   1.659   4.632   0.890 -0.1389  0.4424  0.3207
16795TIP3   OH271799   2.653   2.244  15.188  0.2499  0.2145  0.3929
16795TIP3    H171800   2.618   2.327  15.221  2.2934  1.4049 -0.3643
16795TIP3    H271801   2.627   2.242  15.096 -0.9023 -0.6098  0.7269
16796TIP3   OH271802   0.080   1.526   5.365 -0.5774  0.2043  0.0241
16796TIP3    H171803   0.167   1.495   5.391 -0.4711  0.6901  0.2411
16796TIP3    H271804   0.022   1.452   5.383 -0.4222  0.3496  1.1408
16797TIP3   OH271805   0.102   2.198  11.940 -0.0039  0.3060 -0.3439
16797TIP3    H171806   0.063   2.276  11.981 -2.0860 -1.8131  1.8975
16797TIP3    H271807   0.146   2.152  12.012  0.0545 -1.2437 -1.3448
16798TIP3   OH271808   4.686   1.619  11.912 -0.2312 -0.3936 -0.1290
16798TIP3    H171809   4.705   1.557  11.842 -0.8376  0.5928 -1.1820
16798TIP3    H271810   4.766   1.622  11.964  0.9892  0.5345 -2.0498
16799TIP3   OH271811   2.403   2.301   1.807  0.1707  0.1278 -0.1643
16799TIP3    H171812   2.487   2.280   1.767 -0.0220 -0.9302 -0.0344
16799TIP3    H271813   2.369   2.374   1.756  1.5437  1.1022  0.2957
16800TIP3   OH271814   0.802   4.058   5.803 -0.2459  0.2498  0.6318
16800TIP3    H171815   0.761   4.061   5.889 -1.2670  0.8819  0.1349
16800TIP3    H271816   0.779   3.971   5.769  0.7277 -0.2593  1.2642
16801TIP3   OH271817   6.299   6.368  14.269  0.8089  0.0635 -0.0066
16801TIP3    H171818   6.316   6.439  14.330  0.8507 -0.2674  0.3652
16801TIP3    H271819   6.220   6.326  14.302  0.3888  0.3659 -0.6184
16802TIP3   OH271820   0.660   0.078  10.701  0.3695  0.2071  0.2025
16802TIP3    H171821   0.681   0.046  10.613 -1.1517  0.8272 -0.3983
16802TIP3    H271822   0.744   0.103  10.738  0.9362  0.6438 -1.3539
16803TIP3   OH271823   3.098   4.543  11.249 -0.4107  0.3619 -0.6978
16803TIP3    H171824   3.041   4.471  11.222  1.2091 -1.2088 -0.0645
16803TIP3    H271825   3.119   4.589  11.168  0.0853 -1.0543 -1.3969
16804TIP3   OH271826   3.947   3.535   4.904  0.5033  0.5197  0.1610
16804TIP3    H171827   3.929   3.616   4.856  0.0197 -0.5652 -1.5502
16804TIP3    H271828   3.921   3.555   4.994 -0.6141  1.9370 -0.4380
16805TIP3   OH271829   1.477   1.545  12.148  0.1996 -0.0797  0.1461
16805TIP3    H171830   1.498   1.513  12.060  0.4723  0.2898  0.0780
16805TIP3    H271831   1.384   1.525  12.159  0.1665 -0.1346 -0.2197
16806TIP3   OH271832   6.059   3.259   2.105  0.2596 -0.1836  0.1066
16806TIP3    H171833   6.113   3.304   2.170  1.4555 -0.4109 -0.7305
16806TIP3    H271834   6.089   3.168   2.107 -0.9757 -0.6037  0.5534
16807TIP3   OH271835   3.245   4.471  15.852  0.0711  0.4020 -0.0707
16807TIP3    H171836   3.321   4.512  15.813 -0.4827 -0.2516 -1.9028
16807TIP3    H271837   3.172   4.495  15.795 -0.7046 -0.8691  0.3520
16808TIP3   OH271838   4.905   6.586   2.889 -0.3210 -0.1828 -0.1592
16808TIP3    H171839   4.911   6.543   2.974 -0.0088  0.5010  0.1628
16808TIP3    H271840   4.818   6.624   2.888  0.7953  2.5426  1.1681
16809TIP3   OH271841   1.572   3.367  10.921  0.3690  0.0764  0.0584
16809TIP3    H171842   1.523   3.400  10.846  0.0116  2.0126  1.1019
16809TIP3    H271843   1.555   3.273  10.921 -0.2345  0.1675 -1.8334
16810TIP3   OH271844   0.704   5.576  13.230 -0.2229  0.2470  0.1769
16810TIP3    H171845   0.744   5.661  13.248 -0.0271  0.0656  0.5983
16810TIP3    H271846   0.673   5.583  13.139  0.5018  0.4871 -0.0548
16811TIP3   OH271847   5.955   5.438   5.073  0.5934 -0.3654 -0.4666
16811TIP3    H171848   6.037   5.486   5.085 -0.5932  1.8586 -0.9920
16811TIP3    H271849   5.958   5.368   5.138  1.8642  1.1046  1.0874
16812TIP3   OH271850   3.924   0.872  12.463  0.2482  0.3558 -0.2541
16812TIP3    H171851   4.012   0.840  12.483  0.2926  0.3579 -0.4479
16812TIP3    H271852   3.873   0.853  12.543  0.2556 -0.2633 -0.3926
16813TIP3   OH271853   4.438   3.518  14.639 -0.1265 -0.5608 -0.4807
16813TIP3    H171854   4.526   3.482  14.627  0.5445 -0.0580  2.6813
16813TIP3    H271855   4.387   3.446  14.678 -0.3126  0.0980  0.4950
16814TIP3   OH271856   5.041   1.936  14.038  0.0304  0.3298  0.0625
16814TIP3    H171857   4.963   1.913  14.088  1.4181 -0.8474  1.7792
16814TIP3    H271858   5.059   1.859  13.984  0.8913 -0.0371  0.8548
16815TIP3   OH271859   4.592   6.760  11.591 -0.2709  1.0185  0.0155
16815TIP3    H171860   4.654   6.830  11.570 -1.1269  2.0958  0.9950
16815TIP3    H271861   4.514   6.781  11.540 -0.0391 -0.0326 -0.7908
16816TIP3   OH271862   3.748   0.855   4.720 -0.0886  0.3210  0.0942
16816TIP3    H171863   3.703   0.940   4.727  0.3803  0.3985  2.7361
16816TIP3    H271864   3.685   0.798   4.676 -1.2501  1.4858  0.2037
16817TIP3   OH271865   6.636   1.602  16.286  0.0862  0.0311  0.0422
16817TIP3    H171866   6.607   1.554  16.209  2.3764  1.3281 -1.6820
16817TIP3    H271867   6.661   1.534  16.349 -1.1710 -1.0267 -0.5771
16818TIP3   OH271868   3.637   6.089   2.987 -0.1004 -0.5663  0.3502
16818TIP3    H171869   3.595   6.116   2.905  0.5832  1.3294  0.5841
16818TIP3    H271870   3.660   5.998   2.973  0.4554 -0.1401 -1.7667
16819TIP3   OH271871   0.765   1.680  16.197  0.3577  0.5716  0.7312
16819TIP3    H171872   0.685   1.634  16.224  0.2300  0.7973  0.7388
16819TIP3    H271873   0.812   1.617  16.143 -1.0851  1.3480 -1.4574
16820TIP3   OH271874   1.306   6.535  12.544  0.3928  0.1739  0.0513
16820TIP3    H171875   1.275   6.483  12.470 -1.0942 -1.3106  1.6850
16820TIP3    H271876   1.242   6.520  12.613  1.5548  1.8264  1.5398
16821TIP3   OH271877   1.228   5.874   4.803 -0.3121  0.3739 -0.0236
16821TIP3    H171878   1.152   5.926   4.828 -0.9876  0.4603 -2.1078
16821TIP3    H271879   1.301   5.913   4.851 -0.9492  2.7002 -0.8642
16822TIP3   OH271880   4.314   1.553   3.079 -0.5786  0.1589  0.0189
16822TIP3    H171881   4.288   1.559   2.987 -0.5839 -0.0855  0.0034
16822TIP3    H271882   4.360   1.469   3.085 -0.6574  0.1330  0.2598
16823TIP3   OH271883   3.276   1.306   5.928  0.0995  0.1081  0.0661
16823TIP3    H171884   3.274   1.386   5.981  0.2478 -0.4841  0.9731
16823TIP3    H271885   3.293   1.337   5.839 -2.0892  1.2744  0.0230
16824TIP3   OH271886   1.726   3.558  16.885  0.1373  0.0271  0.2563
16824TIP3    H171887   1.689   3.633  16.931 -0.0907  0.1610 -0.1428
16824TIP3    H271888   1.794   3.525  16.944 -0.1289  0.2172  0.6728
16825TIP3   OH271889   2.316   5.310   2.361  0.4618  0.2117  0.0466
16825TIP3    H171890   2.246   5.307   2.296  0.2918 -0.9151  0.2665
16825TIP3    H271891   2.385   5.362   2.320  0.8890 -1.5896 -1.5527
16826TIP3   OH271892   4.771   2.820   4.513 -0.0250  0.2725  0.9207
16826TIP3    H171893   4.836   2.884   4.487 -0.6967  0.4503 -0.3615
16826TIP3    H271894   4.814   2.768   4.581  1.8524 -0.3357 -0.7040
16827TIP3   OH271895   2.271   6.608   0.524 -0.2876  0.1264 -0.5020
16827TIP3    H171896   2.270   6.653   0.440 -0.7332 -0.4263 -0.7984
16827TIP3    H271897   2.187   6.630   0.564 -0.1872  0.1749 -0.3149
16828TIP3   OH271898   6.586   4.271   4.217 -0.1663 -0.6088 -0.7271
16828TIP3    H171899   6.493   4.264   4.239 -0.1718  0.7964 -0.2572
16828TIP3    H271900   6.631   4.260   4.301  0.1451 -2.0847 -1.0708
16829TIP3   OH271901   1.689   0.312   1.650 -0.0502 -0.2694 -0.5684
16829TIP3    H171902   1.734   0.240   1.695 -0.1023 -0.5838 -1.0145
16829TIP3    H271903   1.644   0.359   1.720  0.9248  0.0143 -0.1189
16830TIP3   OH271904   1.192   5.161  17.173  0.7362 -0.2339  0.0311
16830TIP3    H171905   1.199   5.073  17.210  0.7859 -0.2376  0.0124
16830TIP3    H271906   1.199   5.148  17.078  0.2933 -0.2572  0.0023
16831TIP3   OH271907   5.967   0.097  12.234  0.4918  0.2317  0.5973
16831TIP3    H171908   5.962   0.192  12.225 -1.7509  0.0640 -0.1721
16831TIP3    H271909   6.037   0.071  12.175  0.4282  1.3096  0.0284
16832TIP3   OH271910   0.870   3.270   1.868  0.0333  0.6047  0.0265
16832TIP3    H171911   0.853   3.320   1.948 -1.1645 -1.2548  0.9599
16832TIP3    H271912   0.783   3.255   1.830  0.2473 -1.7558  0.3902
16833TIP3   OH271913   5.104   0.850  14.890  0.6150 -0.7519  0.0860
16833TIP3    H171914   5.037   0.806  14.941 -0.6926  1.3820  0.2708
16833TIP3    H271915   5.176   0.864  14.952  0.2611 -0.9029  0.5346
16834TIP3   OH271916   6.650   4.402  11.326  0.6549  0.0685 -0.0930
16834TIP3    H171917   6.574   4.355  11.291  2.3047 -1.7829 -1.2999
16834TIP3    H271918   6.686   4.343  11.393 -0.6362  2.2153  2.5846
16835TIP3   OH271919   4.122   0.436   5.317 -0.1492  0.0996 -0.0097
16835TIP3    H171920   4.129   0.531   5.320  2.1157 -0.0898  2.3640
16835TIP3    H271921   4.191   0.409   5.256 -1.0563 -0.0023 -0.9947
16836TIP3   OH271922   2.149   2.839  13.555 -0.1234  0.0392  0.1474
16836TIP3    H171923   2.194   2.773  13.606  1.4805  0.5031 -0.6496
16836TIP3    H271924   2.207   2.915  13.556 -0.6615  0.4890 -1.2647
16837TIP3   OH271925   5.245   5.196  12.653 -0.0631  0.5783 -0.3327
16837TIP3    H171926   5.338   5.175  12.661 -0.3540 -0.6526 -0.2089
16837TIP3    H271927   5.200   5.123  12.696 -1.0866  1.1936 -0.3544
16838TIP3   OH271928   2.630   4.335   1.083 -0.1502  0.2320 -0.0824
16838TIP3    H171929   2.564   4.331   1.014 -0.8835  1.1312  0.5540
16838TIP3    H271930   2.601   4.407   1.140  0.8073 -0.0581  0.7849
16839TIP3   OH271931   5.660   5.231  16.294 -0.0705 -0.3447 -0.8150
16839TIP3    H171932   5.688   5.233  16.386  0.2300 -0.5101 -0.8995
16839TIP3    H271933   5.626   5.318  16.277 -0.7838 -0.5295 -0.3469
16840TIP3   OH271934   5.792   5.046  17.124  0.0485 -0.3938  0.4382
16840TIP3    H171935   5.855   4.977  17.102  0.9733  0.2233  1.1249
16840TIP3    H271936   5.837   5.127  17.102 -0.3845  0.0644  1.2480
16841TIP3   OH271937   2.588   0.144  14.174 -0.0253  0.2911 -0.4767
16841TIP3    H171938   2.529   0.079  14.213  0.3261  0.6544  0.6878
16841TIP3    H271939   2.560   0.150  14.083 -1.4667  0.1113 -0.0591
16842TIP3   OH271940   2.077   3.572  15.285  0.2553 -0.3013 -0.3707
16842TIP3    H171941   1.984   3.550  15.281  0.0706  0.4156 -0.0841
16842TIP3    H271942   2.120   3.500  15.238 -0.5669  0.1251 -1.8210
16843TIP3   OH271943   0.444   0.530  17.213  0.1766  0.2791  0.2329
16843TIP3    H171944   0.350   0.546  17.201 -0.2677 -0.6432  2.3733
16843TIP3    H271945   0.484   0.616  17.199 -0.8810  0.5252 -1.5143
16844TIP3   OH271946   0.670   1.909  12.589 -0.0261 -0.5172 -0.0765
16844TIP3    H171947   0.618   1.971  12.640  1.8375 -0.9906  2.5179
16844TIP3    H271948   0.759   1.945  12.591  0.4587 -1.6007 -1.2830
16845TIP3   OH271949   1.460   4.385   1.329  0.0583 -0.3149  0.2654
16845TIP3    H171950   1.442   4.330   1.405 -0.4129 -2.1315 -1.1366
16845TIP3    H271951   1.398   4.457   1.337  0.1655 -0.3692  1.7120
16846TIP3   OH271952   2.227   3.674  15.898 -0.4197 -0.3268  0.4845
16846TIP3    H171953   2.236   3.670  15.803  0.7061 -1.8202  0.6402
16846TIP3    H271954   2.314   3.651  15.932 -0.6545  0.7740  1.8633
16847TIP3   OH271955   0.137   4.756   5.360  0.1737 -0.7815  0.0599
16847TIP3    H171956   0.216   4.787   5.316 -1.0794  0.8802 -1.0759
16847TIP3    H271957   0.135   4.805   5.443 -0.5007  0.4030 -0.6386
16848TIP3   OH271958   1.750   0.875  11.259  0.3215  0.0599 -0.0293
16848TIP3    H171959   1.739   0.968  11.241 -0.8433  0.4162  2.3045
16848TIP3    H271960   1.817   0.872  11.328 -0.1200 -0.7816  0.3712
16849TIP3   OH271961   3.061   5.987  16.936  0.8215 -0.1657 -0.2084
16849TIP3    H171962   3.059   5.895  16.910  1.9107 -0.0573 -0.6993
16849TIP3    H271963   3.020   6.033  16.863  1.5074 -0.1255 -0.5698
16850TIP3   OH271964   3.852   5.352  16.878 -0.0656  0.1783 -0.0179
16850TIP3    H171965   3.816   5.366  16.966  0.8071 -2.3144  0.7921
16850TIP3    H271966   3.946   5.341  16.893 -0.0591 -1.3917 -1.0934
16851TIP3   OH271967   5.830   1.960   3.621 -0.1035  0.2279 -0.3840
16851TIP3    H171968   5.906   1.978   3.677  0.1520  1.8842 -1.2296
16851TIP3    H271969   5.840   1.868   3.597  1.0496  0.1283  0.4087
16852TIP3   OH271970   4.948   2.558   6.135 -0.5699  0.6614 -0.4877
16852TIP3    H171971   4.972   2.592   6.221  0.1526  0.2781 -0.5318
16852TIP3    H271972   5.005   2.482   6.123 -1.8364 -0.2894 -0.5863
16853TIP3   OH271973   1.272   6.347   5.293 -0.0189  0.7950 -0.6875
16853TIP3    H171974   1.193   6.367   5.243 -0.2183  0.3605 -0.5457
16853TIP3    H271975   1.276   6.252   5.295  0.1495  0.8103 -0.1270
16854TIP3   OH271976   0.364   4.007   3.290 -0.1028  0.1113  0.0463
16854TIP3    H171977   0.310   4.080   3.261 -0.5103  0.5118  1.7322
16854TIP3    H271978   0.419   4.043   3.360 -1.0883 -1.4152  1.6648
16855TIP3   OH271979   6.198   5.285  15.706 -0.0852  0.4534  0.7398
16855TIP3    H171980   6.143   5.248  15.637 -1.2742  2.8610  0.3607
16855TIP3    H271981   6.287   5.284  15.669 -0.9836  3.6202 -1.7187
16856TIP3   OH271982   1.231   5.617  13.018  0.1244  0.3989  0.4838
16856TIP3    H171983   1.307   5.568  12.987  1.5686  1.0401  2.8855
16856TIP3    H271984   1.159   5.554  13.014  0.5471  0.0258 -2.6070
16857TIP3   OH271985   5.609   3.538  13.468 -0.3609  0.2533 -0.5135
16857TIP3    H171986   5.630   3.624  13.432  0.9491 -0.3580 -1.2053
16857TIP3    H271987   5.553   3.558  13.544  1.2869  1.8105  0.3420
16858TIP3   OH271988   0.822   6.694  15.869  0.2844  0.5668  0.1241
16858TIP3    H171989   0.770   6.729  15.797  1.3043  2.9436  0.5204
16858TIP3    H271990   0.775   6.614  15.895 -0.4113 -0.0226 -2.7616
16859TIP3   OH271991   5.031   4.107   5.650 -0.0484 -0.2392 -0.3808
16859TIP3    H171992   4.948   4.142   5.616  0.0432  0.2217 -0.1297
16859TIP3    H271993   5.005   4.051   5.723 -0.1152  0.1985 -0.0652
16860TIP3   OH271994   0.564   6.562   5.610 -0.3224 -0.3565  0.3823
16860TIP3    H171995   0.551   6.562   5.705 -0.2312  0.7876  0.3959
16860TIP3    H271996   0.519   6.483   5.580  0.5099 -1.2819  1.4916
16861TIP3   OH271997   3.564   0.513   4.838 -0.1743  0.6969  0.1621
16861TIP3    H171998   3.562   0.417   4.834  0.9753  0.6143  1.4283
16861TIP3    H271999   3.555   0.540   4.746  1.3888 -0.6591 -0.4337
16862TIP3   OH272000   5.621   1.777  15.950  0.4436  0.3673  0.1059
16862TIP3    H172001   5.686   1.772  16.020  1.7049  0.7122 -1.0163
16862TIP3    H272002   5.646   1.707  15.889 -0.2034  0.5361 -0.3603
16863TIP3   OH272003   0.503   4.818   3.577  0.0562  0.7801  0.2397
16863TIP3    H172004   0.442   4.773   3.519  0.7646  1.3336 -0.9564
16863TIP3    H272005   0.489   4.778   3.663  2.2315 -3.3509 -1.2015
16864TIP3   OH272006   1.961   3.641  12.306  0.1392 -0.1990  0.2768
16864TIP3    H172007   1.981   3.548  12.294 -1.1949 -0.5369  0.5658
16864TIP3    H272008   2.031   3.687  12.261 -0.3232 -1.3670 -1.6943
16865TIP3   OH272009   0.695   4.743   4.429  0.5521  0.2385 -0.6240
16865TIP3    H172010   0.712   4.704   4.515  0.1401 -0.3087 -0.7917
16865TIP3    H272011   0.749   4.693   4.368 -0.5277 -0.5504 -0.9442
16866TIP3   OH272012   3.022   5.948  12.234  0.7897 -0.4009  0.3392
16866TIP3    H172013   2.950   5.897  12.270  0.3169 -0.7544 -1.0664
16866TIP3    H272014   3.091   5.943  12.301 -0.8158  0.7568  2.1265
16867TIP3   OH272015   6.101   2.780  15.965  0.0736 -0.3115 -0.4955
16867TIP3    H172016   6.155   2.816  15.895 -0.0520 -0.5784 -0.7318
16867TIP3    H272017   6.119   2.686  15.963  0.4877 -0.2460  0.1944
16868TIP3   OH272018   5.906   5.533  15.711  0.5852  0.6653  0.4175
16868TIP3    H172019   5.999   5.546  15.731  0.3966  0.7877  1.1933
16868TIP3    H272020   5.890   5.590  15.636  1.0968  0.7618  0.3782
16869TIP3   OH272021   3.321   5.113  11.381  0.0475  0.5022 -0.5677
16869TIP3    H172022   3.381   5.121  11.307  0.1392  0.3069 -0.5141
16869TIP3    H272023   3.270   5.194  11.379  0.0139  0.4730 -0.8757
16870TIP3   OH272024   0.522   4.502   5.095 -0.4685  0.8901 -0.4508
16870TIP3    H172025   0.610   4.522   5.062  0.0452 -0.7888 -0.1387
16870TIP3    H272026   0.514   4.554   5.175  1.2260 -0.8221  0.8888
16871TIP3   OH272027   0.464   0.903  16.481 -0.0836  0.5640 -0.3223
16871TIP3    H172028   0.480   0.971  16.546 -0.6675 -0.3798  0.8259
16871TIP3    H272029   0.543   0.903  16.427  0.5212  1.1838  0.5425
16872TIP3   OH272030   0.165   6.488  15.036 -0.0458 -0.6315 -0.3492
16872TIP3    H172031   0.087   6.451  15.078  0.4484 -1.1919  0.0685
16872TIP3    H272032   0.149   6.583  15.037 -0.7111 -0.7379 -0.2471
16873TIP3   OH272033   6.722   6.744  10.642  0.4177 -0.8422 -0.8408
16873TIP3    H172034   6.666   6.817  10.619  0.5814 -0.9311 -1.5132
16873TIP3    H272035   6.672   6.696  10.709 -0.4747 -1.1338 -1.7083
16874TIP3   OH272036   4.536   6.383   2.808  0.0003 -0.6687 -0.8407
16874TIP3    H172037   4.603   6.317   2.796 -0.6306 -1.2992 -0.9180
16874TIP3    H272038   4.456   6.334   2.828 -0.2159  0.1174  0.2738
16875TIP3   OH272039   4.325   1.564   0.489 -0.0732  0.1822  0.8003
16875TIP3    H172040   4.242   1.576   0.536 -0.6657 -0.7023  0.0099
16875TIP3    H272041   4.339   1.469   0.490  0.1430  0.1934 -0.3849
16876TIP3   OH272042   3.247   1.517  12.134 -0.5037  0.1659  0.5838
16876TIP3    H172043   3.157   1.498  12.161 -0.7183 -1.0966 -0.9383
16876TIP3    H272044   3.302   1.471  12.197 -0.9008  1.1784  1.6942
16877TIP3   OH272045   1.230   5.798  12.805 -1.0295  0.1790  0.4708
16877TIP3    H172046   1.228   5.733  12.876 -0.2785 -1.1338 -0.6847
16877TIP3    H272047   1.285   5.869  12.839  1.8963 -1.8067  0.0862
16878TIP3   OH272048   1.059   2.025  11.519 -0.1075  0.1029 -0.9038
16878TIP3    H172049   0.977   2.023  11.470 -1.2928 -1.1354  1.0434
16878TIP3    H272050   1.111   1.953  11.482 -0.8684 -0.6245 -0.5729
16879TIP3   OH272051   2.324   6.614  12.034  0.1699  0.5908 -0.4678
16879TIP3    H172052   2.365   6.529  12.023  0.1319  0.5861 -0.5795
16879TIP3    H272053   2.230   6.595  12.035  0.2249  0.2515  2.8036
16880TIP3   OH272054   0.207   0.164   4.759 -0.9890 -0.0551 -0.3326
16880TIP3    H172055   0.129   0.117   4.729 -1.8461  1.1059  0.0223
16880TIP3    H272056   0.280   0.109   4.734 -1.9991 -1.7826  0.4432
16881TIP3   OH272057   2.172   4.867  14.359 -0.1810 -0.5900  0.1559
16881TIP3    H172058   2.175   4.912  14.275  0.2837 -0.3971  0.2709
16881TIP3    H272059   2.201   4.778  14.341 -0.9200 -0.7934 -0.0409
16882TIP3   OH272060   1.778   5.464  15.560 -0.6052 -0.0720 -0.0811
16882TIP3    H172061   1.746   5.525  15.627  0.8061 -1.1017  1.5521
16882TIP3    H272062   1.772   5.378  15.601 -0.3925 -0.7953 -1.5451
16883TIP3   OH272063   4.623   0.103  13.674 -0.3797  0.0556  0.7453
16883TIP3    H172064   4.562   0.130  13.743 -1.5394 -0.5395 -0.0368
16883TIP3    H272065   4.681   0.040  13.716  0.1233  1.0977  1.6633
16884TIP3   OH272066   6.689   4.206   1.396  0.0930  0.1796  0.1734
16884TIP3    H172067   6.612   4.251   1.431 -0.3832  0.2614 -0.9732
16884TIP3    H272068   6.656   4.154   1.323  1.1986  0.5891 -0.6330
16885TIP3   OH272069   1.239   4.239   3.541 -0.0554 -0.0729 -0.5015
16885TIP3    H172070   1.174   4.259   3.608  0.9574 -0.4331  0.5961
16885TIP3    H272071   1.199   4.169   3.489  0.2095 -1.6123  1.3169
16886TIP3   OH272072   1.461   3.718   4.228 -0.3113  0.6075  0.2457
16886TIP3    H172073   1.499   3.641   4.187  0.1431  0.2034  1.3827
16886TIP3    H272074   1.535   3.761   4.271 -0.7097  1.2045  0.3475
16887TIP3   OH272075   3.667   0.099  14.922  0.2364  0.6005  0.4855
16887TIP3    H172076   3.740   0.037  14.932 -0.2246 -0.0964 -0.3713
16887TIP3    H272077   3.637   0.115  15.011 -0.5445 -1.5340  0.6367
16888TIP3   OH272078   6.100   5.453   1.456 -0.0996 -0.2545  0.2301
16888TIP3    H172079   6.107   5.438   1.362 -0.7747  0.6577  0.0189
16888TIP3    H272080   6.028   5.516   1.465  0.4705  0.2696  1.2921
16889TIP3   OH272081   1.808   1.252   1.510 -0.5535 -0.1894  0.5040
16889TIP3    H172082   1.764   1.316   1.566 -1.3906 -0.9682  0.7464
16889TIP3    H272083   1.890   1.232   1.556 -1.4023 -1.1074  1.6597
16890TIP3   OH272084   0.479   2.470   5.004  0.4468 -0.5456  0.7194
16890TIP3    H172085   0.386   2.453   4.990  0.4619 -0.7828  0.9143
16890TIP3    H272086   0.481   2.538   5.071  0.3228  1.8200 -1.5819
16891TIP3   OH272087   5.178   0.902  10.650 -0.2244  0.8880  0.4670
16891TIP3    H172088   5.252   0.914  10.590  0.2808 -1.2204  0.6016
16891TIP3    H272089   5.218   0.887  10.736 -0.8832  2.0442  0.9800
16892TIP3   OH272090   1.503   0.797  13.812  0.2096  0.1642  0.3318
16892TIP3    H172091   1.489   0.719  13.759  3.5332  0.3128 -0.9079
16892TIP3    H272092   1.502   0.765  13.903  1.6186 -1.3611 -0.1613
16893TIP3   OH272093   5.363   4.922  16.384 -0.8190  0.6073 -0.1179
16893TIP3    H172094   5.316   4.997  16.419 -0.4802  0.2050  1.2288
16893TIP3    H272095   5.444   4.919  16.434 -1.3139 -1.3124  0.6198
16894TIP3   OH272096   5.865   2.323  12.121  0.2815  0.2520  0.8198
16894TIP3    H172097   5.797   2.387  12.142  0.3771  0.5070  0.3630
16894TIP3    H272098   5.817   2.250  12.083  0.3634  0.9246 -0.6203
16895TIP3   OH272099   5.996   4.613  13.085  0.2396 -0.3312 -0.8503
16895TIP3    H172100   6.014   4.526  13.049  0.8169 -0.4705 -0.2180
16895TIP3    H272101   6.024   4.674  13.016  0.1256 -0.6344 -1.1650
16896TIP3   OH272102   0.225   3.476   5.080  0.3719  0.1662 -0.1553
16896TIP3    H172103   0.153   3.537   5.091  0.6692  1.1515 -3.0753
16896TIP3    H272104   0.304   3.527   5.102  0.3572 -0.2527  0.8906
16897TIP3   OH272105   3.784   2.504   6.334 -0.6827 -0.3677 -0.4709
16897TIP3    H172106   3.763   2.424   6.286  0.7659 -2.2297  1.8944
16897TIP3    H272107   3.817   2.473   6.419 -0.2216  2.7426  0.5396
16898TIP3   OH272108   6.637   0.922   2.849  0.2163 -0.7429 -0.3351
16898TIP3    H172109   6.610   0.916   2.757 -0.4155  0.3567 -0.2231
16898TIP3    H272110   6.711   0.983   2.848 -1.0868  0.8929  0.1426
16899TIP3   OH272111   5.741   4.603   1.152 -0.3192 -0.6167  0.0138
16899TIP3    H172112   5.801   4.621   1.225 -1.9724  0.2140  1.2001
16899TIP3    H272113   5.781   4.646   1.077 -0.7146  2.1694  1.3530
16900TIP3   OH272114   1.389   2.106  16.386 -0.5024 -0.3581 -0.3030
16900TIP3    H172115   1.441   2.186  16.394  1.1940 -1.5357  0.7291
16900TIP3    H272116   1.439   2.040  16.433 -2.8073 -1.6092  0.4836
16901TIP3   OH272117   5.944   6.364  13.633 -0.6135  0.6138  0.2170
16901TIP3    H172118   5.992   6.303  13.578  1.7280  0.6642  2.1028
16901TIP3    H272119   5.888   6.412  13.573  0.6861 -0.4414 -1.8815
16902TIP3   OH272120   1.457   2.648   2.216  0.4259  0.3615  0.5440
16902TIP3    H172121   1.447   2.672   2.124  0.1628  1.6374  0.8982
16902TIP3    H272122   1.541   2.688   2.241  1.8802 -2.2989  0.1324
16903TIP3   OH272123   2.356   4.286  16.731  0.0445 -0.2448 -0.7023
16903TIP3    H172124   2.278   4.328  16.697 -0.3417 -0.9424 -0.6661
16903TIP3    H272125   2.424   4.354  16.725 -0.6822  0.5266 -0.2350
16904TIP3   OH272126   1.143   1.716  15.180 -0.2463 -0.3214  0.5256
16904TIP3    H172127   1.228   1.720  15.223 -0.6222  0.1983  1.2263
16904TIP3    H272128   1.106   1.803  15.192 -1.7693 -1.1605  2.0721
16905TIP3   OH272129   4.257   1.142   4.455  0.5854 -0.0133  0.7388
16905TIP3    H172130   4.338   1.118   4.409  0.0245 -0.2708 -0.1218
16905TIP3    H272131   4.257   1.088   4.534  2.2273  1.4071  1.7470
16906TIP3   OH272132   0.508   1.370   4.580 -0.0470 -0.6232  0.0086
16906TIP3    H172133   0.490   1.461   4.556 -0.7544 -0.6979  0.2666
16906TIP3    H272134   0.437   1.320   4.540  0.6704 -1.1339 -0.6457
16907TIP3   OH272135   3.026   4.358  16.416 -0.5162 -0.3957 -0.4027
16907TIP3    H172136   2.955   4.367  16.478 -0.6120 -0.0194 -0.5647
16907TIP3    H272137   3.063   4.446  16.408 -0.3038 -0.5019 -0.6384
16908TIP3   OH272138   0.102   4.221  12.421 -0.2326 -0.3840 -0.4029
16908TIP3    H172139   0.058   4.162  12.482 -1.7030  0.5881 -0.5177
16908TIP3    H272140   0.052   4.214  12.339 -0.4500  1.0602 -0.4027
16909TIP3   OH272141   3.294   5.400   5.945 -0.3227  0.1875 -0.4400
16909TIP3    H172142   3.260   5.335   6.006 -1.7592  0.0492 -1.3502
16909TIP3    H272143   3.319   5.474   6.000  4.7202 -2.3886  1.0260
16910TIP3   OH272144   0.907   6.445  17.204  0.0664  0.2136 -0.3058
16910TIP3    H172145   0.852   6.367  17.202 -1.2723  1.1735 -2.0671
16910TIP3    H272146   0.854   6.513  17.162  1.7787  1.6912 -0.1182
16911TIP3   OH272147   5.660   0.686  15.181 -0.0338  0.0093  0.0879
16911TIP3    H172148   5.731   0.633  15.144 -0.2379 -1.0316  1.1655
16911TIP3    H272149   5.596   0.622  15.212 -0.1306  0.8630  1.7227
16912TIP3   OH272150   2.427   3.956  11.250  0.2685  0.0022 -1.0240
16912TIP3    H172151   2.369   4.032  11.257  0.7270  0.3905 -1.4392
16912TIP3    H272152   2.381   3.887  11.298  0.7512  1.0695  1.0235
16913TIP3   OH272153   1.627   1.253  11.706  0.5751  0.3694  1.1186
16913TIP3    H172154   1.566   1.185  11.677  1.1447  0.1675  0.3656
16913TIP3    H272155   1.711   1.207  11.714  0.5040  0.5187  2.7110
16914TIP3   OH272156   0.680   6.445  15.945 -0.1221 -0.3500  0.1405
16914TIP3    H172157   0.664   6.431  16.038 -1.4925 -0.3993 -0.0828
16914TIP3    H272158   0.602   6.493  15.915  0.2663 -0.4193 -0.9925
16915TIP3   OH272159   0.776   3.595  14.437  0.4117 -0.2906  0.5456
16915TIP3    H172160   0.738   3.653  14.372  3.1077  1.8299  0.7839
16915TIP3    H272161   0.823   3.529  14.386 -0.5098 -0.8016  0.3320
16916TIP3   OH272162   4.410   3.174  11.117  0.0044  0.5940 -0.0284
16916TIP3    H172163   4.317   3.177  11.139  0.0427 -1.8726  0.6714
16916TIP3    H272164   4.415   3.115  11.042  1.0185  0.5602  0.0542
16917TIP3   OH272165   0.102   1.672  14.448 -0.3596 -0.5098  0.2084
16917TIP3    H172166   0.012   1.641  14.433 -0.6701  0.6854 -0.4283
16917TIP3    H272167   0.103   1.698  14.540 -0.2043 -2.0261  0.6530
16918TIP3   OH272168   5.242   2.072  16.641  0.0262 -0.2670  0.6560
16918TIP3    H172169   5.204   2.010  16.579  0.0982 -1.3253  1.6542
16918TIP3    H272170   5.316   2.026  16.679  0.1895  0.4983  1.2780
16919TIP3   OH272171   2.106   4.445   0.624 -0.1702 -0.1274 -0.2456
16919TIP3    H172172   2.060   4.527   0.642 -1.3385 -1.0695  1.2508
16919TIP3    H272173   2.036   4.381   0.611  0.7064 -1.2820  0.5639
16920TIP3   OH272174   1.450   0.677   4.815  0.6005  0.0961 -0.2001
16920TIP3    H172175   1.522   0.711   4.761  1.1786 -1.1409 -0.2101
16920TIP3    H272176   1.454   0.729   4.895  2.0287 -0.5314  0.1464
16921TIP3   OH272177   4.269   5.265   3.253  0.1149  0.2266  0.0517
16921TIP3    H172178   4.211   5.265   3.177  0.2625 -2.4773 -0.1151
16921TIP3    H272179   4.244   5.187   3.303  2.2536  0.1011  1.0128
16922TIP3   OH272180   0.458   0.580  13.635 -0.1130 -0.0643  0.0444
16922TIP3    H172181   0.391   0.645  13.611 -0.5718 -1.8382 -3.7262
16922TIP3    H272182   0.530   0.633  13.669 -2.7625  1.9916  2.8380
16923TIP3   OH272183   5.619   1.995   0.104 -0.0470  0.2183 -0.0645
16923TIP3    H172184   5.579   1.922   0.152 -1.9943  1.5279  0.3812
16923TIP3    H272185   5.585   1.986   0.015 -2.3258  1.9545  0.5635
16924TIP3   OH272186   6.764   2.893  12.115  0.0490  0.2765  0.1902
16924TIP3    H172187   6.770   2.878  12.020 -2.1445  1.2294 -0.1297
16924TIP3    H272188   6.730   2.810  12.150 -3.0178  1.2322 -0.3948
16925TIP3   OH272189   5.984   3.758   0.337 -0.0394  0.4207 -0.1003
16925TIP3    H172190   6.057   3.699   0.358 -1.7424 -1.8608 -0.3906
16925TIP3    H272191   5.932   3.762   0.417  1.2624  3.4202  0.6621
16926TIP3   OH272192   0.825   5.398   4.215  0.5541 -0.0661 -0.1683
16926TIP3    H172193   0.808   5.438   4.130 -0.9753  0.0241  0.1710
16926TIP3    H272194   0.772   5.317   4.214  2.0194 -1.0445 -0.0522
16927TIP3   OH272195   2.195   2.697   1.912 -0.3554  0.1252  0.0408
16927TIP3    H172196   2.136   2.622   1.913  0.4500 -0.5004  2.3446
16927TIP3    H272197   2.137   2.773   1.912 -1.1507 -0.4748  0.3759
16928TIP3   OH272198   2.952   4.971  12.400 -0.0782  0.2810 -0.2251
16928TIP3    H172199   3.024   5.034  12.387 -0.8558  1.1132 -0.5223
16928TIP3    H272200   2.891   5.016  12.459 -0.1184 -0.6260  0.4447
16929TIP3   OH272201   0.862   4.590  13.310  0.6063  0.2033  0.0986
16929TIP3    H172202   0.797   4.521  13.294  0.0579  1.1227 -1.6770
16929TIP3    H272203   0.917   4.590  13.232  2.0724  0.2046  1.1062
16930TIP3   OH272204   3.139   4.467   6.801 -0.2537 -0.0848  0.3789
16930TIP3    H172205   3.174   4.546   6.842 -2.1407  0.1071  1.6842
16930TIP3    H272206   3.075   4.433   6.864 -0.6965 -1.7237 -0.9000
16931TIP3   OH272207   0.687   3.956  12.550  0.6228 -0.0207 -0.3290
16931TIP3    H172208   0.631   3.914  12.485 -1.2706  3.4119 -1.0329
16931TIP3    H272209   0.738   4.020  12.501  1.9955 -0.0810  0.9845
16932TIP3   OH272210   5.415   3.319  16.511  0.2685 -0.3149 -0.7449
16932TIP3    H172211   5.425   3.374  16.589  1.6634  0.2760 -1.3295
16932TIP3    H272212   5.455   3.370  16.440  1.6663 -2.0959 -1.2788
16933TIP3   OH272213   0.603   5.207  12.583 -0.0924  0.0932  0.6351
16933TIP3    H172214   0.669   5.273  12.606  1.9505 -1.3061 -1.1150
16933TIP3    H272215   0.530   5.258  12.547  1.1956  1.4431 -0.1015
16934TIP3   OH272216   6.024   1.142  10.706  0.5496 -0.7108 -0.1585
16934TIP3    H172217   5.964   1.216  10.699  1.3146  0.0081  0.6684
16934TIP3    H272218   5.974   1.074  10.750  0.6915  0.3232  1.6960
16935TIP3   OH272219   0.382   2.931  10.704 -0.4824 -0.4329 -0.2153
16935TIP3    H172220   0.345   2.879  10.633  3.2726  0.4312 -2.9317
16935TIP3    H272221   0.476   2.913  10.700  0.2922  2.8312  1.9037
16936TIP3   OH272222   3.899   0.255  14.708 -0.6314 -0.0286 -0.0246
16936TIP3    H172223   3.916   0.236  14.800  0.9075  0.2280 -0.2416
16936TIP3    H272224   3.910   0.350  14.701 -1.6502  0.0795 -0.3011
16937TIP3   OH272225   4.894   0.296  12.933  0.0193 -0.7780  0.2090
16937TIP3    H172226   4.832   0.352  12.979 -1.0308 -0.7476 -1.2011
16937TIP3    H272227   4.848   0.213  12.920  0.7080 -1.1685  0.2121
16938TIP3   OH272228   6.301   2.214   2.679  0.5812  0.1414  0.0463
16938TIP3    H172229   6.299   2.277   2.752  2.3518 -0.1343  0.3537
16938TIP3    H272230   6.272   2.132   2.718 -0.6349  0.4916 -0.0914
16939TIP3   OH272231   2.922   2.232   4.203 -0.0240  0.1702  0.1685
16939TIP3    H172232   2.979   2.279   4.143 -0.6541  0.6276 -0.0856
16939TIP3    H272233   2.969   2.231   4.286 -0.2565  1.7965  0.3487
16940TIP3   OH272234   2.986   5.499  11.638 -0.0753  0.4081 -0.3257
16940TIP3    H172235   3.005   5.591  11.654  2.6220 -0.5032  2.1243
16940TIP3    H272236   2.915   5.478  11.699 -1.8854  1.2734 -2.1190
16941TIP3   OH272237   2.655   6.124  12.346  0.2125 -0.1981  0.1822
16941TIP3    H172238   2.718   6.106  12.416  1.8662  1.1642 -0.9281
16941TIP3    H272239   2.592   6.184  12.385  1.6820  1.3412  0.2469
16942TIP3   OH272240   4.878   2.013  13.400  0.0636 -0.1798  0.4772
16942TIP3    H172241   4.867   1.934  13.452 -2.2059 -0.2189 -0.0122
16942TIP3    H272242   4.792   2.027  13.359  1.1781  1.0281 -1.5532
16943TIP3   OH272243   1.582   1.220  13.049  0.4736  0.1598  0.1359
16943TIP3    H172244   1.581   1.150  13.115 -0.7780  0.0223 -0.0207
16943TIP3    H272245   1.622   1.294  13.095 -0.7831  0.1998  1.2064
16944TIP3   OH272246   6.285   0.204  14.790  0.2250  0.1153  0.3955
16944TIP3    H172247   6.289   0.295  14.820 -1.5997  0.2731  0.1919
16944TIP3    H272248   6.231   0.207  14.712  1.0449 -1.0074 -0.2283
16945TIP3   OH272249   2.636   1.542  17.164 -0.5054  0.3137 -0.3969
16945TIP3    H172250   2.572   1.486  17.208 -0.8411 -0.5066 -1.9037
16945TIP3    H272251   2.719   1.495  17.174 -0.3877  0.6732  0.3165
16946TIP3   OH272252   5.007   6.749  13.363  0.5538  0.0499 -0.3120
16946TIP3    H172253   4.944   6.792  13.306  0.6271  1.3375  0.5486
16946TIP3    H272254   4.967   6.664  13.384  1.3402 -1.2387 -3.6931
16947TIP3   OH272255   1.965   1.276  14.604 -0.3521 -0.0546  0.2106
16947TIP3    H172256   1.985   1.184  14.618 -2.2425 -0.5561 -0.3259
16947TIP3    H272257   1.959   1.286  14.509 -0.7163  0.4939  0.2850
16948TIP3   OH272258   4.196   4.833  15.257 -0.6093 -0.9434 -0.7453
16948TIP3    H172259   4.135   4.895  15.216 -0.0412 -0.1687 -0.4246
16948TIP3    H272260   4.171   4.748  15.221 -2.2585 -0.7188 -0.1941
16949TIP3   OH272261   3.567   5.041   3.148  0.1060  0.3595  0.3973
16949TIP3    H172262   3.543   5.012   3.236  0.3895  0.5334  0.5341
16949TIP3    H272263   3.550   5.135   3.149 -0.0492  0.3333  0.2110
16950TIP3   OH272264   2.237   2.738  16.224 -0.3910 -0.2349 -0.4850
16950TIP3    H172265   2.287   2.748  16.142 -0.5513  1.9908 -0.3476
16950TIP3    H272266   2.227   2.644  16.234  1.9373 -0.6654 -1.6452
16951TIP3   OH272267   2.061   2.945   1.851  0.0757 -0.9280 -0.1178
16951TIP3    H172268   2.013   2.947   1.768  1.7775 -0.1711 -1.1253
16951TIP3    H272269   2.144   2.988   1.831  0.6300 -0.9942  1.9231
16952TIP3   OH272270   3.132   2.206   1.188 -0.5919 -0.6321  0.2721
16952TIP3    H172271   3.087   2.130   1.225  1.4664 -1.4590  1.1548
16952TIP3    H272272   3.202   2.169   1.135 -0.8226  0.6323 -0.9293
16953TIP3   OH272273   3.231   3.667  15.345 -0.3083  0.7987 -0.1236
16953TIP3    H172274   3.238   3.575  15.322 -1.9551  0.2358  1.5433
16953TIP3    H272275   3.321   3.696  15.358  0.0406 -1.4114  2.5640
16954TIP3   OH272276   6.494   2.707   0.668 -0.0408 -0.0417 -0.5058
16954TIP3    H172277   6.468   2.677   0.580 -1.0907  1.5265 -0.7476
16954TIP3    H272278   6.412   2.711   0.717  0.1976  1.5604 -0.2172
16955TIP3   OH272279   6.034   4.357   0.081  0.0716  0.3190  0.1382
16955TIP3    H172280   6.032   4.404   0.164 -0.4694  0.6068 -0.0395
16955TIP3    H272281   5.943   4.332   0.065  0.3647 -0.9392  0.3169
16956TIP3   OH272282   2.926   2.901  12.890  0.0489 -0.2533 -0.4501
16956TIP3    H172283   2.869   2.901  12.967 -0.3456 -0.6153 -0.7411
16956TIP3    H272284   2.876   2.854  12.823  0.6167 -0.4087 -0.7614
16957TIP3   OH272285   0.767   3.314  12.119 -0.3922  0.2004  0.0806
16957TIP3    H172286   0.798   3.336  12.206  0.4096 -1.5715  0.2617
16957TIP3    H272287   0.799   3.384  12.063  0.5967  0.4147  0.9110
16958TIP3   OH272288   3.588   4.691  13.901 -0.4903  0.0316  0.5059
16958TIP3    H172289   3.568   4.668  13.810  0.6948  0.3329  0.1677
16958TIP3    H272290   3.655   4.629  13.928 -2.8969 -1.9618  2.1442
16959TIP3   OH272291   0.376   4.055   3.878 -0.0120 -0.1063 -0.4095
16959TIP3    H172292   0.323   4.135   3.868 -0.0690 -0.3708 -2.5224
16959TIP3    H272293   0.466   4.087   3.881 -0.0012  0.0290 -1.7507
16960TIP3   OH272294   2.915   4.102   0.759 -0.1551 -0.5593 -0.0631
16960TIP3    H172295   2.876   4.172   0.707  0.1168 -1.9981 -2.2441
16960TIP3    H272296   2.916   4.137   0.848 -1.5127  1.5692 -0.8381
16961TIP3   OH272297   0.727   6.023   5.564 -0.2137  0.1295  0.6476
16961TIP3    H172298   0.722   6.095   5.502 -1.5627 -0.2792  0.2749
16961TIP3    H272299   0.785   6.055   5.633 -1.9920  2.1627  1.2557
16962TIP3   OH272300   0.017   3.448  16.178  0.0410  0.3618 -0.0508
16962TIP3    H172301   0.005   3.416  16.268 -1.9181  0.0302 -0.3967
16962TIP3    H272302   0.091   3.398  16.144 -0.3275 -0.7859  0.8004
16963TIP3   OH272303   5.126   3.045   1.433  0.2476 -0.8633 -0.1256
16963TIP3    H172304   5.171   2.980   1.487 -0.7585 -1.1988  0.3122
16963TIP3    H272305   5.041   3.058   1.476  0.6834  1.2155  0.1490
16964TIP3   OH272306   1.909   1.441   4.890 -0.0337 -0.5138  0.3386
16964TIP3    H172307   1.846   1.493   4.939  1.7839  1.4701  0.6568
16964TIP3    H272308   1.878   1.445   4.799  0.3247  1.5508  0.2834
16965TIP3   OH272309   1.153   3.843  15.233 -0.0611 -0.4087 -0.4112
16965TIP3    H172310   1.138   3.787  15.309 -2.1648 -0.2356 -0.6627
16965TIP3    H272311   1.166   3.782  15.161 -1.6061 -0.6155 -0.5448
16966TIP3   OH272312   6.106   4.521  12.241 -0.2515  0.3516 -0.2057
16966TIP3    H172313   6.079   4.494  12.154  0.8804 -1.2032 -0.0957
16966TIP3    H272314   6.199   4.542  12.233  0.4390 -2.0284  1.0871
16967TIP3   OH272315   1.785   0.431  12.643 -0.3039  0.4760 -0.6221
16967TIP3    H172316   1.755   0.350  12.603  0.1213  0.7684 -1.5661
16967TIP3    H272317   1.880   0.419  12.653 -0.3298  0.6164 -0.2172
16968TIP3   OH272318   1.362   1.559   1.201 -0.0582  0.2511 -0.0582
16968TIP3    H172319   1.295   1.517   1.147 -1.8344  0.1526  2.1530
16968TIP3    H272320   1.433   1.495   1.205 -1.7791 -1.6625  1.3873
16969TIP3   OH272321   5.031   2.328  13.699  0.7290  0.0050 -0.1846
16969TIP3    H172322   5.095   2.303  13.632  0.0214 -3.6211  0.4274
16969TIP3    H272323   5.033   2.257  13.763 -2.5260  0.7572  0.8701
16970TIP3   OH272324   3.034   0.050   2.653  0.0171  0.2292  0.3214
16970TIP3    H172325   3.038  -0.010   2.578  3.3863  0.7651  0.0020
16970TIP3    H272326   3.057  -0.005   2.728 -0.9883  0.2361  0.6449
16971TIP3   OH272327   3.268   0.121  16.514 -0.0445  0.4253  0.6109
16971TIP3    H172328   3.298   0.104  16.603 -0.8074 -0.5919  0.6738
16971TIP3    H272329   3.318   0.198  16.487 -1.2128  1.9493  2.6214
16972TIP3   OH272330   1.256   4.830  13.525  0.7223 -0.2947 -0.1783
16972TIP3    H172331   1.198   4.844  13.450  0.6563  1.6865  0.2285
16972TIP3    H272332   1.337   4.876  13.502  0.7248  0.2686  0.9225
16973TIP3   OH272333   2.305   2.259  11.494 -0.6126 -0.2708 -0.6203
16973TIP3    H172334   2.272   2.300  11.574 -0.9737 -0.5969 -0.6018
16973TIP3    H272335   2.304   2.329  11.429  0.6257  0.2528 -0.0801
16974TIP3   OH272336   2.838   5.714   2.943 -0.6725  0.1165 -0.1805
16974TIP3    H172337   2.760   5.660   2.932 -1.1899  0.3486  2.0890
16974TIP3    H272338   2.908   5.652   2.963 -0.4336 -0.0073 -1.3221
16975TIP3   OH272339   1.837   5.738   3.900  0.0894 -0.1421 -0.1021
16975TIP3    H172340   1.756   5.734   3.951 -0.2558  1.4986 -0.5024
16975TIP3    H272341   1.906   5.755   3.964 -0.2260  0.9982 -0.0543
16976TIP3   OH272342   1.328   3.439  15.401  0.0782  0.3974 -0.2985
16976TIP3    H172343   1.308   3.362  15.347 -0.9801  0.9307 -0.6881
16976TIP3    H272344   1.415   3.467  15.371  1.7602 -2.3221  1.8243
16977TIP3   OH272345   5.524   4.398   1.160  0.6386 -0.2396  0.0705
16977TIP3    H172346   5.613   4.424   1.134  1.2915 -1.0769  1.4257
16977TIP3    H272347   5.470   4.420   1.084  1.9111  0.7932 -0.5604
16978TIP3   OH272348   4.935   1.775  15.455 -0.1766  0.3712 -0.0047
16978TIP3    H172349   4.966   1.688  15.480  0.4523  1.3183  2.6710
16978TIP3    H272350   5.000   1.806  15.392  0.2970 -0.5825 -0.0022
16979TIP3   OH272351   0.880   0.980   2.378  0.1135 -0.0307  0.2565
16979TIP3    H172352   0.934   1.058   2.367 -0.0754  0.3264  1.8215
16979TIP3    H272353   0.802   1.011   2.424 -0.8078 -0.8031 -0.7425
16980TIP3   OH272354   4.441   5.112  14.839  0.7090 -0.6619  0.2601
16980TIP3    H172355   4.406   5.075  14.920  1.8676  0.4590  1.2970
16980TIP3    H272356   4.425   5.206  14.846  0.0327 -0.6442 -1.2260
16981TIP3   OH272357   1.964   4.380  16.821 -0.8794 -0.1242 -0.3504
16981TIP3    H172358   2.016   4.335  16.755 -0.7714  2.5682 -2.1951
16981TIP3    H272359   2.024   4.445  16.858 -1.4272 -0.5045  1.2666
16982TIP3   OH272360   6.620   0.660  12.880  0.3960 -0.5251 -0.2306
16982TIP3    H172361   6.669   0.611  12.946  1.1821  0.3103 -0.1896
16982TIP3    H272362   6.672   0.739  12.865 -0.2489 -0.2718 -1.1737
16983TIP3   OH272363   2.948   4.310  15.956  0.4487 -0.4052 -0.2002
16983TIP3    H172364   2.885   4.373  15.921 -0.2275 -1.0609 -0.1789
16983TIP3    H272365   2.993   4.275  15.879  1.5259  0.8135 -0.1486
16984TIP3   OH272366   4.352   0.568   5.837  0.2085  0.4727 -0.6012
16984TIP3    H172367   4.319   0.597   5.922  1.8744  0.2466  0.1365
16984TIP3    H272368   4.370   0.474   5.849 -0.5147  0.1996 -1.5218
16985TIP3   OH272369   0.356   6.015  15.684  0.1229  0.7251  0.3842
16985TIP3    H172370   0.379   5.923  15.695  1.7141  1.0849  0.1069
16985TIP3    H272371   0.419   6.049  15.621  0.7853  2.4804  1.9637
16986TIP3   OH272372   2.923   6.246   1.849  0.2982 -0.2699  0.3041
16986TIP3    H172373   2.891   6.313   1.789  1.1641  0.3580  0.5382
16986TIP3    H272374   2.995   6.287   1.896 -0.1497 -0.8733  1.5530
16987TIP3   OH272375   3.277   2.116   2.461  0.0855  0.4593  0.0641
16987TIP3    H172376   3.214   2.100   2.391  0.7335 -0.6943 -0.2745
16987TIP3    H272377   3.350   2.161   2.418  0.3327  0.0592  0.0577
16988TIP3   OH272378   4.237   5.914  13.490  0.5305  0.1048 -0.2680
16988TIP3    H172379   4.161   5.970  13.480 -0.1029 -0.3039  1.9747
16988TIP3    H272380   4.310   5.974  13.503  0.2946  0.4641 -0.6066
16989TIP3   OH272381   2.693   1.754  15.013 -0.6905  0.4741 -0.5168
16989TIP3    H172382   2.684   1.790  15.101 -0.6479 -0.5400 -0.0911
16989TIP3    H272383   2.763   1.805  14.973  1.0263 -0.7021  0.9110
16990TIP3   OH272384   4.909   1.553   5.469  0.1389  0.6358  0.3215
16990TIP3    H172385   4.925   1.459   5.457 -3.0722  0.1556 -0.6709
16990TIP3    H272386   4.913   1.589   5.381 -1.2901  0.9424  0.3708
16991TIP3   OH272387   3.284   2.370   6.787  0.1115  0.0514  0.1919
16991TIP3    H172388   3.296   2.408   6.874  0.4442 -2.1142  1.1395
16991TIP3    H272389   3.373   2.355   6.755 -0.0129  0.3709 -0.3081
16992TIP3   OH272390   3.389   6.474   2.291 -0.1229 -0.0259 -0.1176
16992TIP3    H172391   3.366   6.403   2.351  0.7509  0.4531  0.7926
16992TIP3    H272392   3.464   6.516   2.331 -0.4159  1.2067 -0.8323
16993TIP3   OH272393   2.637   2.516   2.206  0.2213 -0.2260 -0.6484
16993TIP3    H172394   2.571   2.451   2.181  1.1408 -0.4572 -2.5581
16993TIP3    H272395   2.615   2.594   2.156  0.0781  0.4363  0.4241
16994TIP3   OH272396   1.853   4.468  15.184 -0.1090 -0.2279  0.1507
16994TIP3    H172397   1.783   4.523  15.219  1.0945  0.1191  2.0650
16994TIP3    H272398   1.858   4.394  15.243  0.6499 -0.6225 -0.4017
16995TIP3   OH272399   3.526   3.881   1.623  0.0084 -0.4898 -0.3658
16995TIP3    H172400   3.451   3.822   1.625  0.3176 -0.8723  0.1241
16995TIP3    H272401   3.502   3.953   1.680  0.0234 -0.6266 -0.1863
16996TIP3   OH272402   0.787   4.679  14.589  0.4589 -0.7079  0.0309
16996TIP3    H172403   0.849   4.607  14.584  0.2455 -0.8173 -1.2862
16996TIP3    H272404   0.786   4.717  14.500 -0.5367 -0.0340  0.3139
16997TIP3   OH272405   1.748   2.001   1.286 -0.1820 -0.5908 -0.0916
16997TIP3    H172406   1.832   2.005   1.331 -0.0510  0.7270 -0.4458
16997TIP3    H272407   1.688   1.965   1.352  0.7629 -2.1014 -0.0260
16998TIP3   OH272408   0.795   2.865  13.268  0.1965 -0.9883  0.3266
16998TIP3    H172409   0.749   2.906  13.194  0.3449  0.8472  1.2314
16998TIP3    H272410   0.816   2.937  13.326  1.7493 -2.1815  1.2874
16999TIP3   OH272411   5.694   1.565   2.062  0.9009  0.3474 -0.1340
16999TIP3    H172412   5.732   1.605   2.141  1.9983  0.1785 -0.5765
16999TIP3    H272413   5.695   1.471   2.080 -0.2025  0.3993  0.2450
17000TIP3   OH272414   3.622   4.581   3.552  0.2910 -1.3806  0.8567
17000TIP3    H172415   3.550   4.638   3.524  0.4117 -1.6565 -0.0246
17000TIP3    H272416   3.578   4.510   3.600 -0.1772 -2.3182 -0.9199
17001TIP3   OH272417   4.487   5.586   3.114 -0.1672  0.3748  0.3197
17001TIP3    H172418   4.554   5.649   3.087 -0.1123  0.0717 -0.2631
17001TIP3    H272419   4.441   5.563   3.033 -2.9032  2.7611  1.1293
17002TIP3   OH272420   6.728   2.483   5.899 -1.1037  0.0578  0.1351
17002TIP3    H172421   6.692   2.520   5.980 -0.2874  0.1711  0.4524
17002TIP3    H272422   6.674   2.520   5.829 -1.9152 -0.1714  0.6384
17003TIP3   OH272423   4.168   5.313   4.270  0.0910 -0.1996 -0.2128
17003TIP3    H172424   4.214   5.288   4.190 -1.2268 -0.1783 -0.9903
17003TIP3    H272425   4.143   5.230   4.310  0.7699 -0.2113  0.2024
17004TIP3   OH272426   0.725   4.596  16.691 -0.1245  0.2172 -0.8615
17004TIP3    H172427   0.770   4.598  16.606 -1.2824 -0.0228 -1.5016
17004TIP3    H272428   0.715   4.688  16.715  0.8407  0.2648 -0.6453
17005TIP3   OH272429   0.880   1.339  11.718 -0.1152  0.3212  0.1403
17005TIP3    H172430   0.839   1.253  11.725  0.0501  0.0536 -1.9381
17005TIP3    H272431   0.954   1.335  11.779 -0.3126 -0.8768  0.3239
17006TIP3   OH272432   2.631   5.007  13.908  0.1300 -0.6440 -0.1563
17006TIP3    H172433   2.682   4.927  13.898 -0.7950 -1.0402 -1.8628
17006TIP3    H272434   2.680   5.073  13.859 -0.4582 -0.7790 -0.9231
17007TIP3   OH272435   0.159   3.878  11.355  0.4520 -0.7516  0.3468
17007TIP3    H172436   0.169   3.892  11.449 -0.1745  0.7413  0.2154
17007TIP3    H272437   0.122   3.961  11.323 -2.5963 -2.4101 -0.6718
17008TIP3   OH272438   4.661   0.395   4.504  0.0325  0.2882  0.0334
17008TIP3    H172439   4.754   0.413   4.497 -0.1534  1.4409  0.3741
17008TIP3    H272440   4.624   0.423   4.420 -0.0107 -0.1739 -0.1044
17009TIP3   OH272441   3.869   5.286  11.899  0.5695 -0.0547 -1.0217
17009TIP3    H172442   3.860   5.252  11.810  0.9503 -2.8488 -0.0331
17009TIP3    H272443   3.953   5.331  11.899 -0.3936  1.8480 -2.6185
17010TIP3   OH272444   3.979   1.661  12.811 -0.2384  0.4581  0.4336
17010TIP3    H172445   3.885   1.667  12.824 -0.3395  0.1795 -0.2080
17010TIP3    H272446   4.005   1.582  12.858 -0.5715 -0.4015 -0.8226
17011TIP3   OH272447   4.597   2.550  13.258  0.7366  0.0392 -0.1180
17011TIP3    H172448   4.569   2.512  13.342 -0.6184 -2.0438 -1.4542
17011TIP3    H272449   4.546   2.631  13.250 -0.9304 -0.9787 -0.0190
17012TIP3   OH272450   5.455   1.603   4.237 -0.2770 -0.0661  0.0487
17012TIP3    H172451   5.427   1.537   4.173  0.2421 -0.2934  0.0529
17012TIP3    H272452   5.462   1.684   4.186  0.9966 -0.4281 -0.3828
17013TIP3   OH272453   2.050   6.301  12.997 -0.0003 -0.0348  0.0515
17013TIP3    H172454   1.959   6.330  13.011 -0.9051 -2.3831 -0.7043
17013TIP3    H272455   2.077   6.343  12.916 -0.7189 -0.0173 -0.1808
17014TIP3   OH272456   5.043   5.860  15.104 -0.1770  0.3728  1.0172
17014TIP3    H172457   5.077   5.790  15.159  1.0482  0.9065  0.9525
17014TIP3    H272458   5.018   5.929  15.166 -1.2567 -0.0571  1.0705
17015TIP3   OH272459   5.836   3.409  12.953  0.4969 -0.0569 -0.3456
17015TIP3    H172460   5.763   3.440  13.006  1.1747 -0.2939  0.7413
17015TIP3    H272461   5.800   3.399  12.865 -0.4094  1.1902 -0.1168
17016TIP3   OH272462   2.596   2.905   1.855 -0.3611  0.0128 -0.4006
17016TIP3    H172463   2.633   2.820   1.830  1.4409  0.9151 -0.8792
17016TIP3    H272464   2.641   2.928   1.936 -0.8871  0.4966 -0.2423
17017TIP3   OH272465   2.978   3.422   3.831 -0.5194 -0.3775 -0.0726
17017TIP3    H172466   2.901   3.369   3.808  0.8577 -2.8858  0.8424
17017TIP3    H272467   2.976   3.426   3.926 -1.1004  2.0724 -0.1588
17018TIP3   OH272468   3.361   0.743   1.693 -0.6029 -0.0381  0.0644
17018TIP3    H172469   3.359   0.731   1.788  2.2191 -0.0184  0.1509
17018TIP3    H272470   3.342   0.657   1.657 -1.3184 -0.1237  0.6284
17019TIP3   OH272471   2.952   2.466   1.559 -0.3478 -0.1344 -0.3989
17019TIP3    H172472   2.900   2.501   1.631 -0.2685 -0.0211 -0.3957
17019TIP3    H272473   2.975   2.377   1.586  0.0686  0.0689 -0.0829
17020TIP3   OH272474   3.328   1.667   3.948 -0.5307 -0.7221 -0.4248
17020TIP3    H172475   3.353   1.711   4.029 -0.6868 -0.0750 -0.7291
17020TIP3    H272476   3.333   1.735   3.881  1.4094 -1.6739 -1.2916
17021TIP3   OH272477   2.497   3.520   2.710  0.1889  0.0578  0.2113
17021TIP3    H172478   2.428   3.460   2.684  1.0439 -0.7895 -0.1671
17021TIP3    H272479   2.459   3.607   2.701 -1.1880 -0.4431  1.1296
17022TIP3   OH272480   1.872   4.529   4.584  0.1843  0.1635 -0.0276
17022TIP3    H172481   1.849   4.578   4.504  3.0862 -1.1887 -1.7580
17022TIP3    H272482   1.951   4.572   4.616 -0.8991  0.6209  2.1300
17023TIP3   OH272483   0.483   2.274   2.041  0.0847 -0.0494 -0.6395
17023TIP3    H172484   0.497   2.209   2.110 -0.7283 -0.5683 -0.9423
17023TIP3    H272485   0.389   2.295   2.048  0.3835  1.2270 -0.4286
17024TIP3   OH272486   4.207   0.431  13.184  0.3634 -0.1846  0.5861
17024TIP3    H172487   4.239   0.347  13.217  0.1371 -1.2114 -1.7381
17024TIP3    H272488   4.139   0.457  13.246  2.0917 -0.5111  2.6716
17025TIP3   OH272489   1.305   5.449   2.937  0.3014 -0.1056 -0.1650
17025TIP3    H172490   1.236   5.383   2.930 -0.3502  0.5288  0.2180
17025TIP3    H272491   1.386   5.402   2.913 -0.1439 -1.0531  0.1681
17026TIP3   OH272492   3.430   3.684   2.610 -0.2886  0.3878 -0.8827
17026TIP3    H172493   3.451   3.714   2.699  0.9698 -0.1397 -0.9998
17026TIP3    H272494   3.514   3.657   2.573 -1.3192 -3.0225 -0.8728
17027TIP3   OH272495   3.613   1.374  16.354  0.1449 -1.0237  0.0800
17027TIP3    H172496   3.588   1.411  16.439 -1.3548 -0.6519 -0.4984
17027TIP3    H272497   3.603   1.447  16.293  2.6249 -0.9050 -0.2056
17028TIP3   OH272498   3.207   2.209  15.504  0.2915  0.1757  0.1775
17028TIP3    H172499   3.204   2.189  15.410 -1.8659  2.1780 -0.2349
17028TIP3    H272500   3.218   2.304  15.507  2.2625 -0.0665  2.0012
17029TIP3   OH272501   5.005   4.076   0.001  0.0671  0.8645 -0.8655
17029TIP3    H172502   4.972   4.149  -0.050  1.0284  1.6584 -0.3653
17029TIP3    H272503   5.100   4.085  -0.003  0.1731  0.2536  0.0791
17030TIP3   OH272504   2.279   0.346   6.550  0.2727  0.2511  0.3975
17030TIP3    H172505   2.300   0.333   6.642 -0.3653 -0.4603  0.4585
17030TIP3    H272506   2.363   0.344   6.505  0.6153  1.0166  1.0150
17031TIP3   OH272507   2.079   4.851  14.611 -0.6694 -0.4582  0.6197
17031TIP3    H172508   2.054   4.758  14.612  0.6472 -0.8376 -0.1563
17031TIP3    H272509   2.096   4.870  14.519 -1.1272  0.6084  0.7577
17032TIP3   OH272510   4.258   3.074   5.415  0.5331 -0.3075  0.1195
17032TIP3    H172511   4.352   3.084   5.402  0.6122 -0.0197  0.8579
17032TIP3    H272512   4.225   3.163   5.430 -0.1722 -0.1761 -2.0280
17033TIP3   OH272513   2.961   2.255   3.243  0.8099  0.4057 -0.1456
17033TIP3    H172514   2.930   2.206   3.319  1.3706 -1.9013 -1.3551
17033TIP3    H272515   2.917   2.214   3.168  1.7015  1.4186 -1.2490
17034TIP3   OH272516   3.218   2.797   0.107  0.2993  0.2866 -0.0355
17034TIP3    H172517   3.137   2.764   0.068  1.7633 -0.5722 -2.4709
17034TIP3    H272518   3.257   2.852   0.038  1.5052  1.1537  1.3149
17035TIP3   OH272519   2.337   6.561  11.634  0.0948  0.1452  0.0631
17035TIP3    H172520   2.270   6.526  11.576  0.2424 -1.3598  0.7519
17035TIP3    H272521   2.292   6.576  11.717  0.5170 -0.5209  0.4201
17036TIP3   OH272522   4.010   1.756  11.585  0.5668 -0.1899 -0.4100
17036TIP3    H172523   3.962   1.827  11.543 -1.1456 -0.9740  0.1899
17036TIP3    H272524   3.953   1.680  11.577  1.6270 -1.1022  0.4869
17037TIP3   OH272525   4.804   1.907  14.223 -0.1147 -0.0183  0.2716
17037TIP3    H172526   4.724   1.959  14.210 -0.2845 -0.2256  0.4790
17037TIP3    H272527   4.824   1.917  14.316  0.1700  0.1284  0.1965
17038TIP3   OH272528   3.262   3.321  13.183 -0.3811 -0.4852 -0.1774
17038TIP3    H172529   3.298   3.361  13.105  0.7508 -1.3182 -0.0925
17038TIP3    H272530   3.248   3.229  13.158  0.8138 -0.9613  0.8555
17039TIP3   OH272531   6.269   5.412   3.943  0.4909  0.2221  0.0125
17039TIP3    H172532   6.295   5.502   3.962 -1.2785  0.3679  1.9906
17039TIP3    H272533   6.289   5.363   4.023  1.3560 -1.1384 -1.0092
17040TIP3   OH272534   1.025   6.421   2.979 -0.1562 -0.1980  0.4804
17040TIP3    H172535   1.010   6.338   2.934  0.4306  0.0158 -0.1171
17040TIP3    H272536   1.116   6.443   2.959 -0.7479  1.3477 -0.6102
17041TIP3   OH272537   1.943   6.254   2.141 -0.2557  0.6148  0.2577
17041TIP3    H172538   1.903   6.173   2.175  0.7082 -0.6024 -1.4142
17041TIP3    H272539   1.891   6.324   2.180 -1.7173 -0.8333  1.0127
17042TIP3   OH272540   5.764   1.329  14.955  0.3329  0.2522 -0.0015
17042TIP3    H172541   5.797   1.239  14.952 -0.2240  0.0626 -0.4509
17042TIP3    H272542   5.824   1.377  14.897  0.6804  0.1884  0.3010
17043TIP3   OH272543   4.922   1.374   1.884  0.0281  0.1048 -0.1824
17043TIP3    H172544   4.890   1.285   1.899 -0.5045  0.2954 -0.1776
17043TIP3    H272545   5.016   1.363   1.865  0.1091 -0.3979  0.4713
17044TIP3   OH272546   2.752   4.986  13.349  0.4233  0.5221 -0.5196
17044TIP3    H172547   2.701   4.953  13.275  1.1960  1.7317 -1.6065
17044TIP3    H272548   2.843   4.983  13.319  0.7503  0.9907  0.4076
17045TIP3   OH272549   6.261   1.855  15.943  0.0728 -0.0842 -0.1420
17045TIP3    H172550   6.238   1.947  15.929  0.6504 -0.1792 -1.8738
17045TIP3    H272551   6.203   1.826  16.014 -0.9998  1.2569 -0.4460
17046TIP3   OH272552   4.066   2.652   3.626 -0.3296 -0.0008 -0.2165
17046TIP3    H172553   4.031   2.563   3.616  0.7162 -0.3887 -0.4936
17046TIP3    H272554   4.018   2.704   3.562 -1.3488 -0.2463  0.3340
17047TIP3   OH272555   4.959   6.385   1.247 -0.5841  0.1923 -0.0244
17047TIP3    H172556   4.962   6.292   1.269  0.9214 -0.2859 -2.1634
17047TIP3    H272557   4.995   6.429   1.325  2.3792 -1.2844 -0.4999
17048TIP3   OH272558   6.590   5.721  11.072 -0.1685  0.3719 -0.4135
17048TIP3    H172559   6.514   5.779  11.068 -0.5115  0.0495  1.0750
17048TIP3    H272560   6.642   5.754  11.144 -1.2489 -2.1793  1.6385
17049TIP3   OH272561   2.098   1.547   3.207 -0.6838 -0.0502  0.5994
17049TIP3    H172562   2.188   1.530   3.233  0.1139 -0.3000 -2.1666
17049TIP3    H272563   2.048   1.475   3.246  0.5718 -0.8840  0.6892
17050TIP3   OH272564   3.394   5.879  17.130  0.0999 -0.2302 -0.4062
17050TIP3    H172565   3.478   5.901  17.089  0.4574 -0.2282  0.3295
17050TIP3    H272566   3.355   5.964  17.150 -0.7618 -0.2003 -2.1125
17051TIP3   OH272567   4.336   0.704  16.034  0.0524  0.6481 -0.4972
17051TIP3    H172568   4.256   0.727  16.082  0.1586  0.4750 -0.2402
17051TIP3    H272569   4.312   0.713  15.941 -0.2138  0.7680 -0.4164
17052TIP3   OH272570   0.925   3.192  15.782  0.5370 -0.5551 -0.2179
17052TIP3    H172571   0.957   3.252  15.715 -2.6201  1.2156 -0.2454
17052TIP3    H272572   0.917   3.108  15.738  3.5229 -0.6760 -0.6021
17053TIP3   OH272573   1.079   0.665  13.415 -0.6934  0.1816  0.2763
17053TIP3    H172574   0.989   0.677  13.382 -0.2231  1.2439 -0.6608
17053TIP3    H272575   1.128   0.635  13.339 -0.0543  0.4889  0.5704
17054TIP3   OH272576   1.840   2.387  13.070 -0.0770 -0.2089  0.0548
17054TIP3    H172577   1.782   2.311  13.064 -0.7954  0.3443 -0.1121
17054TIP3    H272578   1.797   2.453  13.015  0.9357  0.0637 -0.4153
17055TIP3   OH272579   2.888   3.280  16.528 -0.6383 -0.0030 -0.3441
17055TIP3    H172580   2.948   3.290  16.601 -1.0980 -1.9515  0.3284
17055TIP3    H272581   2.819   3.345  16.544  0.1979  0.8116 -0.0227
17056TIP3   OH272582   2.012   5.362   5.321  0.5512 -0.0069  0.2652
17056TIP3    H172583   2.028   5.335   5.231 -0.6498  0.2063 -0.0276
17056TIP3    H272584   2.069   5.307   5.374 -0.4234 -1.7507 -0.4740
17057TIP3   OH272585   2.451   6.096   4.463 -0.6974  0.6243 -0.5303
17057TIP3    H172586   2.507   6.084   4.540  0.3290 -1.5558 -1.5498
17057TIP3    H272587   2.367   6.124   4.498 -0.7286 -1.9040  1.5500
17058TIP3   OH272588   2.581   4.798  10.999 -0.5385 -0.4522  0.6621
17058TIP3    H172589   2.509   4.834  11.051  0.2416  1.5528  0.3971
17058TIP3    H272590   2.658   4.846  11.029  0.1486 -0.2200 -1.4190
17059TIP3   OH272591   2.435   4.605  13.899 -0.1666  0.2223 -0.0991
17059TIP3    H172592   2.496   4.534  13.878  0.4465  1.0872 -1.3237
17059TIP3    H272593   2.440   4.663  13.824 -0.8260  1.4626  0.8037
17060TIP3   OH272594   2.562   1.251   3.144  0.2476 -0.0066 -0.4086
17060TIP3    H172595   2.568   1.236   3.050  0.2030  1.7577 -0.7239
17060TIP3    H272596   2.650   1.279   3.170  1.3261 -4.2272  0.8424
17061TIP3   OH272597   2.839   1.736  13.872  0.5922  0.6365  0.6937
17061TIP3    H172598   2.919   1.743  13.924  0.8510  1.1140  0.2359
17061TIP3    H272599   2.796   1.821  13.883  0.0864  0.3440  1.0308
17062TIP3   OH272600   0.885   3.346   5.753  0.5077 -0.7815 -0.1919
17062TIP3    H172601   0.805   3.296   5.766  0.0470  0.5540  2.4031
17062TIP3    H272602   0.937   3.330   5.832  0.7096  2.0835  0.3229
17063TIP3   OH272603   1.031   4.163  13.448  0.4794 -0.1254 -0.4319
17063TIP3    H172604   0.964   4.196  13.507  1.6368 -0.3222  1.0143
17063TIP3    H272605   1.089   4.237  13.433  0.8741 -0.4140 -0.3438
17064TIP3   OH272606   6.383   1.602   2.916 -0.4895  0.0432 -0.8393
17064TIP3    H172607   6.396   1.586   2.822  1.4493 -0.6379 -0.4770
17064TIP3    H272608   6.362   1.517   2.953 -0.6878  0.2115 -0.5587
17065TIP3   OH272609   4.721   2.921   3.050  0.0144 -0.5133  0.1595
17065TIP3    H172610   4.640   2.873   3.068  0.4732 -2.3714 -2.3335
17065TIP3    H272611   4.789   2.853   3.052  1.0877  0.5279 -0.6602
17066TIP3   OH272612   0.057   6.301   1.428 -0.4973 -0.2962 -0.2051
17066TIP3    H172613   0.117   6.318   1.355 -1.7851 -0.5305 -1.3414
17066TIP3    H272614  -0.007   6.239   1.392 -1.3765 -0.0998  1.0068
17067TIP3   OH272615   3.388   3.257  11.958 -0.8071 -0.3581  0.2473
17067TIP3    H172616   3.475   3.292  11.940 -0.4201 -0.8537  1.0896
17067TIP3    H272617   3.340   3.267  11.876 -0.3977  1.2098  0.1933
17068TIP3   OH272618   5.723   2.765  15.528  0.3455 -0.2712 -0.2289
17068TIP3    H172619   5.712   2.856  15.556  0.5485 -1.0919  2.6327
17068TIP3    H272620   5.712   2.768  15.433  0.1115  2.7027 -0.1538
17069TIP3   OH272621   2.642   1.346   2.383  0.1915  0.2799  0.1046
17069TIP3    H172622   2.663   1.395   2.304  0.1596  0.1385  0.0101
17069TIP3    H272623   2.576   1.283   2.356 -1.1874  1.4698  0.6332
17070TIP3   OH272624   4.559   4.310   1.788 -0.2226 -0.4554  0.2943
17070TIP3    H172625   4.576   4.305   1.694  1.8050 -0.5770  0.6460
17070TIP3    H272626   4.502   4.235   1.806  0.5547 -1.2870 -0.6176
17071TIP3   OH272627   4.435   3.979  16.082 -0.5296  0.0357  0.4338
17071TIP3    H172628   4.401   3.922  16.151  0.9224 -1.1377  0.2057
17071TIP3    H272629   4.400   4.065  16.103 -1.6723 -0.6715  1.5415
17072TIP3   OH272630   5.253   3.488   0.406  0.0058  0.0633 -0.5199
17072TIP3    H172631   5.323   3.552   0.419  0.1747 -0.3356  0.5623
17072TIP3    H272632   5.298   3.409   0.377 -0.2298  0.4921 -2.1486
17073TIP3   OH272633   5.893   2.521   5.637 -0.2246 -0.3721 -0.2872
17073TIP3    H172634   5.934   2.439   5.610 -1.8511 -0.3329 -3.0189
17073TIP3    H272635   5.922   2.534   5.727  2.9913 -2.0814 -1.0077
17074TIP3   OH272636   4.771   0.819   3.025 -0.2646 -0.1091  0.5903
17074TIP3    H172637   4.811   0.790   2.943 -0.6311  1.0404 -0.0078
17074TIP3    H272638   4.832   0.883   3.061 -0.2472 -0.3891  1.0683
17075TIP3   OH272639   3.959   2.678   4.464  0.2687  0.0199 -0.1877
17075TIP3    H172640   3.920   2.758   4.427  1.0803  1.3467  1.7349
17075TIP3    H272641   3.973   2.621   4.388 -1.8743  1.0202 -1.3908
17076TIP3   OH272642   6.140   0.699  13.422 -0.5029  0.5496 -0.1977
17076TIP3    H172643   6.106   0.688  13.511 -0.8548 -0.7104 -0.4849
17076TIP3    H272644   6.234   0.687  13.430 -0.7863 -1.8799 -0.3683
17077TIP3   OH272645   6.599   5.864  17.069 -0.6510 -0.7476  0.4387
17077TIP3    H172646   6.593   5.851  17.163 -2.7588 -1.8404  0.1844
17077TIP3    H272647   6.583   5.958  17.056 -1.7027 -0.8408  1.0652
17078TIP3   OH272648   6.066   2.568   3.815  0.0433 -0.0138 -0.2147
17078TIP3    H172649   6.086   2.597   3.725 -0.7537 -1.6609 -0.9342
17078TIP3    H272650   6.056   2.650   3.864  0.6019  0.9087 -1.5987
17079TIP3   OH272651   4.360   2.157  15.568  0.3620  0.5648  0.0702
17079TIP3    H172652   4.349   2.080  15.625  1.4581  0.6270  0.3770
17079TIP3    H272653   4.455   2.168  15.561  0.2316  0.8351 -1.4028
17080TIP3   OH272654   4.684   4.240   2.015 -0.1706  0.0947 -0.0472
17080TIP3    H172655   4.613   4.202   2.068 -0.0938  2.3337  1.7433
17080TIP3    H272656   4.639   4.281   1.941 -0.7553  1.3938  1.0143
17081TIP3   OH272657   6.519   2.750   5.863 -0.2914 -0.1883 -0.4972
17081TIP3    H172658   6.483   2.667   5.832  1.4510 -1.1621  0.0109
17081TIP3    H272659   6.568   2.785   5.788 -0.1420 -0.1425 -0.3795
17082TIP3   OH272660   1.039   1.920  13.403  0.0474 -0.1539  0.4174
17082TIP3    H172661   1.037   1.942  13.310  0.7027  0.7441  0.6157
17082TIP3    H272662   0.954   1.948  13.437 -0.0864 -0.2356  0.1501
17083TIP3   OH272663   5.648   6.723  15.643  0.6944  0.1795  0.9136
17083TIP3    H172664   5.555   6.701  15.639  0.6575  0.7289 -2.2163
17083TIP3    H272665   5.649   6.818  15.656  0.8244  0.2293  0.5367
17084TIP3   OH272666   1.451   5.412   2.359  0.2213 -0.3264  0.3823
17084TIP3    H172667   1.416   5.418   2.448 -1.1232  4.2318 -0.3258
17084TIP3    H272668   1.543   5.438   2.368  0.5613 -1.6292  0.6919
17085TIP3   OH272669   0.558   2.076   6.451 -0.0877  0.3665 -0.3600
17085TIP3    H172670   0.623   2.014   6.482  0.2376  0.5406 -0.6805
17085TIP3    H272671   0.493   2.023   6.404  0.0821  0.2503 -0.4598
17086TIP3   OH272672   4.368   2.436   0.204  0.3474 -0.3432 -0.1573
17086TIP3    H172673   4.390   2.343   0.210  1.3855  0.0215  2.0211
17086TIP3    H272674   4.402   2.463   0.118  3.0389 -1.2019  0.6103
17087TIP3   OH272675   1.768   4.667  12.904 -0.1410 -0.2578  0.3282
17087TIP3    H172676   1.799   4.749  12.944  1.0728 -0.6230  0.1531
17087TIP3    H272677   1.682   4.689  12.869  0.0268  0.8578  0.5851
17088TIP3   OH272678   2.430   3.596   6.584  0.1883  0.0493  0.8123
17088TIP3    H172679   2.426   3.642   6.500  1.9055  2.2625  1.9161
17088TIP3    H272680   2.482   3.518   6.565  2.3988  1.6106  0.2615
17089TIP3   OH272681   3.585   3.859   4.514 -0.2006  0.7643  0.2331
17089TIP3    H172682   3.645   3.905   4.572  2.0115 -1.2358 -0.3879
17089TIP3    H272683   3.639   3.831   4.440 -1.9827 -0.7024 -0.5623
17090TIP3   OH272684   1.325   5.762  12.213  0.0976  0.2953  0.2432
17090TIP3    H172685   1.417   5.790  12.207  0.6028 -1.2337  0.3745
17090TIP3    H272686   1.292   5.771  12.124  0.3828  0.8205  0.1864
17091TIP3   OH272687   5.125   1.552  11.667  0.0996  0.4915 -0.0870
17091TIP3    H172688   5.105   1.615  11.736 -2.2840  1.8178 -1.9011
17091TIP3    H272689   5.041   1.512  11.647  0.8656 -0.2866 -1.8082
17092TIP3   OH272690   2.856   2.072  15.801 -0.4258 -0.2877  0.1217
17092TIP3    H172691   2.905   1.991  15.787 -1.2764 -1.1397  1.9641
17092TIP3    H272692   2.792   2.050  15.868 -1.2918  1.6672 -0.0383
17093TIP3   OH272693   1.053   3.087   4.849  0.2466  0.1914  0.2223
17093TIP3    H172694   1.011   3.159   4.802 -0.6208 -0.3750  0.1339
17093TIP3    H272695   1.006   3.008   4.821  0.3736 -0.2647  1.2687
17094TIP3   OH272696   3.812   5.251  13.487  0.0369 -0.0074 -0.5917
17094TIP3    H172697   3.905   5.274  13.495 -0.4885  1.6945  0.7039
17094TIP3    H272698   3.808   5.160  13.516  1.0053  0.5019  1.2078
17095TIP3   OH272699   4.986   4.712  16.348 -0.2813 -0.5105  0.3368
17095TIP3    H172700   4.910   4.713  16.288  0.4020  0.7792 -0.5396
17095TIP3    H272701   5.023   4.800  16.340  2.2642 -1.6202 -0.4779
17096TIP3   OH272702   1.816   4.364  13.820 -0.8614 -0.2080 -0.1228
17096TIP3    H172703   1.830   4.374  13.914  1.5179  1.3923 -0.6064
17096TIP3    H272704   1.756   4.435  13.797 -0.4732  0.1571 -0.0170
17097TIP3   OH272705   3.646   1.921   3.267 -0.0892  0.2455  0.2739
17097TIP3    H172706   3.719   1.877   3.309  0.1644  0.2621 -0.1524
17097TIP3    H272707   3.579   1.854   3.258  0.4415 -0.1526 -0.7387
17098TIP3   OH272708   5.139   0.685  11.576 -0.6850 -0.2151  0.2936
17098TIP3    H172709   5.168   0.776  11.572 -1.4548  0.0462  0.4456
17098TIP3    H272710   5.206   0.635  11.529 -0.5652  0.5053 -0.3001
17099TIP3   OH272711   4.033   6.741  13.344 -0.3789 -0.0687 -0.4278
17099TIP3    H172712   4.034   6.677  13.273  1.3573  0.7208 -1.1427
17099TIP3    H272713   3.942   6.743  13.373 -0.5944 -2.3274 -0.8666
17100TIP3   OH272714   0.205   1.374  14.861 -0.1404  0.4264 -0.2875
17100TIP3    H172715   0.274   1.310  14.842  0.1388  0.2258  1.3067
17100TIP3    H272716   0.175   1.351  14.950 -1.2976  1.3731 -0.4209
17101TIP3   OH272717   5.384   4.875  12.008  0.4022 -0.2885  0.1500
17101TIP3    H172718   5.333   4.947  12.047 -1.4061 -1.8069  0.6657
17101TIP3    H272719   5.468   4.915  11.985  0.1178  1.5530  2.1232
17102TIP3   OH272720   2.066   2.554   4.861 -0.0379 -0.5792  0.1866
17102TIP3    H172721   2.028   2.639   4.837  0.0071 -0.6129 -0.0076
17102TIP3    H272722   2.157   2.574   4.882  0.0818 -0.6392 -0.2584
17103TIP3   OH272723   4.986   0.057   2.119 -1.0227  0.8434  0.1384
17103TIP3    H172724   4.892   0.040   2.107 -1.0191  1.6411 -1.0740
17103TIP3    H272725   4.998   0.059   2.214 -2.2522  0.8084  0.3023
17104TIP3   OH272726   0.268   2.535  12.449  0.1341  0.4123  0.0667
17104TIP3    H172727   0.344   2.592  12.460  0.4686 -0.1349  0.6911
17104TIP3    H272728   0.204   2.569  12.511 -0.6606  1.7209 -1.4339
17105TIP3   OH272729   1.762   2.818   2.863  0.7950 -0.4027 -0.0052
17105TIP3    H172730   1.819   2.886   2.899 -1.5546  1.1685  0.8724
17105TIP3    H272731   1.715   2.861   2.792 -0.2572 -1.2955  0.1414
17106TIP3   OH272732   2.655   3.121  15.838 -0.2411 -0.2773  0.4430
17106TIP3    H172733   2.690   3.052  15.894  0.4601  1.1053  1.7634
17106TIP3    H272734   2.563   3.097  15.825 -0.9080  0.2745  3.7198
17107TIP3   OH272735   1.876   3.173   1.280  0.0639 -0.4621  0.2384
17107TIP3    H172736   1.799   3.227   1.260  1.5752  1.7736  0.2450
17107TIP3    H272737   1.876   3.105   1.212 -0.4185  1.1551 -1.4353
17108TIP3   OH272738   6.089   4.053   5.661 -0.0071  0.0468  0.1173
17108TIP3    H172739   5.996   4.040   5.641  0.3237 -2.5855  0.2083
17108TIP3    H272740   6.135   3.995   5.600  1.5313  0.4880  0.8489
17109TIP3   OH272741   4.159   4.516  15.441 -0.0155 -0.8794 -0.3239
17109TIP3    H172742   4.127   4.531  15.530  1.4416 -1.8614  0.3927
17109TIP3    H272743   4.080   4.520  15.386 -0.7191  1.2683  0.7936
17110TIP3   OH272744   0.124   1.730  14.995  0.3704 -0.2399  0.9926
17110TIP3    H172745   0.170   1.684  15.065  0.7254  1.0380  1.6108
17110TIP3    H272746   0.180   1.805  14.973 -0.6832  0.4834  0.7122
17111TIP3   OH272747   3.000   1.912  16.384  0.0807 -0.0582 -0.4724
17111TIP3    H172748   3.002   1.839  16.445 -1.2320 -1.4835 -2.0730
17111TIP3    H272749   3.082   1.959  16.400  1.1719 -2.1552  0.2588
17112TIP3   OH272750   5.600   2.046  16.099  0.5591  0.1225 -0.2525
17112TIP3    H172751   5.606   1.985  16.025 -1.1509  0.7996 -0.9801
17112TIP3    H272752   5.529   2.105  16.075 -0.7375 -0.2959  2.4139
17113TIP3   OH272753   5.611   6.388   2.190  0.7287  0.0283  0.2938
17113TIP3    H172754   5.661   6.309   2.170 -0.8928 -0.4182 -2.0886
17113TIP3    H272755   5.677   6.457   2.196  2.0152 -1.2466  1.0576
17114TIP3   OH272756   3.276   3.428  15.232  0.3677  0.5518 -0.5981
17114TIP3    H172757   3.230   3.345  15.219  2.2604 -0.5237 -0.5824
17114TIP3    H272758   3.362   3.414  15.192  1.3172  1.9143  0.9187
17115TIP3   OH272759   1.213   5.988  13.277  0.0623  0.4732  0.1116
17115TIP3    H172760   1.210   6.072  13.231  1.6541  1.7116  2.1815
17115TIP3    H272761   1.294   5.948  13.248 -0.9810 -0.6769 -1.3305
17116TIP3   OH272762   0.739   1.072  11.548  0.2197  0.1171 -0.9642
17116TIP3    H172763   0.706   1.151  11.506 -0.4784  0.2713 -0.1292
17116TIP3    H272764   0.810   1.043  11.491  0.1546  1.0665 -1.5395
17117TIP3   OH272765   1.308   6.105   3.880  0.0836  0.1029 -0.0454
17117TIP3    H172766   1.390   6.104   3.832 -0.1674 -0.3550 -0.4702
17117TIP3    H272767   1.329   6.067   3.965  0.0067 -1.4017 -0.6741
17118TIP3   OH272768   5.447   3.908   5.928  0.4385  0.0375  0.1924
17118TIP3    H172769   5.409   3.995   5.929  0.8805  0.2380 -0.3104
17118TIP3    H272770   5.499   3.903   6.008 -0.2588 -0.0718  0.6462
17119TIP3   OH272771   5.156   6.400   3.191 -0.9810  0.1129  0.0643
17119TIP3    H172772   5.193   6.362   3.271 -0.9911 -0.2839 -0.1181
17119TIP3    H272773   5.168   6.495   3.202  0.7146 -0.0485 -0.2928
17120TIP3   OH272774   2.304   1.946  15.059 -0.4012  0.2508  0.3271
17120TIP3    H172775   2.268   2.020  15.010 -3.0893 -0.1399  1.6650
17120TIP3    H272776   2.365   1.986  15.121 -0.3754  1.1522 -0.2662
17121TIP3   OH272777   0.834   5.299  14.342 -0.3025 -0.7623 -0.2616
17121TIP3    H172778   0.860   5.214  14.305  3.1309 -0.1256  0.6027
17121TIP3    H272779   0.883   5.306  14.424 -1.3329  1.6301  0.1854
17122TIP3   OH272780   3.638   5.454   0.789  0.2641  0.2415 -0.5960
17122TIP3    H172781   3.651   5.396   0.864  0.1941  0.5175 -0.3682
17122TIP3    H272782   3.547   5.481   0.795  0.1004 -0.1874 -1.1097
17123TIP3   OH272783   5.183   2.171  15.518 -0.0292  0.4633  0.1953
17123TIP3    H172784   5.252   2.194  15.456  0.6761  0.1665  0.8714
17123TIP3    H272785   5.190   2.076  15.528 -2.0400  0.0992 -1.5124
17124TIP3   OH272786   4.041   4.638   2.744  0.6469  0.0416  0.5235
17124TIP3    H172787   3.977   4.570   2.764 -0.0863  0.2246 -1.1360
17124TIP3    H272788   3.990   4.709   2.706  1.6269  0.8316  0.6649
17125TIP3   OH272789   5.653   3.342  11.322 -0.6417  0.7328  0.4463
17125TIP3    H172790   5.736   3.327  11.277 -1.5973 -0.9764 -0.7660
17125TIP3    H272791   5.626   3.429  11.293  0.5637  1.1897  0.6411
17126TIP3   OH272792   3.876   3.941  14.870 -0.0241 -0.3892 -0.0224
17126TIP3    H172793   3.801   3.887  14.893  0.5619 -0.3479  2.1359
17126TIP3    H272794   3.952   3.886  14.892  0.5699 -0.1427 -1.4463
17127TIP3   OH272795   4.259   1.861   2.509  0.3253 -0.1533  0.7778
17127TIP3    H172796   4.311   1.909   2.445 -0.8720  0.2138  0.0675
17127TIP3    H272797   4.250   1.920   2.583 -1.1050  0.7225 -0.0744
17128TIP3   OH272798   6.306   3.562  13.631  0.3589 -0.4331  0.3729
17128TIP3    H172799   6.254   3.533  13.706  2.0925 -1.3576  1.2574
17128TIP3    H272800   6.297   3.657  13.631 -1.4358 -0.5901  0.4166
17129TIP3   OH272801   0.630   2.903   1.040 -0.4476  0.1710  0.1954
17129TIP3    H172802   0.554   2.891   1.096  0.5079 -2.0705  1.0520
17129TIP3    H272803   0.644   2.998   1.038 -1.6892  0.4126  2.1037
17130TIP3   OH272804   1.710   6.674   0.957 -0.5203 -0.4176 -0.2385
17130TIP3    H172805   1.787   6.696   0.905  0.4180 -1.2465  0.7820
17130TIP3    H272806   1.649   6.636   0.894  1.7383 -4.1720 -0.3348
17131TIP3   OH272807   4.007   4.690   1.652  0.8750 -0.2637 -0.3697
17131TIP3    H172808   3.961   4.763   1.692  0.7221 -1.3213  1.4250
17131TIP3    H272809   4.013   4.713   1.559 -2.3126  0.4041 -0.4504
17132TIP3   OH272810   3.883   0.122  10.675 -0.2604 -0.7501  0.3495
17132TIP3    H172811   3.896   0.091  10.765  0.2803  0.3570  0.6640
17132TIP3    H272812   3.954   0.185  10.661 -1.3290  0.3314 -0.2837
17133TIP3   OH272813   3.282   3.255   1.874 -0.6425 -0.0277 -0.1331
17133TIP3    H172814   3.205   3.219   1.830 -0.5450 -1.0585  0.4934
17133TIP3    H272815   3.331   3.177   1.901  0.1389  0.6141  0.2924
17134TIP3   OH272816   5.790   6.220  12.963 -0.2814 -0.2017 -0.5121
17134TIP3    H172817   5.749   6.293  12.917 -1.7445 -0.9226 -0.4053
17134TIP3    H272818   5.877   6.213  12.925 -0.5348  0.8674 -1.3249
17135TIP3   OH272819   0.579   0.238   4.257 -0.1942 -0.3379 -0.9044
17135TIP3    H172820   0.651   0.276   4.206 -1.3065  0.3518 -1.9671
17135TIP3    H272821   0.556   0.306   4.320 -1.4098  0.3356 -2.0479
17136TIP3   OH272822   4.720   0.322  13.566 -0.0444  0.5326  0.4740
17136TIP3    H172823   4.702   0.314  13.472  1.6831  0.8616  0.1025
17136TIP3    H272824   4.672   0.249  13.606 -1.0979  0.6166 -0.6183
17137TIP3   OH272825   5.020   1.784   3.820 -0.1058  0.5913  0.1942
17137TIP3    H172826   4.937   1.828   3.799  0.9407  3.3076  1.5143
17137TIP3    H272827   5.066   1.778   3.736 -0.1114  2.4247  0.0284
17138TIP3   OH272828   1.026   1.298  14.328  0.2561  0.2034 -0.0400
17138TIP3    H172829   1.068   1.344  14.401 -1.3676  0.4172  0.7651
17138TIP3    H272830   0.935   1.327  14.329  0.0543 -0.2744 -1.7630
17139TIP3   OH272831   4.931   4.254  13.764 -0.1353 -0.0435 -0.2179
17139TIP3    H172832   4.999   4.309  13.802  0.9024 -0.2371 -1.7363
17139TIP3    H272833   4.878   4.314  13.712 -0.1993 -0.1486 -0.2747
17140TIP3   OH272834   4.143   4.541  11.428  0.4487  0.0354  0.0276
17140TIP3    H172835   4.100   4.474  11.481  0.0876 -0.0051 -0.3075
17140TIP3    H272836   4.186   4.599  11.491 -1.7307  1.1979  0.4955
17141TIP3   OH272837   5.534   4.162   5.233 -0.8571 -0.1188  0.1728
17141TIP3    H172838   5.590   4.186   5.159 -1.3166  1.4291  0.3063
17141TIP3    H272839   5.486   4.085   5.204  0.2606 -0.5696 -0.4918
17142TIP3   OH272840   3.932   5.528   3.255 -0.1541  0.1631  0.8145
17142TIP3    H172841   4.011   5.580   3.268 -0.0144  0.1816 -0.1178
17142TIP3    H272842   3.959   5.457   3.197 -1.4946  1.7998 -1.9396
17143TIP3   OH272843   1.177   6.246  12.593 -0.9099  0.1692  0.1189
17143TIP3    H172844   1.132   6.184  12.650 -4.2155  2.1342 -0.2616
17143TIP3    H272845   1.187   6.325  12.647  0.1660  0.4886 -0.5274
17144TIP3   OH272846   2.985   2.261  10.809 -0.7244  0.2612  0.7749
17144TIP3    H172847   3.042   2.337  10.799  0.4488 -0.2732  3.1079
17144TIP3    H272848   3.041   2.186  10.789 -1.0188 -0.1766  1.5569
17145TIP3   OH272849   0.572   5.969  15.500  0.2722  0.0296  0.0350
17145TIP3    H172850   0.637   6.039  15.500  0.1338  0.1551 -0.7294
17145TIP3    H272851   0.559   5.947  15.408  0.1654 -0.8645  0.2571
17146TIP3   OH272852   2.812   2.155   2.805 -1.1011  0.6184  1.1541
17146TIP3    H172853   2.853   2.237   2.777 -3.3128  0.9405 -1.3262
17146TIP3    H272854   2.825   2.153   2.900  2.7185  1.7118  0.7381
17147TIP3   OH272855   2.745   2.947  15.161 -0.1450  0.5440  0.1388
17147TIP3    H172856   2.833   2.983  15.156  0.1104 -0.1971 -0.9971
17147TIP3    H272857   2.757   2.859  15.197 -0.5395  0.8328  0.9895
17148TIP3   OH272858   3.734   6.293  12.603 -0.3377 -0.2193  0.1691
17148TIP3    H172859   3.733   6.324  12.513  0.5802 -1.5622 -0.3241
17148TIP3    H272860   3.766   6.203  12.597  0.9657  0.0854  1.9603
17149TIP3   OH272861   0.059   0.460  16.231 -0.3110 -0.4198 -0.9993
17149TIP3    H172862   0.041   0.433  16.141  0.6234  0.8379 -1.5676
17149TIP3    H272863   0.046   0.554  16.232  1.0300 -0.2245 -0.1506
17150TIP3   OH272864   1.556   0.327   4.314 -0.7066  0.5758 -0.3407
17150TIP3    H172865   1.535   0.261   4.380  0.2168  1.2539  0.6451
17150TIP3    H272866   1.471   0.359   4.285 -1.1294  0.1256  0.3769
17151TIP3   OH272867   0.499   0.636   6.174  0.4236 -0.1005 -0.0037
17151TIP3    H172868   0.453   0.592   6.102 -0.6923 -2.2467  1.9474
17151TIP3    H272869   0.573   0.679   6.132  1.2483 -3.3757 -2.0998
17152TIP3   OH272870   5.130   0.909   3.905 -0.9824 -0.7498 -0.0099
17152TIP3    H172871   5.091   0.843   3.847  0.3605 -0.7415 -0.9454
17152TIP3    H272872   5.120   0.873   3.993 -0.7789 -1.9470 -0.4669
17153TIP3   OH272873   6.304   2.545   5.503  0.1015 -0.6055 -0.8819
17153TIP3    H172874   6.244   2.563   5.430  0.1329 -2.1769 -1.3095
17153TIP3    H272875   6.266   2.469   5.546  1.4594 -1.2189 -0.7698
17154TIP3   OH272876   2.216   2.841   1.463 -0.5820  0.4117 -0.6909
17154TIP3    H172877   2.267   2.858   1.542  1.4043 -0.3136 -1.7761
17154TIP3    H272878   2.231   2.749   1.444 -2.7906  0.0173 -0.7359
17155TIP3   OH272879   0.717   2.094  16.030 -0.2293 -0.1297 -0.0051
17155TIP3    H172880   0.695   2.014  15.982 -0.4660  0.1067 -0.2893
17155TIP3    H272881   0.794   2.129  15.985  0.1105 -0.4031  0.3552
17156TIP3   OH272882   3.716   2.808   5.705 -0.2810 -0.0042  0.3827
17156TIP3    H172883   3.736   2.894   5.743 -2.9545  0.3860  1.0001
17156TIP3    H272884   3.774   2.801   5.629  1.7552  1.2494  1.7841
17157TIP3   OH272885   1.405   0.951  12.325 -0.8100 -0.1111 -0.0317
17157TIP3    H172886   1.482   0.902  12.294 -0.0541  0.4442  0.9401
17157TIP3    H272887   1.442   1.021  12.378 -1.9304  1.0018 -0.7075
17158TIP3   OH272888   0.271   4.870  14.235  0.9123  0.0600 -0.2579
17158TIP3    H172889   0.299   4.947  14.284 -1.9964  1.2234 -0.3330
17158TIP3    H272890   0.252   4.903  14.147 -0.6036 -0.6694 -0.2167
17159TIP3   OH272891   6.329   4.248  15.723  0.0929  0.3466  0.3647
17159TIP3    H172892   6.246   4.262  15.677  0.1831  4.2230  1.1737
17159TIP3    H272893   6.395   4.248  15.655 -0.2106  1.4074  0.0572
17160TIP3   OH272894   1.364   1.835  14.817  0.1578 -0.2896  0.3841
17160TIP3    H172895   1.426   1.903  14.790 -1.8436  0.6416 -1.9915
17160TIP3    H272896   1.278   1.872  14.799 -1.0333 -2.7455  0.8186
17161TIP3   OH272897   6.142   2.924  12.415 -0.2692  0.2139 -0.5825
17161TIP3    H172898   6.236   2.940  12.409 -0.2067  0.7430  1.4210
17161TIP3    H272899   6.128   2.845  12.364  1.0784  0.7815 -1.8809
17162TIP3   OH272900   0.388   4.380  16.857  0.0445 -0.2291  0.5613
17162TIP3    H172901   0.387   4.378  16.762  0.8807 -0.2289  0.5420
17162TIP3    H272902   0.296   4.381  16.883 -0.1909  1.7913 -0.2844
17163TIP3   OH272903   5.190   1.525  12.601  0.2680  0.4338  0.2443
17163TIP3    H172904   5.271   1.495  12.643 -0.1685 -1.6043 -0.3375
17163TIP3    H272905   5.132   1.548  12.674  0.8331  0.5075  0.6782
17164TIP3   OH272906   3.486   0.558   3.601 -0.0106  0.0877 -0.1822
17164TIP3    H172907   3.402   0.561   3.555 -0.2360  0.2078  0.2438
17164TIP3    H272908   3.550   0.539   3.532 -0.5310 -1.1759 -0.3295
17165TIP3   OH272909   5.165   0.801  14.385 -0.2977 -0.2201 -0.0232
17165TIP3    H172910   5.106   0.817  14.311 -2.8348 -2.2275  1.4808
17165TIP3    H272911   5.113   0.826  14.461 -0.1544 -4.3687  1.5345
17166TIP3   OH272912   1.087   5.605   6.006 -0.3932  0.2830  0.1347
17166TIP3    H172913   1.084   5.511   6.020  0.0175  0.3324  0.5476
17166TIP3    H272914   1.079   5.616   5.911 -1.2744 -0.1283  0.1601
17167TIP3   OH272915   4.952   2.773   6.741 -0.0260 -0.1691  0.1010
17167TIP3    H172916   4.999   2.694   6.714  0.6557  0.6508 -1.1996
17167TIP3    H272917   5.019   2.827   6.783  0.0356  0.6781 -1.0744
17168TIP3   OH272918   0.998   0.437  16.425  0.2799  0.5310  0.3733
17168TIP3    H172919   1.040   0.472  16.503 -2.2226  3.2343  0.5884
17168TIP3    H272920   0.936   0.504  16.399 -1.0591 -1.6165 -2.2320
17169TIP3   OH272921   2.144   0.624  17.052 -0.3480 -0.0472 -0.0417
17169TIP3    H172922   2.207   0.690  17.082 -1.3462  0.1708  1.6491
17169TIP3    H272923   2.072   0.675  17.015  0.4328 -0.2973 -1.9986
17170TIP3   OH272924   3.403   0.406   1.860  0.2737  0.1039  0.5962
17170TIP3    H172925   3.320   0.453   1.868  0.0126 -0.3885  0.8161
17170TIP3    H272926   3.470   0.474   1.865 -0.1323  0.5504 -0.0371
17171TIP3   OH272927   2.879   0.507  12.343 -0.0970  0.0503 -0.0013
17171TIP3    H172928   2.960   0.555  12.330  0.2228 -0.7736 -1.1618
17171TIP3    H272929   2.820   0.541  12.276 -0.3338 -0.1598  0.0965
17172TIP3   OH272930   0.632   1.667  14.372  0.5064  0.0932 -0.0108
17172TIP3    H172931   0.663   1.603  14.437 -1.8364  0.0788  1.1451
17172TIP3    H272932   0.615   1.614  14.293  0.6211 -0.3722  0.2734
17173TIP3   OH272933   2.716   3.357  15.717  0.4221 -0.0913 -0.8906
17173TIP3    H172934   2.713   3.279  15.772  2.6712  0.3127 -0.1151
17173TIP3    H272935   2.627   3.392  15.719 -0.2594 -1.8234 -0.0622
17174TIP3   OH272936   4.751   2.739   6.068  1.3246  0.5707 -0.0576
17174TIP3    H172937   4.676   2.696   6.107 -0.1460  0.0972 -3.2860
17174TIP3    H272938   4.821   2.673   6.070  0.1479 -0.7546 -1.6449
17175TIP3   OH272939   1.225   3.669  14.936  0.0929 -0.0543 -0.1272
17175TIP3    H172940   1.273   3.596  14.975  0.2836 -0.0153 -0.2882
17175TIP3    H272941   1.149   3.628  14.894 -1.3557  0.1255  2.1966
17176TIP3   OH272942   6.572   0.371  12.725  0.0862  0.0112  0.3833
17176TIP3    H172943   6.622   0.399  12.802  2.3012  0.1806 -1.0476
17176TIP3    H272944   6.536   0.452  12.689 -0.2739  0.0324  0.7950
17177TIP3   OH272945   5.813   6.231   0.754 -0.1621  0.2160 -0.6079
17177TIP3    H172946   5.903   6.252   0.732 -0.0060  0.3779  0.1862
17177TIP3    H272947   5.815   6.138   0.778 -0.3061  0.0789 -1.1052
17178TIP3   OH272948   2.077   3.383   3.647 -0.1773  0.4257  0.0816
17178TIP3    H172949   2.033   3.370   3.731 -1.2636  0.9286 -0.3939
17178TIP3    H272950   2.048   3.470   3.618  0.0654  0.1920 -0.8789
17179TIP3   OH272951   0.914   6.515  15.438 -0.8230  0.1053 -0.2181
17179TIP3    H172952   0.862   6.559  15.371  0.5649  0.8739 -0.8221
17179TIP3    H272953   0.859   6.444  15.470 -2.4408  1.2404 -0.4430
17180TIP3   OH272954   3.276   4.900   1.432 -0.6141 -0.1077  0.1489
17180TIP3    H172955   3.252   4.947   1.353  3.0588 -0.5636 -1.3455
17180TIP3    H272956   3.312   4.968   1.490 -0.4296 -0.2564  0.2076
17181TIP3   OH272957   1.426   2.214  11.031 -1.1172 -0.5773  0.4626
17181TIP3    H172958   1.430   2.286  10.967 -2.3447  1.3343  2.4462
17181TIP3    H272959   1.352   2.161  11.002 -2.3312  0.8639  0.8615
17182TIP3   OH272960   5.116   6.633  12.327  0.0396 -0.3171 -0.6766
17182TIP3    H172961   5.060   6.613  12.403  0.9789 -0.2446  0.0379
17182TIP3    H272962   5.061   6.613  12.251 -1.2916  0.6503  0.0116
17183TIP3   OH272963   1.270   6.401  14.475 -0.3432 -0.5988 -0.3935
17183TIP3    H172964   1.234   6.453  14.546 -0.8416 -0.9306 -0.4034
17183TIP3    H272965   1.362   6.389  14.499 -0.2957  0.0252 -0.2424
17184TIP3   OH272966   6.665   5.987  15.178 -0.4122  0.1688 -0.4368
17184TIP3    H172967   6.720   5.987  15.100  0.5673  1.4349  0.2488
17184TIP3    H272968   6.720   6.024  15.247 -1.9644  1.0594  0.3491
17185TIP3   OH272969   3.639   4.667  12.305 -0.1899 -0.9320  0.3728
17185TIP3    H172970   3.664   4.624  12.223  0.4680 -1.2561  0.7462
17185TIP3    H272971   3.721   4.680  12.352 -0.4257  0.3018  0.4823
17186TIP3   OH272972   3.086   2.730   1.239  0.1727 -0.0261  0.6198
17186TIP3    H172973   3.095   2.643   1.277 -0.5897 -1.1818 -1.7695
17186TIP3    H272974   3.061   2.714   1.148 -1.9878  2.6951  0.6655
17187TIP3   OH272975   3.211   5.702   2.137 -0.1370 -0.3897 -0.6936
17187TIP3    H172976   3.165   5.626   2.172  0.1030 -0.1094  0.2508
17187TIP3    H272977   3.301   5.694   2.171  0.3237 -0.5572 -1.9299
17188TIP3   OH272978   5.231   3.255   6.369 -0.0526  0.2556 -0.5749
17188TIP3    H172979   5.274   3.198   6.305 -1.7100 -1.4695 -0.1869
17188TIP3    H272980   5.139   3.228   6.368  0.1065 -0.8076  3.5174
17189TIP3   OH272981   4.697   3.637  14.431  0.1561  0.2052 -0.0001
17189TIP3    H172982   4.608   3.671  14.444  0.3348  1.1768 -1.2009
17189TIP3    H272983   4.729   3.683  14.353  1.2263 -1.1103 -0.3538
17190TIP3   OH272984   5.362   0.504  15.940 -0.2259  0.4822 -0.0553
17190TIP3    H172985   5.291   0.482  16.000 -0.7071 -0.2742 -0.8882
17190TIP3    H272986   5.331   0.579  15.891 -0.3835  0.2584 -0.3003
17191TIP3   OH272987   5.303   3.914  16.881  0.3038 -0.3481 -0.4335
17191TIP3    H172988   5.391   3.941  16.907  0.2670  0.5490 -1.2235
17191TIP3    H272989   5.261   3.994  16.850 -0.8660 -0.7319  0.1237
17192TIP3   OH272990   5.106   3.436  12.742 -0.0776  0.4531  0.2562
17192TIP3    H172991   5.053   3.357  12.731 -2.2908  1.9983 -0.3202
17192TIP3    H272992   5.175   3.428  12.676 -2.2897  0.6116 -2.1335
17193TIP3   OH272993   4.922   6.256  15.515 -0.4030 -0.4764 -0.3860
17193TIP3    H172994   4.843   6.219  15.476 -0.3980 -2.0788  1.0665
17193TIP3    H272995   4.898   6.272  15.607  1.3698 -2.3036  0.4288
17194TIP3   OH272996   1.371   2.766   1.404  0.2153 -0.8596  0.4087
17194TIP3    H172997   1.462   2.788   1.422  0.1363  0.0356 -0.2566
17194TIP3    H272998   1.366   2.671   1.417  0.8625 -0.6980  2.0236
17195TIP3   OH272999   1.826   0.206  15.211  0.1876  0.1718  0.2912
17195TIP3    H173000   1.851   0.276  15.272 -1.0821  1.0183 -0.1361
17195TIP3    H273001   1.737   0.183  15.236  0.9102 -1.9358  0.9918
17196TIP3   OH273002   4.165   2.421   5.018 -0.0107  0.2876  0.0782
17196TIP3    H173003   4.101   2.436   4.949 -0.3337  0.5942  0.4449
17196TIP3    H273004   4.215   2.345   4.988  1.1705  1.6245 -1.4443
17197TIP3   OH273005   0.533   6.395  10.435 -0.0727  0.4502  0.6309
17197TIP3    H173006   0.452   6.388  10.486 -1.0424 -1.2364 -1.0880
17197TIP3    H273007   0.505   6.425  10.349  0.9847 -1.1637 -0.3019
17198TIP3   OH273008   3.152   1.558  13.145 -0.0638  0.1523  0.1910
17198TIP3    H173009   3.226   1.589  13.093 -1.2141  1.2831 -0.8092
17198TIP3    H273010   3.191   1.498  13.209  1.2298 -2.2840 -2.7890
17199TIP3   OH273011   2.048   2.197  14.582 -0.1150 -0.3258  0.0554
17199TIP3    H173012   2.018   2.271  14.635 -1.8957 -0.4703 -0.7165
17199TIP3    H273013   2.082   2.237  14.502  1.7212 -0.1651  0.9064
17200TIP3   OH273014   3.024   5.541   5.742  0.0184  0.3646  0.1016
17200TIP3    H173015   3.022   5.446   5.728 -0.9515  0.6976 -2.2148
17200TIP3    H273016   3.003   5.552   5.835  0.1044 -1.6800  0.3879
17201TIP3   OH273017   4.788   0.322  14.519 -0.3903  0.0073  0.2650
17201TIP3    H173018   4.883   0.313  14.511 -0.5150  0.3792 -1.9558
17201TIP3    H273019   4.757   0.338  14.429 -2.3736  1.4832  1.1526
17202TIP3   OH273020   1.531   6.081   5.895  0.1070  0.3288  0.7893
17202TIP3    H173021   1.577   6.004   5.861 -1.9353 -0.3012 -0.6508
17202TIP3    H273022   1.515   6.060   5.988  0.9099 -0.3192  0.7871
17203TIP3   OH273023   2.774   2.883   4.247  0.1117 -0.0560 -0.1077
17203TIP3    H173024   2.820   2.956   4.288  0.4669 -0.0145 -0.5746
17203TIP3    H273025   2.844   2.822   4.222 -0.1289 -0.2326 -0.3486
17204TIP3   OH273026   1.796   3.748   2.044 -0.2813  0.4735  0.1953
17204TIP3    H173027   1.711   3.734   2.004  1.0584  0.1684 -2.6407
17204TIP3    H273028   1.832   3.823   1.997  2.0850 -1.0301 -0.4572
17205TIP3   OH273029   1.019   5.357  16.134 -0.1338  0.0414 -0.5246
17205TIP3    H173030   1.014   5.347  16.229 -0.3799 -0.1061 -0.5514
17205TIP3    H273031   0.947   5.302  16.101 -0.2986  0.4108 -0.7770
17206TIP3   OH273032   2.789   6.682   2.543  0.0567  0.0190  0.6411
17206TIP3    H173033   2.711   6.657   2.593  0.5932 -2.6561  0.2169
17206TIP3    H273034   2.808   6.605   2.489  1.6590  1.4963 -0.9439
17207TIP3   OH273035   5.140   3.701   0.193 -0.0482  0.1281  0.1660
17207TIP3    H173036   5.168   3.619   0.233 -1.2034  0.1428  1.0568
17207TIP3    H273037   5.180   3.769   0.248 -2.3632  0.1533  1.9099
17208TIP3   OH273038   4.202   1.506   0.156 -0.2250 -0.3001  0.2653
17208TIP3    H173039   4.207   1.601   0.167 -1.4705 -0.2655  0.6964
17208TIP3    H273040   4.285   1.481   0.115 -0.1886  1.0679 -0.5077
17209TIP3   OH273041   1.188   6.782   1.587  0.0348 -0.3421  0.4501
17209TIP3    H173042   1.153   6.857   1.540  0.6201  0.6798  1.6265
17209TIP3    H273043   1.238   6.733   1.521  0.1207  0.6020 -0.1912
17210TIP3   OH273044   2.431   2.407  15.756  0.5379 -0.0502  0.0696
17210TIP3    H173045   2.377   2.378  15.830  0.1932 -1.1866 -0.6124
17210TIP3    H273046   2.396   2.359  15.681  1.6314  0.2264 -0.6263
17211TIP3   OH273047   6.368   4.906   5.058 -0.7021  0.1909 -0.1986
17211TIP3    H173048   6.314   4.835   5.092  0.0853  0.1242  0.9677
17211TIP3    H273049   6.310   4.983   5.059 -0.3462  0.4886  2.6150
17212TIP3   OH273050   2.226   6.445  13.998 -0.0768 -0.6408  0.0617
17212TIP3    H173051   2.196   6.510  13.934 -0.5919 -0.5106  0.4290
17212TIP3    H273052   2.154   6.439  14.061  0.3477 -0.9124  0.5210
17213TIP3   OH273053   6.208   5.596  13.283  0.4375  0.0314 -0.1821
17213TIP3    H173054   6.120   5.603  13.246  0.5442  0.9225 -0.2678
17213TIP3    H273055   6.235   5.686  13.299  0.5940 -0.3186  1.6167
17214TIP3   OH273056   6.604   0.471   1.508  0.0874 -0.3355 -0.0254
17214TIP3    H173057   6.639   0.522   1.581 -1.1294  1.5013 -0.6819
17214TIP3    H273058   6.675   0.470   1.444  0.1711  0.4069  0.0537
17215TIP3   OH273059   1.414   5.854  11.558 -0.6506 -0.4965  0.5840
17215TIP3    H173060   1.396   5.818  11.645 -0.7818  0.1688  0.8391
17215TIP3    H273061   1.486   5.801  11.524 -0.2161 -0.3904  1.3370
17216TIP3   OH273062   4.792   0.767  12.157 -0.2337 -0.5014 -0.1253
17216TIP3    H173063   4.795   0.821  12.079  2.6524  0.4317  0.5799
17216TIP3    H273064   4.851   0.810  12.219 -2.5216 -1.1621  2.6226
17217TIP3   OH273065   6.730   5.077  10.933 -0.5490 -0.5699 -0.0920
17217TIP3    H173066   6.748   5.114  10.846 -0.2310  0.5501  0.4350
17217TIP3    H273067   6.724   4.983  10.919  1.4998 -0.5764 -0.9923
17218TIP3   OH273068   0.022   6.703  14.448  0.1071  0.1787  0.1914
17218TIP3    H173069   0.014   6.669  14.537  1.8153  1.7122  0.9890
17218TIP3    H273070   0.098   6.658  14.411  0.2439  0.5444  0.0153
17219TIP3   OH273071   1.802   2.057  14.376  0.0445  0.0016 -0.3523
17219TIP3    H173072   1.874   1.994  14.381  0.0790  0.2270  2.3725
17219TIP3    H273073   1.784   2.064  14.282 -0.0164 -4.0872 -0.7339
17220TIP3   OH273074   3.530   0.994  13.463  0.0465 -0.0534  1.0509
17220TIP3    H173075   3.537   0.945  13.544  0.0619 -0.2003  0.9621
17220TIP3    H273076   3.470   1.066  13.483 -0.4031 -0.4172  1.0342
17221TIP3   OH273077   0.232   2.433   5.865 -0.5122  0.8383  0.0535
17221TIP3    H173078   0.290   2.389   5.926 -0.1276  0.9727 -0.2135
17221TIP3    H273079   0.147   2.390   5.877  0.3493 -1.4661 -1.7388
17222TIP3   OH273080   0.997   3.720   5.229 -0.0828 -0.6719 -0.1203
17222TIP3    H173081   1.022   3.775   5.155 -0.1492 -2.1171 -1.2392
17222TIP3    H273082   1.056   3.748   5.300 -0.2956  1.0038 -0.5792
17223TIP3   OH273083   0.177   3.207  12.285 -0.5405 -0.8222 -0.0353
17223TIP3    H173084   0.132   3.223  12.202  0.1931 -1.6561 -0.6065
17223TIP3    H273085   0.259   3.165  12.260 -0.6963 -1.8667  1.1593
17224TIP3   OH273086   2.439   0.549   2.802 -0.3105  0.2649  0.2798
17224TIP3    H173087   2.446   0.642   2.823  0.7261  0.1919  0.2718
17224TIP3    H273088   2.513   0.509   2.848  0.3770 -0.2911 -1.2756
17225TIP3   OH273089   2.934   4.236   2.095 -0.5027  0.3277 -0.8075
17225TIP3    H173090   2.853   4.213   2.139 -0.6465 -0.1353 -1.3045
17225TIP3    H273091   3.000   4.179   2.135 -0.6026  0.0230 -1.0758
17226TIP3   OH273092   0.844   1.926   3.300 -0.4433  0.5896 -0.2462
17226TIP3    H173093   0.780   1.949   3.233 -0.3436  0.0792 -0.5145
17226TIP3    H273094   0.895   2.006   3.312 -2.4152  1.6408  1.4249
17227TIP3   OH273095   2.728   2.355  15.857 -0.2082  0.1529  0.5752
17227TIP3    H173096   2.647   2.306  15.845 -0.2302  0.1369  0.8073
17227TIP3    H273097   2.757   2.334  15.946  0.5486 -0.5919  0.1676
17228TIP3   OH273098   0.570   0.291   4.622 -0.4701 -0.5346 -0.7930
17228TIP3    H173099   0.661   0.297   4.592 -0.4503 -0.5006 -0.7253
17228TIP3    H273100   0.520   0.331   4.551 -0.1123  3.0342  0.8614
17229TIP3   OH273101   2.668   2.232   0.550  0.7913  0.8895 -0.5098
17229TIP3    H173102   2.625   2.317   0.560  1.5857  1.2797 -0.3642
17229TIP3    H273103   2.762   2.251   0.556  0.9369 -0.1949  1.0656
17230TIP3   OH273104   3.477   6.394  15.738  0.7884 -0.8507  0.4319
17230TIP3    H173105   3.484   6.402  15.642  1.4287 -1.0182  0.4628
17230TIP3    H273106   3.385   6.377  15.753  1.0111 -2.9700 -0.3244
17231TIP3   OH273107   6.419   4.090   0.017 -0.1542  0.3768 -0.2345
17231TIP3    H173108   6.352   4.149  -0.018  0.1336  0.8894  0.0707
17231TIP3    H273109   6.466   4.059  -0.060 -1.0642 -0.3950 -0.4969
17232TIP3   OH273110   5.173   2.962  14.167  0.8247  0.4433  0.4215
17232TIP3    H173111   5.252   2.975  14.114  0.5585  0.3079 -0.0094
17232TIP3    H273112   5.204   2.968  14.258  1.0784  1.9262  0.2542
17233TIP3   OH273113   1.119   6.008   0.713 -0.0565 -0.2047 -0.1774
17233TIP3    H173114   1.213   5.991   0.716 -0.2671 -1.9005 -1.9826
17233TIP3    H273115   1.108   6.092   0.758  2.3079  0.0110  0.0547
17234TIP3   OH273116   4.298   3.128  12.049  0.1045  0.0388 -0.0908
17234TIP3    H173117   4.289   3.109  11.956  0.1063  0.1670 -0.1173
17234TIP3    H273118   4.387   3.102  12.070 -0.3423 -1.2739  0.1859
17235TIP3   OH273119   6.462   4.022   2.973  0.3495 -0.1554  0.0442
17235TIP3    H173120   6.557   4.011   2.962  0.6197  0.0891  1.9911
17235TIP3    H273121   6.442   3.980   3.056 -1.0224  1.0006  0.3224
17236TIP3   OH273122   5.998   6.683   3.483 -0.2449  0.7310 -0.1850
17236TIP3    H173123   6.003   6.622   3.556 -0.3004  0.7132 -0.1967
17236TIP3    H273124   5.907   6.712   3.482 -0.6771 -0.5976 -1.3333
17237TIP3   OH273125   6.473   2.646   0.377  0.4964 -0.1847  0.5866
17237TIP3    H173126   6.564   2.664   0.354  0.9029 -1.0362  1.5100
17237TIP3    H273127   6.426   2.654   0.294  1.3354  0.6844  0.1786
17238TIP3   OH273128   4.452   5.942   4.318  0.1474  0.2017 -0.1878
17238TIP3    H173129   4.547   5.932   4.310  0.1651 -1.2380  1.4955
17238TIP3    H273130   4.441   6.011   4.384  0.0303  0.2441 -0.2528
17239TIP3   OH273131   2.808   6.468   3.191  0.4077  0.1489  0.0173
17239TIP3    H173132   2.829   6.391   3.243  1.1823  0.4069  0.0914
17239TIP3    H273133   2.791   6.434   3.103 -0.7860 -0.2724  0.3985
17240TIP3   OH273134   5.640   4.353   2.928 -0.1166 -0.5524  0.7000
17240TIP3    H173135   5.643   4.325   2.837 -2.0020  0.1951  0.3996
17240TIP3    H273136   5.722   4.320   2.966 -0.5774 -3.2111 -0.5621
17241TIP3   OH273137   0.820   2.840  16.409  0.1567 -0.5304 -0.3903
17241TIP3    H173138   0.769   2.889  16.345  1.6823  1.7820  0.1238
17241TIP3    H273139   0.841   2.903  16.478  0.9780 -2.2528  0.9993
17242TIP3   OH273140   5.702   5.582   5.368  0.4693  0.2885 -0.1235
17242TIP3    H173141   5.671   5.505   5.415  1.8952  0.3238  0.9191
17242TIP3    H273142   5.629   5.644   5.372  0.5671  0.3082  2.1067
17243TIP3   OH273143   3.076   1.058  11.303  0.0838 -0.6871  0.0225
17243TIP3    H173144   3.055   1.140  11.259 -0.5702 -2.0126 -2.1706
17243TIP3    H273145   3.004   1.046  11.366 -0.7740 -0.4825 -0.9109
17244TIP3   OH273146   1.075   1.782   4.357 -0.0706  0.2728  0.4979
17244TIP3    H173147   1.117   1.712   4.408  0.0890 -0.1920 -0.2710
17244TIP3    H273148   1.038   1.841   4.424 -0.5601 -0.7524  1.1550
17245TIP3   OH273149   4.808   6.528  12.909  0.3637 -0.2523  0.3644
17245TIP3    H173150   4.805   6.498  12.818  0.9339  0.8752 -0.0381
17245TIP3    H273151   4.802   6.448  12.961  2.6782 -1.1643 -0.7038
17246TIP3   OH273152   3.529   2.273   2.339  0.1335  0.0270 -0.0730
17246TIP3    H173153   3.622   2.254   2.328 -0.0411 -1.1343  0.3274
17246TIP3    H273154   3.501   2.305   2.254  0.7285 -0.3829 -0.4318
17247TIP3   OH273155   4.409   1.318   5.507  0.4172  0.1300  0.2437
17247TIP3    H173156   4.468   1.378   5.553 -0.8126  0.4138  1.4736
17247TIP3    H273157   4.467   1.251   5.471  1.3610 -0.5472  2.8884
17248TIP3   OH273158   3.387   5.171   0.898 -0.0136  0.1196  0.4078
17248TIP3    H173159   3.480   5.155   0.880 -0.3418  0.7784 -1.9873
17248TIP3    H273160   3.363   5.243   0.840 -1.8380  0.4813  1.5751
17249TIP3   OH273161   0.685   0.541   3.503  0.7232  0.2109  0.1698
17249TIP3    H173162   0.671   0.631   3.532  0.4929  0.6017 -1.1282
17249TIP3    H273163   0.766   0.545   3.451  1.6708 -0.6619  1.5346
17250TIP3   OH273164   0.597   3.015  13.040 -0.3818  0.6735  0.3581
17250TIP3    H173165   0.581   2.936  12.989  2.3019  0.0920  0.3596
17250TIP3    H273166   0.531   3.013  13.109 -2.6836  0.3569 -1.7764
17251TIP3   OH273167   4.793   3.130  12.142  0.0811 -0.4993  0.8026
17251TIP3    H173168   4.833   3.087  12.066 -1.5009 -1.3219  0.4096
17251TIP3    H273169   4.827   3.220  12.139  0.5196 -0.6922 -0.5201
17252TIP3   OH273170   6.459   3.262   4.972  0.6317 -0.4711 -0.6165
17252TIP3    H173171   6.445   3.177   4.931  0.4074 -1.0259  0.6090
17252TIP3    H273172   6.536   3.250   5.028  0.6143  0.1343 -0.4545
17253TIP3   OH273173   3.258   1.196  16.360  0.1435 -0.1603 -0.1399
17253TIP3    H173174   3.277   1.290  16.367 -1.5656  0.0279  2.5746
17253TIP3    H273175   3.336   1.159  16.319  0.5598  2.5328 -1.9236
17254TIP3   OH273176   2.066   5.101   4.414 -0.0596 -0.3214  0.2707
17254TIP3    H173177   2.052   5.187   4.454  1.4666 -0.4398  1.1021
17254TIP3    H273178   2.159   5.084   4.427 -0.3565 -2.1112  0.1195
17255TIP3   OH273179   2.197   1.512   0.840 -0.9529  0.5050  0.6146
17255TIP3    H173180   2.198   1.550   0.928 -1.4077 -0.3226  0.9840
17255TIP3    H273181   2.223   1.583   0.782 -1.6937  1.3552  1.3148
17256TIP3   OH273182   4.219   6.637  11.326 -0.3980  0.4652 -0.2988
17256TIP3    H173183   4.237   6.583  11.403 -0.8626 -0.6786 -0.9786
17256TIP3    H273184   4.271   6.715  11.339 -0.0458  0.0408  0.9203
17257TIP3   OH273185   3.482   6.743   0.221  0.8006 -0.3435  0.0183
17257TIP3    H173186   3.495   6.657   0.182  0.0876 -0.9142  0.9886
17257TIP3    H273187   3.531   6.739   0.304  0.2683 -0.0401  0.3501
17258TIP3   OH273188   5.867   0.583  13.637  0.1303  0.6597 -0.1188
17258TIP3    H173189   5.959   0.569  13.660 -0.2334  0.8214  1.5046
17258TIP3    H273190   5.851   0.676  13.654 -0.7256  0.3040  1.1020
17259TIP3   OH273191   1.739   4.816   0.452 -0.5725  0.2603  0.4819
17259TIP3    H173192   1.809   4.815   0.386 -0.8296  1.0259  0.1981
17259TIP3    H273193   1.669   4.763   0.414 -0.9994  1.2847 -0.1653
17260TIP3   OH273194   4.017   2.356  11.741 -0.6554 -0.1406 -1.0369
17260TIP3    H173195   4.026   2.359  11.645 -0.3322  0.1558 -0.9982
17260TIP3    H273196   3.968   2.436  11.763  0.1808  0.3297 -0.8588
17261TIP3   OH273197   5.485   2.961   4.269  0.1488  0.3829 -0.7505
17261TIP3    H173198   5.523   2.971   4.181  3.5439  1.9513  0.8041
17261TIP3    H273199   5.537   2.892   4.310 -0.3290  0.7901  0.5710
17262TIP3   OH273200   0.105   5.352   5.291 -0.1002  0.0707 -0.5091
17262TIP3    H173201   0.017   5.348   5.328  0.7138  3.3500  2.0269
17262TIP3    H273202   0.161   5.308   5.355  0.3337 -0.8409 -1.4866
17263TIP3   OH273203   4.441   5.165   0.564 -0.2554  0.3458  0.6061
17263TIP3    H173204   4.452   5.092   0.503 -1.4396  0.6089  0.0641
17263TIP3    H273205   4.516   5.222   0.548 -0.0689 -0.0585  0.0439
17264TIP3   OH273206   2.537   3.907   3.926  0.1703  0.1717  0.0030
17264TIP3    H173207   2.447   3.934   3.910  0.1490  0.2404  0.2376
17264TIP3    H273208   2.538   3.813   3.906  0.1742  0.2816 -0.5169
17265TIP3   OH273209   3.636   0.251  14.615  0.3087 -0.2358 -0.8998
17265TIP3    H173210   3.729   0.237  14.597  0.5474 -0.3641  0.3663
17265TIP3    H273211   3.617   0.192  14.688 -1.0923 -1.1832 -2.0284
17266TIP3   OH273212   2.282   5.070  13.547  0.0952  0.2736 -0.2142
17266TIP3    H173213   2.205   5.113  13.511  0.8177  1.5413 -0.2965
17266TIP3    H273214   2.316   5.017  13.475 -1.8183 -1.9183  0.4205
17267TIP3   OH273215   5.523   4.589   3.685 -0.2329 -0.3676 -0.1579
17267TIP3    H173216   5.429   4.575   3.683  0.0482 -2.3793 -0.3035
17267TIP3    H273217   5.534   4.683   3.672 -2.2225 -0.0849  0.1478
17268TIP3   OH273218   5.912   6.088  11.700 -0.4169  0.6115 -0.0926
17268TIP3    H173219   5.966   6.157  11.738 -2.2889  1.9184  0.2650
17268TIP3    H273220   5.889   6.121  11.613 -0.6656  0.0695 -0.2350
17269TIP3   OH273221   4.312   3.669  16.036 -0.2838 -0.6102 -0.4747
17269TIP3    H173222   4.295   3.575  16.047 -1.2208 -0.4219 -0.2101
17269TIP3    H273223   4.273   3.690  15.951  0.8249 -0.6589 -1.0037
17270TIP3   OH273224   5.405   0.481  11.338 -0.1895  0.3149  0.4441
17270TIP3    H173225   5.378   0.485  11.246 -1.6510 -0.2463  0.8424
17270TIP3    H273226   5.466   0.408  11.343  0.3290  0.6976 -0.1794
17271TIP3   OH273227   0.961   0.840   2.173  0.1200  0.5726  0.1828
17271TIP3    H173228   0.939   0.867   2.262  1.4577 -0.8309  0.9739
17271TIP3    H273229   0.877   0.823   2.131 -0.4804 -3.3954  2.6957
17272TIP3   OH273230   2.480   4.109  14.031  0.2858  0.4557 -0.0410
17272TIP3    H173231   2.451   4.045  13.965 -0.4717  0.5593  0.1829
17272TIP3    H273232   2.416   4.179  14.025  0.4216  0.6311  0.5612
17273TIP3   OH273233   1.895   0.980   3.397  0.1315  0.7808 -0.0711
17273TIP3    H173234   1.840   1.057   3.387  0.7551  1.1500 -0.6804
17273TIP3    H273235   1.927   0.984   3.487  0.5124  1.4610 -0.2398
17274TIP3   OH273236   4.162   0.314   3.414 -0.5615  0.1174  0.3770
17274TIP3    H173237   4.241   0.339   3.462 -0.9157 -0.5670  1.3198
17274TIP3    H273238   4.150   0.221   3.433 -1.4952  0.1753  0.0884
17275TIP3   OH273239   3.244   5.380  16.631  0.4920 -0.2176  0.5503
17275TIP3    H173240   3.205   5.419  16.709  0.5778 -0.0179  0.4954
17275TIP3    H273241   3.240   5.285  16.647 -2.3777 -0.3237 -0.6061
17276TIP3   OH273242   4.725   1.204  11.696 -0.1611  0.2805  0.5170
17276TIP3    H173243   4.803   1.211  11.641  0.3649  1.7564  1.4239
17276TIP3    H273244   4.744   1.131  11.756 -0.4734 -0.9083 -0.8146
17277TIP3   OH273245   2.352   0.516   1.607 -0.7624  0.1105  0.4202
17277TIP3    H173246   2.373   0.430   1.643 -0.4406 -0.5274 -1.2558
17277TIP3    H273247   2.437   0.558   1.593 -0.7625 -0.5196 -1.6579
17278TIP3   OH273248   2.666   1.511   5.870 -0.3782 -0.4952 -0.0740
17278TIP3    H173249   2.755   1.518   5.837 -0.2914  1.3943  0.5040
17278TIP3    H273250   2.614   1.566   5.812 -0.7958  0.1206  0.8728
17279TIP3   OH273251   3.636   3.321   0.301  0.1952 -0.2505  0.1267
17279TIP3    H173252   3.661   3.399   0.350 -1.3280  0.5139 -0.2651
17279TIP3    H273253   3.608   3.258   0.368 -0.0830  0.1092  0.3475
17280TIP3   OH273254   5.704   5.458   3.002 -0.9081  0.0751 -0.2107
17280TIP3    H173255   5.743   5.399   3.067 -1.5078  0.7726  0.7920
17280TIP3    H273256   5.673   5.400   2.932 -0.9265 -0.7410  0.4720
17281TIP3   OH273257   0.617   5.205   0.938  0.0573 -0.4602  0.0188
17281TIP3    H173258   0.539   5.204   0.882  0.6824  1.6080 -0.9413
17281TIP3    H273259   0.652   5.116   0.933 -1.9829 -1.2877  0.1149
17282TIP3   OH273260   6.567   1.625  14.095  0.3270 -0.1162 -0.0690
17282TIP3    H173261   6.649   1.665  14.125 -0.0014  1.7010 -1.5520
17282TIP3    H273262   6.499   1.674  14.141 -0.0798  1.1825 -2.0061
17283TIP3   OH273263   2.021   5.702   2.741  0.2166 -0.2637 -0.2797
17283TIP3    H173264   2.051   5.654   2.665 -2.8586 -0.9666 -1.1258
17283TIP3    H273265   2.009   5.635   2.809 -1.7746 -0.3924 -0.7276
17284TIP3   OH273266   5.665   0.228   4.035  0.3582  0.7412  0.1008
17284TIP3    H173267   5.751   0.254   4.067  1.0929  0.7908 -1.8704
17284TIP3    H273268   5.680   0.148   3.986 -0.9528 -0.0258  0.9024
17285TIP3   OH273269   2.046   3.660   4.856  0.3511 -0.1841 -0.2950
17285TIP3    H173270   2.000   3.727   4.906  0.1318 -0.2391 -0.4224
17285TIP3    H273271   2.132   3.653   4.898  0.3029  0.0366 -0.1597
17286TIP3   OH273272   5.636   5.462  10.124  0.0555  0.0815  0.1411
17286TIP3    H173273   5.542   5.474  10.138  0.1731  0.5972  0.4807
17286TIP3    H273274   5.660   5.530  10.061  0.8656  2.1901  2.6335
17287TIP3   OH273275   0.691   5.426  15.450  1.0844 -0.2459 -0.1378
17287TIP3    H173276   0.682   5.362  15.379 -2.1753 -2.2010  1.9166
17287TIP3    H273277   0.619   5.487  15.436  0.8119 -0.2759  1.1083
17288TIP3   OH273278   0.512   3.638  17.169  0.1850  0.1782 -0.5204
17288TIP3    H173279   0.423   3.672  17.171 -0.6267 -1.8737 -0.0767
17288TIP3    H273280   0.542   3.651  17.079 -0.9661 -0.1014 -0.9456
17289TIP3   OH273281   1.332   3.966   1.253 -0.0129 -0.7897  0.1807
17289TIP3    H173282   1.294   3.927   1.174 -0.9470  0.8110 -0.1701
17289TIP3    H273283   1.411   4.009   1.223 -0.4487 -0.0496  0.0778
17290TIP3   OH273284   2.108   6.512   0.338 -0.2040 -0.0971 -0.0598
17290TIP3    H173285   2.067   6.453   0.274 -1.1854  1.0945 -0.5328
17290TIP3    H273286   2.171   6.456   0.384 -2.9632 -2.2259  1.3277
17291TIP3   OH273287   4.864   3.402  12.122  0.1223 -0.3864 -0.5880
17291TIP3    H173288   4.949   3.421  12.162  0.5589  0.4230 -1.8388
17291TIP3    H273289   4.884   3.392  12.029 -0.9081 -1.9008 -0.6655
17292TIP3   OH273290   1.618   2.018   3.647 -0.9671  0.5731 -0.0062
17292TIP3    H173291   1.675   1.974   3.711  0.4019  0.8506 -1.0308
17292TIP3    H273292   1.642   2.110   3.653  0.1234  0.4314 -1.8753
17293TIP3   OH273293   3.905   2.904   5.523  0.7606 -0.4257  0.5485
17293TIP3    H173294   3.972   2.889   5.455  0.6555 -3.1333  0.9948
17293TIP3    H273295   3.824   2.914   5.474  0.8781 -1.1368  0.1973
17294TIP3   OH273296   0.186   2.447   5.089  0.1246 -0.1362  0.1116
17294TIP3    H173297   0.095   2.476   5.094  0.0759 -0.1968 -0.3973
17294TIP3    H273298   0.180   2.351   5.093  0.2296 -0.1154  0.9634
17295TIP3   OH273299   4.361   3.587   0.553  0.4356 -0.0788  0.0415
17295TIP3    H173300   4.331   3.642   0.625  0.2605  0.9367 -0.7989
17295TIP3    H273301   4.325   3.500   0.573  0.4760  0.1676  1.2246
17296TIP3   OH273302   5.732   0.138  16.472  0.0428  0.3906 -0.4305
17296TIP3    H173303   5.713   0.125  16.379 -1.1237  2.3466 -0.4750
17296TIP3    H273304   5.746   0.049  16.506 -0.5058 -0.4152 -2.2557
17297TIP3   OH273305   5.439   0.760  13.954 -0.1682  0.2101  0.1018
17297TIP3    H173306   5.381   0.785  13.882 -0.0285  1.8173  0.5448
17297TIP3    H273307   5.385   0.770  14.032  0.4201  0.7936  0.4324
17298TIP3   OH273308   5.623   3.415  13.967 -0.3735  0.2661  0.1227
17298TIP3    H173309   5.651   3.342  14.021  0.7397 -0.1285 -0.9607
17298TIP3    H273310   5.572   3.471  14.026  1.3834  0.1964  1.7566
17299TIP3   OH273311   5.539   3.991  10.577  0.0362 -0.2433  0.0858
17299TIP3    H173312   5.561   4.065  10.634  0.1153  1.0603 -1.6270
17299TIP3    H273313   5.483   3.935  10.632  1.4367  0.1607  1.9825
17300TIP3   OH273314   1.820   1.045   3.677 -0.2280 -0.1669  0.2559
17300TIP3    H173315   1.742   1.071   3.725  0.6733 -0.1763  1.7470
17300TIP3    H273316   1.853   1.127   3.640 -1.7253 -0.3652 -1.6106
17301TIP3   OH273317   6.451   1.291  12.095 -0.0917 -0.1272  0.0606
17301TIP3    H173318   6.359   1.304  12.119  0.1564  0.9381  0.4282
17301TIP3    H273319   6.486   1.379  12.083  0.7461 -0.5405 -0.6226
17302TIP3   OH273320   5.171   1.343   5.710  0.2028 -0.2719 -0.1696
17302TIP3    H173321   5.163   1.305   5.797 -0.6781 -2.2881 -1.0752
17302TIP3    H273322   5.265   1.351   5.695  0.3447  1.1953  1.4048
17303TIP3   OH273323   6.611   6.308   4.964 -0.2000 -0.2114 -0.0216
17303TIP3    H173324   6.525   6.313   5.005 -0.1719 -0.7751  0.1114
17303TIP3    H273325   6.618   6.217   4.934  0.3451 -0.1677 -0.0321
17304TIP3   OH273326   4.746   1.798  14.934 -0.1808 -0.1972 -0.1072
17304TIP3    H173327   4.833   1.815  14.972  0.1446 -1.5095 -0.2109
17304TIP3    H273328   4.700   1.750  15.003 -0.3840 -0.5999 -0.5280
17305TIP3   OH273329   0.097   4.180   5.524  0.5642  0.2505  0.4024
17305TIP3    H173330   0.169   4.130   5.486  1.4906  0.8753  1.3328
17305TIP3    H273331   0.075   4.245   5.457  1.7912  0.9585  0.6811
17306TIP3   OH273332   1.172   2.344   1.397  0.7525  0.0185  0.2093
17306TIP3    H173333   1.150   2.354   1.490  0.9656 -0.4901  0.3172
17306TIP3    H273334   1.251   2.396   1.386  1.0982 -0.4427  0.4646
17307TIP3   OH273335   0.412   5.043   5.059 -0.6239  0.3131  0.3489
17307TIP3    H173336   0.357   4.994   4.999  1.0900 -0.4046 -0.6557
17307TIP3    H273337   0.501   5.032   5.026  0.2596  0.6007  2.5270
17308TIP3   OH273338   1.893   6.672   0.483  0.0974  0.1815  0.7418
17308TIP3    H173339   1.967   6.663   0.423 -0.5307  0.4801 -0.0796
17308TIP3    H273340   1.929   6.719   0.558  0.3923  1.6440 -0.2985
17309TIP3   OH273341   1.399   5.399   5.866  0.7071  0.0126  0.6776
17309TIP3    H173342   1.384   5.439   5.781  0.8594 -1.6344 -0.1533
17309TIP3    H273343   1.385   5.469   5.929  0.4320  1.2083 -0.6951
17310TIP3   OH273344   3.585   0.948   0.052  1.1588  0.6208  0.1577
17310TIP3    H173345   3.499   0.911   0.072  1.3001  0.9519  1.4308
17310TIP3    H273346   3.624   0.966   0.137  2.3571  0.7961 -0.4163
17311TIP3   OH273347   4.505   3.284  16.742  0.2158  0.1019 -0.2785
17311TIP3    H173348   4.590   3.270  16.701 -0.0203  0.5206 -0.9202
17311TIP3    H273349   4.517   3.257  16.833  0.5504 -1.5339 -0.7881
17312TIP3   OH273350   3.729   6.333  11.046  0.6497 -0.3905  0.2779
17312TIP3    H173351   3.824   6.324  11.048  0.6858  0.1593  1.7511
17312TIP3    H273352   3.712   6.426  11.065 -0.1471 -0.2619 -1.0044
17313TIP3   OH273353   5.531   2.862   3.633 -0.3258  0.6661 -0.4959
17313TIP3    H173354   5.456   2.817   3.595 -1.1551 -0.2340  2.0916
17313TIP3    H273355   5.528   2.949   3.594 -2.5353  0.5346 -0.7160
17314TIP3   OH273356   2.570   3.776  11.076 -0.2501 -0.1537  0.0740
17314TIP3    H173357   2.524   3.747  10.997  0.7477 -0.5134 -0.3763
17314TIP3    H273358   2.518   3.850  11.108 -1.4263 -0.8640 -0.1512
17315TIP3   OH273359   4.750   6.220   4.354  0.2767  0.2423 -0.7018
17315TIP3    H173360   4.845   6.214   4.344  0.3996  0.7808  0.1178
17315TIP3    H273361   4.722   6.130   4.369  0.7957  0.2128  0.1607
17316TIP3   OH273362   1.481   2.396  14.246  0.4011  0.6320  0.1507
17316TIP3    H173363   1.418   2.361  14.309  2.2183 -2.6905  0.2187
17316TIP3    H273364   1.525   2.467  14.294 -0.9391  0.7564  1.2437
17317TIP3   OH273365   0.533   0.255  17.176 -0.3467  0.2224 -0.3369
17317TIP3    H173366   0.493   0.338  17.204 -1.0531  0.0943 -0.9376
17317TIP3    H273367   0.626   0.275  17.169 -0.6426  1.2754 -1.5300
17318TIP3   OH273368   4.310   1.079  15.974  0.1628  0.1188  0.0121
17318TIP3    H173369   4.279   1.012  15.913  1.1171 -0.0968 -0.2548
17318TIP3    H273370   4.402   1.093  15.949  0.5741  0.0186  1.4130
17319TIP3   OH273371   4.540   1.375  15.704 -1.1868  0.5856  0.1454
17319TIP3    H173372   4.523   1.286  15.674  0.8312 -0.1179  0.9722
17319TIP3    H273373   4.454   1.415  15.712 -2.1206 -1.3148 -0.1674
17320TIP3   OH273374   5.733   4.065  13.967 -0.1430 -0.6564 -0.2535
17320TIP3    H173375   5.796   4.020  13.909 -0.1407 -1.8496  0.6493
17320TIP3    H273376   5.772   4.058  14.054 -1.0963 -0.6155  0.1774
17321TIP3   OH273377   0.924   1.426  16.125 -0.4740 -0.2595  0.1208
17321TIP3    H173378   1.018   1.426  16.145 -0.7812  0.5942  1.6582
17321TIP3    H273379   0.884   1.385  16.201 -1.3537 -0.6215 -0.5362
17322TIP3   OH273380   4.695   3.199   1.341 -0.1461  0.8737 -0.3762
17322TIP3    H173381   4.753   3.130   1.374  1.1449  2.3103  0.3772
17322TIP3    H273382   4.683   3.258   1.415 -0.8361  1.7437 -1.1759
17323TIP3   OH273383   0.385   6.191   3.370  0.4467 -0.2947  0.1250
17323TIP3    H173384   0.444   6.266   3.383 -1.2182  1.3345 -1.5236
17323TIP3    H273385   0.385   6.176   3.276 -1.3654 -0.6024  0.1605
17324TIP3   OH273386   3.655   5.114   1.259  0.3859  0.1954 -0.4067
17324TIP3    H173387   3.569   5.091   1.224  1.1752  0.2582 -2.4256
17324TIP3    H273388   3.641   5.195   1.307 -0.6625  0.2558 -0.8098
17325TIP3   OH273389   5.445   4.663  13.610  0.1686 -0.2972  0.5810
17325TIP3    H173390   5.472   4.599  13.544 -0.5940  0.6082 -0.6318
17325TIP3    H273391   5.496   4.741  13.589 -1.8129  0.7599 -0.4445
17326TIP3   OH273392   0.139   6.349   4.119 -0.5726  0.3959 -0.5456
17326TIP3    H173393   0.119   6.374   4.209 -2.4415  0.3338 -0.9268
17326TIP3    H273394   0.204   6.413   4.090 -1.2117  1.4368  0.2943
17327TIP3   OH273395   0.802   4.716   1.753 -0.0712 -0.2527  0.2134
17327TIP3    H173396   0.777   4.804   1.779 -3.7754 -1.7020  1.9814
17327TIP3    H273397   0.880   4.697   1.805 -1.1173  0.8607  2.2731
17328TIP3   OH273398   3.834   5.818   5.161  0.1699 -0.5421  0.4143
17328TIP3    H173399   3.801   5.729   5.167  1.3943 -1.0889 -0.7291
17328TIP3    H273400   3.758   5.869   5.133 -1.4867 -0.5529  4.4812
17329TIP3   OH273401   4.678   1.247   1.713 -0.3062  0.7487  0.5240
17329TIP3    H173402   4.729   1.172   1.744 -0.3377  0.3989 -0.2474
17329TIP3    H273403   4.608   1.209   1.659  0.3650  1.3687 -0.8343
17330TIP3   OH273404   6.369   0.540   2.640  0.5216  0.1753 -0.4426
17330TIP3    H173405   6.460   0.562   2.656  0.5784  0.0587 -0.6116
17330TIP3    H273406   6.371   0.476   2.569  0.3770 -0.6962  0.3349
17331TIP3   OH273407   6.308   6.477   3.486  0.3986 -0.1234  0.0608
17331TIP3    H173408   6.313   6.561   3.441  0.9048 -0.5321 -0.6584
17331TIP3    H273409   6.215   6.464   3.504  0.0536 -0.4982 -1.9068
17332TIP3   OH273410   6.766   6.661   3.921 -0.3060 -0.3398  0.1964
17332TIP3    H173411   6.723   6.674   4.006  2.2143  0.0042  1.4591
17332TIP3    H273412   6.760   6.567   3.906 -0.9712 -0.3742  0.6464
17333TIP3   OH273413   1.462   5.678  14.594  0.8046  0.2629 -0.7228
17333TIP3    H173414   1.431   5.732  14.521  2.1491  1.2494 -0.5770
17333TIP3    H273415   1.557   5.684  14.590  0.9375 -1.0397  0.1084
17334TIP3   OH273416   1.564   1.275   2.363  0.5939  0.7730 -0.0584
17334TIP3    H173417   1.640   1.329   2.382  0.3920  0.9104  0.3507
17334TIP3    H273418   1.574   1.251   2.271  1.4756  0.2496  0.1691
17335TIP3   OH273419   2.807   3.363  17.103  0.1272 -0.6539 -0.3271
17335TIP3    H173420   2.783   3.357  17.196 -1.5092  0.7291 -0.6415
17335TIP3    H273421   2.876   3.429  17.102  0.5240 -1.0586 -0.0341
17336TIP3   OH273422   1.208   0.473  16.024 -0.4305 -0.7345  0.2433
17336TIP3    H173423   1.118   0.495  16.048 -0.8643 -0.5691 -1.4726
17336TIP3    H273424   1.205   0.382  15.996  0.3363 -1.3523  2.1139
17337TIP3   OH273425   1.566   2.133  17.189 -0.0528 -0.1656 -0.1810
17337TIP3    H173426   1.606   2.087  17.262  0.8040 -0.7073 -0.9902
17337TIP3    H273427   1.638   2.152  17.129 -0.3360  2.4572  0.2371
17338TIP3   OH273428   0.229   6.374  14.797 -0.4342  0.1249 -0.0808
17338TIP3    H173429   0.201   6.432  14.868 -0.3845 -1.8704  1.5891
17338TIP3    H273430   0.324   6.376  14.801 -0.4418 -2.2859  1.8293
17339TIP3   OH273431   1.135   4.664  14.663 -0.5788  0.6133  0.0547
17339TIP3    H173432   1.067   4.596  14.667 -0.4283  0.4911  0.4864
17339TIP3    H273433   1.166   4.673  14.753 -1.0973  1.7756  0.1262
17340TIP3   OH273434   1.855   0.585  16.295 -0.1525 -0.0525 -0.5863
17340TIP3    H173435   1.808   0.502  16.298  0.3833 -0.3376 -0.1228
17340TIP3    H273436   1.786   0.651  16.292 -0.5793 -0.5325 -1.5266
17341TIP3   OH273437   5.075   2.664  14.329 -0.2028 -0.0138 -0.3366
17341TIP3    H173438   5.152   2.715  14.306  0.8102 -0.7707  1.2297
17341TIP3    H273439   5.007   2.728  14.347  0.4668  0.7050 -0.3685
17342TIP3   OH273440   2.373   0.021  16.867  0.1490  0.1545  0.2066
17342TIP3    H173441   2.345   0.108  16.896 -1.9083 -0.2981 -0.3176
17342TIP3    H273442   2.466   0.017  16.889  0.2569  2.4504  0.3177
17343TIP3   OH273443   6.784   0.061   3.621  0.4644 -0.2991 -0.1198
17343TIP3    H173444   6.880   0.055   3.622  0.4815 -0.6612 -1.9256
17343TIP3    H273445   6.766   0.154   3.628  0.9095 -0.3038  1.3100
17344TIP3   OH273446   0.184   3.687   4.439 -0.4033 -0.4073  0.4147
17344TIP3    H173447   0.265   3.660   4.481 -0.5368 -0.9775  0.3055
17344TIP3    H273448   0.186   3.646   4.353  0.5515  1.9448 -0.7086
17345TIP3   OH273449   4.369   2.806  15.707 -0.3151  0.0618 -0.3463
17345TIP3    H173450   4.297   2.863  15.733 -0.5039  0.1380 -1.0293
17345TIP3    H273451   4.388   2.755  15.786 -1.4838 -0.3482 -0.3088
17346TIP3   OH273452   1.203   0.452  11.435 -0.1224 -0.4107 -0.0138
17346TIP3    H173453   1.283   0.414  11.400 -0.4154 -1.2162  0.1736
17346TIP3    H273454   1.222   0.546  11.444  0.7138 -0.5620 -0.1822
17347TIP3   OH273455   5.296   6.040  15.638  0.4883  0.1894 -0.0471
17347TIP3    H173456   5.354   6.033  15.713 -0.6873 -1.5965  0.7249
17347TIP3    H273457   5.254   6.126  15.647  0.4723  0.0447  1.2343
17348TIP3   OH273458   5.478   2.272   2.790  0.7649  0.1735  0.6582
17348TIP3    H173459   5.434   2.280   2.705  0.6711 -0.9660  0.5910
17348TIP3    H273460   5.424   2.323   2.850  0.3250  0.2276  0.2164
17349TIP3   OH273461   4.744   1.418  10.586 -0.3056 -0.4615 -0.5555
17349TIP3    H173462   4.824   1.469  10.577  0.1909 -1.0245  0.5795
17349TIP3    H273463   4.693   1.465  10.652  1.1091 -2.5573  2.1513
17350TIP3   OH273464   6.390   1.833  14.156  0.1982  0.3681 -0.6332
17350TIP3    H173465   6.361   1.924  14.145 -0.3008  0.3790  0.7052
17350TIP3    H273466   6.352   1.806  14.239  0.2036 -1.1318 -1.1051
17351TIP3   OH273467   4.928   5.878   3.131 -0.2005  0.3394 -0.1450
17351TIP3    H173468   4.921   5.783   3.146 -0.8882  0.2783 -0.7983
17351TIP3    H273469   4.999   5.906   3.188 -0.3146 -0.4948  0.4204
17352TIP3   OH273470   2.432   0.263  14.568  0.3151  0.4268 -0.5388
17352TIP3    H173471   2.342   0.242  14.543  0.1404 -0.6507  0.8768
17352TIP3    H273472   2.427   0.352  14.603 -0.8537 -0.7511  2.4816
17353TIP3   OH273473   6.432   3.867   0.670  0.0675  0.1716  0.2637
17353TIP3    H173474   6.425   3.773   0.652  1.5493  0.2863 -1.0075
17353TIP3    H273475   6.524   3.882   0.689  0.1341  1.6012 -1.0128
17354TIP3   OH273476   0.038   0.210   4.095  0.2191  0.8081  0.9381
17354TIP3    H173477   0.133   0.196   4.090  0.4516  2.3942  0.6049
17354TIP3    H273478   0.026   0.302   4.074 -1.3794  0.7184  1.3606
17355TIP3   OH273479   0.651   3.410  16.330 -0.1394 -0.2215  0.9218
17355TIP3    H173480   0.735   3.402  16.285  0.5923  1.3661  1.9540
17355TIP3    H273481   0.586   3.411  16.260  0.8276  0.2376  0.0145
17356TIP3   OH273482   2.718   5.744  13.496 -0.5556 -0.2535  0.1155
17356TIP3    H173483   2.735   5.706  13.582 -1.8166 -1.3176 -0.0952
17356TIP3    H273484   2.791   5.805  13.482 -0.2559 -0.1985  1.8501
17357TIP3   OH273485   5.636   1.221   6.214  0.2823 -0.1766 -0.0600
17357TIP3    H173486   5.673   1.220   6.302 -0.4332 -2.0723  0.2376
17357TIP3    H273487   5.564   1.283   6.219 -0.2612 -0.8622  0.9230
17358TIP3   OH273488   3.690   3.074   4.098 -0.0926  0.5755  0.2967
17358TIP3    H173489   3.665   3.017   4.025  0.9824 -2.6805  2.3565
17358TIP3    H273490   3.776   3.108   4.073  0.3653 -0.6874  0.1452
17359TIP3   OH273491   1.507   3.527  13.043  0.5192  0.1053  0.3390
17359TIP3    H173492   1.534   3.492  13.128  0.1975 -0.9859  0.0122
17359TIP3    H273493   1.483   3.617  13.060  0.5642 -0.0766  1.3891
17360TIP3   OH273494   5.250   2.928   5.720 -0.0277 -0.5590  0.0675
17360TIP3    H173495   5.214   2.976   5.645  1.1050  0.7613  0.3548
17360TIP3    H273496   5.337   2.901   5.691 -0.4231 -1.9455  0.1301
17361TIP3   OH273497   1.636   5.871   5.765  0.2255 -0.1180 -0.1545
17361TIP3    H173498   1.656   5.826   5.684 -0.4933  0.4642 -0.6577
17361TIP3    H273499   1.634   5.802   5.831  0.9153 -0.5789 -0.6008
17362TIP3   OH273500   3.966   0.844   3.514 -0.0566  0.4845 -0.3504
17362TIP3    H173501   4.036   0.794   3.556  1.2367  1.9716 -0.6933
17362TIP3    H273502   4.004   0.931   3.500 -2.0711  1.4082 -0.2539
17363TIP3   OH273503   4.990   3.986  12.056  0.0772 -0.1035  0.2161
17363TIP3    H173504   4.983   3.900  12.096 -1.9632  0.5192  1.2942
17363TIP3    H273505   4.907   3.998  12.009  0.3037  1.2721  0.1220
17364TIP3   OH273506   3.843   1.730   5.159 -0.1398 -0.0338 -0.2369
17364TIP3    H173507   3.866   1.697   5.246  0.5937 -0.6303 -0.6467
17364TIP3    H273508   3.786   1.805   5.176 -0.2248 -0.3096  0.7522
17365TIP3   OH273509   3.643   0.067  11.271 -0.3453 -0.1978 -0.0296
17365TIP3    H173510   3.611   0.156  11.284 -0.6466 -0.1773 -0.8502
17365TIP3    H273511   3.568   0.019  11.237 -0.2885 -0.8645  0.7718
17366TIP3   OH273512   6.786   0.315  16.958 -0.3078  0.3456  0.1334
17366TIP3    H173513   6.793   0.244  17.021 -1.9482 -0.0456 -0.0838
17366TIP3    H273514   6.724   0.376  16.998 -0.8086  0.4417 -0.7782
17367TIP3   OH273515   3.232   3.315  16.645 -0.4006 -0.2286  0.3189
17367TIP3    H173516   3.296   3.349  16.707 -0.8785  2.1672 -0.4381
17367TIP3    H273517   3.284   3.273  16.577  0.2717 -0.1513  0.7821
17368TIP3   OH273518   0.052   3.822   6.501 -0.0251 -0.1277  0.4787
17368TIP3    H173519  -0.012   3.871   6.450 -0.1350  0.8519  1.5380
17368TIP3    H273520   0.119   3.887   6.523  0.2484 -0.6446  1.1847
17369TIP3   OH273521   4.667   1.607   1.825 -0.0703 -0.3172 -0.1107
17369TIP3    H173522   4.621   1.687   1.852 -0.4895 -0.5339 -0.1840
17369TIP3    H273523   4.672   1.554   1.904 -1.5384 -1.0694 -0.5089
17370TIP3   OH273524   6.291   0.432  12.008  0.1012 -0.3105  0.3996
17370TIP3    H173525   6.237   0.449  11.930  1.2029  0.1642 -0.2784
17370TIP3    H273526   6.298   0.518  12.050  1.4901 -0.0664 -0.2899
17371TIP3   OH273527   5.173   2.287   5.440  0.6861  0.2177 -0.3473
17371TIP3    H173528   5.243   2.341   5.404  1.2054 -0.0532  0.2579
17371TIP3    H273529   5.096   2.343   5.437  1.3757  1.2565  0.9582
17372TIP3   OH273530   0.700   5.531  14.250 -0.2867 -0.0002  0.1755
17372TIP3    H173531   0.749   5.450  14.260  0.0345  0.1152 -0.3986
17372TIP3    H273532   0.608   5.504  14.249 -0.1894 -0.3312  0.2088
17373TIP3   OH273533   4.102   5.762   5.085 -0.1056 -0.0392  0.0336
17373TIP3    H173534   4.016   5.777   5.047  0.2404  1.0268 -0.3643
17373TIP3    H273535   4.085   5.725   5.171 -0.8954 -2.5898 -1.1700
17374TIP3   OH273536   1.218   2.918   0.941 -0.3587  0.0869 -0.1117
17374TIP3    H173537   1.124   2.913   0.956 -0.2998 -0.8545 -0.0829
17374TIP3    H273538   1.229   2.998   0.888 -1.1893  0.0920 -0.2812
17375TIP3   OH273539   4.011   5.800   2.089 -0.3268 -1.2961 -0.0883
17375TIP3    H173540   3.982   5.887   2.059  5.0049  0.9233  0.5589
17375TIP3    H273541   3.975   5.792   2.177 -0.4643  0.5654  0.0583
17376TIP3   OH273542   5.687   0.902   0.005  0.5432 -0.2151 -0.3773
17376TIP3    H173543   5.774   0.906  -0.034 -0.3971 -2.4887 -2.8688
17376TIP3    H273544   5.641   0.835  -0.045 -2.7819  1.1692  0.6576
17377TIP3   OH273545   6.066   0.900  12.711 -0.1278  0.4470 -0.0069
17377TIP3    H173546   6.018   0.896  12.794 -0.0671  0.5001  0.0307
17377TIP3    H273547   6.083   0.808  12.688  0.6302  0.4558  0.4909
17378TIP3   OH273548   0.502   2.158  15.504  0.9221  0.3205  0.1332
17378TIP3    H173549   0.431   2.205  15.460  0.5791  0.1188  0.4652
17378TIP3    H273550   0.580   2.213  15.489  0.8775  0.0878 -0.9880
17379TIP3   OH273551   6.383   5.059  15.644  0.4816  0.3394  0.0617
17379TIP3    H173552   6.322   5.023  15.708 -1.3108  0.5838 -1.4695
17379TIP3    H273553   6.419   4.982  15.599  0.2804  0.2636  0.0335
17380TIP3   OH273554   4.718   3.121   4.595 -0.2590  0.0970  0.2154
17380TIP3    H173555   4.716   3.210   4.629  0.1346 -0.8199  2.7120
17380TIP3    H273556   4.640   3.079   4.630  0.6691 -1.1504  0.8489
17381TIP3   OH273557   0.647   2.602   1.571 -0.0793  0.2139 -0.0219
17381TIP3    H173558   0.593   2.582   1.648 -1.1834  0.2807 -0.7625
17381TIP3    H273559   0.722   2.543   1.578 -0.8395 -0.7158  0.4031
17382TIP3   OH273560   5.868   1.838   0.134  0.3032  0.1846 -0.2496
17382TIP3    H173561   5.840   1.850   0.224  1.2639  1.5940 -0.1168
17382TIP3    H273562   5.787   1.845   0.083 -0.2616 -0.7665  0.5045
17383TIP3   OH273563   6.164   0.486   4.716 -0.1114  0.2653  0.0200
17383TIP3    H173564   6.087   0.541   4.702 -0.2084  0.4241  1.1561
17383TIP3    H273565   6.207   0.483   4.630 -0.7565  1.1121 -0.3378
17384TIP3   OH273566   0.823   0.253   0.295  0.0190 -0.1938 -0.6411
17384TIP3    H173567   0.732   0.281   0.299  0.0951  0.0735 -0.7605
17384TIP3    H273568   0.824   0.180   0.233 -0.2601 -0.7693  0.0336
17385TIP3   OH273569   0.771   6.090  13.550  0.4065  0.2256  0.2803
17385TIP3    H173570   0.852   6.043  13.529  0.9786  1.6167 -0.6602
17385TIP3    H273571   0.706   6.021  13.561  0.8636 -0.7492 -2.6767
17386TIP3   OH273572   2.426   5.611   1.154 -0.3766 -0.1254 -0.2927
17386TIP3    H173573   2.333   5.611   1.178 -0.1379  0.7542  0.7058
17386TIP3    H273574   2.472   5.598   1.237  0.4016 -0.5281 -0.7768
17387TIP3   OH273575   0.189   1.980  13.934  0.1058 -0.3055  0.6578
17387TIP3    H173576   0.110   1.956  13.886  0.0292 -0.7035  0.9715
17387TIP3    H273577   0.182   2.074  13.948 -1.1795 -0.6058  2.1898
17388TIP3   OH273578   6.374   6.580  17.091  0.4097 -0.2938 -0.2422
17388TIP3    H173579   6.422   6.657  17.062  1.2400  0.2832  2.5406
17388TIP3    H273580   6.288   6.588  17.049  0.9289  1.4701 -1.0080
17389TIP3   OH273581   4.294   2.408  15.288  0.4733  0.0646 -0.2830
17389TIP3    H173582   4.314   2.345  15.357  0.6873  0.2246 -0.1983
17389TIP3    H273583   4.376   2.418  15.240 -0.2339 -1.7568 -1.9633
17390TIP3   OH273584   6.777   1.103  15.760 -0.8493 -0.5639  0.7200
17390TIP3    H173585   6.690   1.120  15.796 -1.8638 -0.5885 -1.6326
17390TIP3    H273586   6.761   1.077  15.670  1.6317 -0.2507  0.1515
17391TIP3   OH273587   3.150   5.409  11.098 -0.0726 -0.2482  0.6068
17391TIP3    H173588   3.167   5.341  11.032  0.7475 -1.1744  1.7484
17391TIP3    H273589   3.228   5.465  11.096 -1.6317  1.9316 -1.8015
17392TIP3   OH273590   3.713   5.731   4.037  0.5108  0.2510 -0.3035
17392TIP3    H173591   3.714   5.648   4.085  1.0694  0.6367  0.3504
17392TIP3    H273592   3.805   5.753   4.025  0.3773  0.3151 -1.2975
17393TIP3   OH273593   6.551   4.014  12.949  0.0157 -0.2090 -0.3358
17393TIP3    H173594   6.493   4.090  12.950  0.9186  0.4883  1.0520
17393TIP3    H273595   6.533   3.970  12.866 -0.4406  1.5657 -1.1931
17394TIP3   OH273596   1.799   4.940   1.636  0.0929 -0.9172 -0.1853
17394TIP3    H173597   1.833   4.899   1.715 -3.3038 -0.4885  1.5703
17394TIP3    H273598   1.777   5.029   1.662 -1.3311 -0.8562 -1.5027
17395TIP3   OH273599   4.427   0.359  10.906  0.0430 -0.2897 -0.0803
17395TIP3    H173600   4.344   0.362  10.858 -0.3643  0.1221  0.6452
17395TIP3    H273601   4.493   0.376  10.839 -0.2983 -2.4002 -1.0096
17396TIP3   OH273602   4.111   4.503   4.323  0.0909  0.5181  0.6678
17396TIP3    H173603   4.093   4.532   4.413 -1.3992 -1.9727  1.2270
17396TIP3    H273604   4.148   4.415   4.334 -0.5761  0.0030 -1.1827
17397TIP3   OH273605   6.122   0.801  17.084  0.3035 -0.1884 -0.3100
17397TIP3    H173606   6.038   0.762  17.059 -0.3864  1.4510 -0.6322
17397TIP3    H273607   6.101   0.855  17.161  0.3916  2.6778 -2.2170
17398TIP3   OH273608   1.163   4.096  16.287 -0.0931 -0.1754  0.3791
17398TIP3    H173609   1.130   4.124  16.201  1.6226 -0.1613 -0.2906
17398TIP3    H273610   1.084   4.083  16.339 -1.1363  0.6422 -0.9440
17399TIP3   OH273611   4.186   5.408  12.509  0.3481 -0.5247 -0.3510
17399TIP3    H173612   4.220   5.496  12.525  0.5543 -0.8544  1.1442
17399TIP3    H273613   4.128   5.418  12.434 -0.9982  1.2500  0.8710
17400TIP3   OH273614   5.632   2.309  16.642 -0.5274  0.4316 -0.3253
17400TIP3    H173615   5.641   2.298  16.737 -0.1069 -1.1685 -0.5405
17400TIP3    H273616   5.543   2.341  16.630 -1.3812 -1.6004  0.4387
17401TIP3   OH273617   4.718   6.713  13.839 -0.3946  0.6746  0.6491
17401TIP3    H173618   4.761   6.764  13.908 -1.9810 -1.2837  3.1643
17401TIP3    H273619   4.790   6.667  13.796  0.4815  0.4879  2.2425
17402TIP3   OH273620   2.998   0.184  14.435 -0.4902  0.1181  0.5148
17402TIP3    H173621   3.022   0.138  14.516  0.6547  0.6346  0.4824
17402TIP3    H273622   3.074   0.173  14.378 -1.0669  0.2459 -0.2813
17403TIP3   OH273623   6.098   0.420   3.401 -0.2627 -0.3611  0.5188
17403TIP3    H173624   6.093   0.425   3.496 -1.8059 -0.3445  0.4469
17403TIP3    H273625   6.166   0.483   3.378  0.4763 -0.7333  1.6364
17404TIP3   OH273626   3.802   1.660  16.675 -0.1723  0.3147 -0.3671
17404TIP3    H173627   3.892   1.654  16.709 -0.2365 -1.1191 -0.4595
17404TIP3    H273628   3.807   1.730  16.610  1.1986 -0.6696 -1.3616
17405TIP3   OH273629   1.122   0.701   2.926  0.2350 -0.1892  0.5056
17405TIP3    H173630   1.169   0.641   2.868 -0.1272 -0.2467  0.2754
17405TIP3    H273631   1.074   0.644   2.986  0.9364 -0.1332  1.1330
17406TIP3   OH273632   6.650   0.750  15.280  0.4358 -0.8729 -0.5895
17406TIP3    H173633   6.677   0.777  15.192 -1.1337 -1.8595 -1.3991
17406TIP3    H273634   6.582   0.812  15.305 -0.3862 -1.6607 -0.8263
17407TIP3   OH273635   3.456   3.686   2.890 -0.1943  0.3841 -0.4040
17407TIP3    H173636   3.550   3.702   2.895 -0.1600  0.4312 -1.2771
17407TIP3    H273637   3.446   3.595   2.918 -0.0603  0.8678  1.2668
17408TIP3   OH273638   2.441   5.702  13.749  0.0831  0.2903  0.4851
17408TIP3    H173639   2.481   5.733  13.830  2.6599 -1.1891 -0.1645
17408TIP3    H273640   2.435   5.779  13.694 -1.4763  1.2699  1.9612
17409TIP3   OH273641   5.796   4.585   0.143  0.1638  0.1265 -0.3328
17409TIP3    H173642   5.763   4.495   0.129 -1.2229  0.5880 -0.1188
17409TIP3    H273643   5.839   4.582   0.228  1.8205 -0.8056 -1.1853
17410TIP3   OH273644   5.158   2.814   1.667  0.0294 -0.8343  0.4859
17410TIP3    H173645   5.063   2.811   1.673  0.1497 -1.8912  2.3375
17410TIP3    H273646   5.181   2.904   1.690 -0.4810 -0.7815  0.7839
17411TIP3   OH273647   5.540   5.414  12.659  0.0866 -0.2168 -0.7926
17411TIP3    H173648   5.534   5.338  12.717  0.5517 -1.0000 -1.7598
17411TIP3    H273649   5.453   5.454  12.663 -0.1394 -0.7583 -0.2236
17412TIP3   OH273650   1.563   5.472   4.901 -0.0715  0.6137 -0.2803
17412TIP3    H173651   1.619   5.415   4.954  0.9280  1.6215 -0.2410
17412TIP3    H273652   1.486   5.488   4.956  0.3275  0.5198  0.3026
17413TIP3   OH273653   2.298   1.698  15.724 -0.5946 -0.0076  0.7659
17413TIP3    H173654   2.265   1.687  15.635  0.3776  1.8495  0.1432
17413TIP3    H273655   2.393   1.688  15.716 -0.5571 -0.4108  1.6845
17414TIP3   OH273656   6.608   2.184  14.694 -0.0092  0.2043  0.3660
17414TIP3    H173657   6.687   2.192  14.640 -1.2391  1.3513 -1.2982
17414TIP3    H273658   6.557   2.116  14.651 -0.6454  0.5715  0.5391
17415TIP3   OH273659   3.003   0.662  15.258  0.6587  0.2101  0.1679
17415TIP3    H173660   3.076   0.612  15.221  0.3714  0.4248 -0.7064
17415TIP3    H273661   2.962   0.703  15.182  0.5083  1.2634  0.8122
17416TIP3   OH273662   2.792   6.535   1.715 -0.0981  0.0530 -0.5879
17416TIP3    H173663   2.751   6.497   1.638  0.0239 -0.6863 -0.2993
17416TIP3    H273664   2.879   6.562   1.686  0.2169 -0.8748 -0.5533
17417TIP3   OH273665   2.238   0.499   0.802  0.2575 -0.2380 -0.3998
17417TIP3    H173666   2.306   0.477   0.866  0.6659  2.1742  0.0217
17417TIP3    H273667   2.156   0.482   0.847  0.5623 -0.8492 -0.0705
17418TIP3   OH273668   3.619   3.130   3.461 -0.1949 -0.0814 -0.8856
17418TIP3    H173669   3.594   3.221   3.451 -1.1692 -0.2015  0.2861
17418TIP3    H273670   3.690   3.132   3.525  0.7178 -0.0240 -1.8928
17419TIP3   OH273671   0.682   1.962  11.594 -0.5304  0.2127 -0.4792
17419TIP3    H173672   0.603   2.004  11.559 -0.7008 -0.6590 -1.1679
17419TIP3    H273673   0.663   1.946  11.686 -1.7932 -1.4499 -1.0075
17420TIP3   OH273674   1.166   6.537  14.970  0.2977  0.4601  0.3455
17420TIP3    H173675   1.183   6.538  15.064  1.7283 -4.6357  0.2885
17420TIP3    H273676   1.088   6.482  14.960  1.0892 -0.3648 -1.5021
17421TIP3   OH273677   2.036   4.720  11.612  0.5529 -0.4127 -0.3499
17421TIP3    H173678   1.967   4.667  11.653  0.1332  0.0223 -0.4837
17421TIP3    H273679   2.012   4.723  11.519  0.1480  0.6339 -0.2233
17422TIP3   OH273680   3.869   4.099   0.239  0.1264  0.4014 -0.0226
17422TIP3    H173681   3.852   4.016   0.284 -0.4473  0.6594  0.2505
17422TIP3    H273682   3.798   4.106   0.175 -0.2185  1.0008  0.4194
17423TIP3   OH273683   3.452   6.139  15.957  0.0865  0.7338 -0.5141
17423TIP3    H173684   3.515   6.191  15.907  0.6691  0.1678 -0.3678
17423TIP3    H273685   3.489   6.134  16.045 -0.0235  0.1586 -0.5042
17424TIP3   OH273686   1.678   0.691  15.445 -0.5313 -0.8077 -0.0978
17424TIP3    H173687   1.635   0.732  15.370 -1.0378 -1.0352  0.0719
17424TIP3    H273688   1.608   0.648  15.493 -0.0595 -1.5309 -0.0496
17425TIP3   OH273689   1.619   4.406  15.762 -0.0876  0.3501 -0.4309
17425TIP3    H173690   1.527   4.426  15.782  0.6465  1.6203  1.8339
17425TIP3    H273691   1.616   4.360  15.678 -3.0223 -1.7086  0.6968
17426TIP3   OH273692   1.952   5.500  14.760  0.0600  0.6365  0.5589
17426TIP3    H173693   1.974   5.586  14.725 -0.4438  0.5093 -0.0797
17426TIP3    H273694   1.856   5.497  14.758  0.0359  0.4894  1.6129
17427TIP3   OH273695   0.416   2.588  12.801 -0.3902 -0.7752  0.0497
17427TIP3    H173696   0.436   2.502  12.838 -1.4640 -0.6828  0.8917
17427TIP3    H273697   0.325   2.603  12.825 -1.2361 -0.8314 -2.9206
17428TIP3   OH273698   2.340   5.026   4.429 -0.0071  0.3470  0.2921
17428TIP3    H173699   2.411   4.983   4.478 -1.5110  1.0898  3.2313
17428TIP3    H273700   2.372   5.114   4.413  0.0891  0.4075  0.8221
17429TIP3   OH273701   5.167   1.163  11.328 -0.4307 -0.7764  0.2499
17429TIP3    H173702   5.229   1.236  11.331 -2.3268  0.8210  2.2883
17429TIP3    H273703   5.143   1.155  11.236 -0.3453  1.2899  0.0304
17430TIP3   OH273704   5.754   3.413  14.292 -0.3635 -0.0472 -0.7882
17430TIP3    H173705   5.844   3.390  14.269 -0.0559  1.0933 -0.7810
17430TIP3    H273706   5.745   3.386  14.384 -0.2680 -0.8203 -1.0022
17431TIP3   OH273707   4.885   2.361   2.594  0.1484 -0.0652  0.6513
17431TIP3    H173708   4.930   2.290   2.639  0.2666  0.6535  1.6907
17431TIP3    H273709   4.799   2.326   2.573  0.8473 -1.1221 -0.4819
17432TIP3   OH273710   4.805   1.759  13.472  0.2664 -0.6157  0.7574
17432TIP3    H173711   4.750   1.779  13.548 -1.8430 -1.5237 -0.4848
17432TIP3    H273712   4.819   1.665  13.475 -1.1832 -0.9119 -0.8363
17433TIP3   OH273713   0.810   2.569  12.163  0.5492 -0.2964 -0.0021
17433TIP3    H173714   0.819   2.498  12.099  0.5714  0.0316 -0.3637
17433TIP3    H273715   0.716   2.573  12.181  0.6422 -0.9836  0.6652
17434TIP3   OH273716   5.038   3.092   4.132 -0.1382 -0.4698  0.0724
17434TIP3    H173717   5.021   3.007   4.092  0.0025  0.2861 -1.6331
17434TIP3    H273718   4.983   3.093   4.210  1.5348 -3.0108  1.3730
17435TIP3   OH273719   2.836   5.534   2.327  0.4464  0.0334 -0.0630
17435TIP3    H173720   2.861   5.465   2.266  0.6063  0.9741 -1.0757
17435TIP3    H273721   2.806   5.606   2.271 -2.3791 -0.2375  1.0773
17436TIP3   OH273722   2.087   4.545  14.591  0.4030  0.5685 -0.1016
17436TIP3    H173723   1.999   4.514  14.608  0.6315  0.1800  0.3571
17436TIP3    H273724   2.088   4.562  14.496 -0.5403  1.7705  0.0971
17437TIP3   OH273725   6.422   3.231  11.212  0.0332  0.7099 -0.2835
17437TIP3    H173726   6.511   3.250  11.182 -0.0825  0.4709 -0.7858
17437TIP3    H273727   6.369   3.301  11.175 -0.4633 -0.7873 -2.5122
17438TIP3   OH273728   3.631   5.959  14.518 -0.3320 -0.0607  0.0248
17438TIP3    H173729   3.723   5.956  14.491 -0.5768 -2.3208 -0.6459
17438TIP3    H273730   3.625   5.899  14.591 -1.2093  0.3855  0.3261
17439TIP3   OH273731   0.199   2.871   3.403 -0.3043 -0.0395 -0.0181
17439TIP3    H173732   0.249   2.941   3.360 -2.9852  1.7051 -0.4052
17439TIP3    H273733   0.167   2.817   3.331 -0.8933  0.1898  0.0682
17440TIP3   OH273734   6.249   6.761   1.905 -0.0669  0.9224  0.6656
17440TIP3    H173735   6.242   6.770   2.000  2.0287 -0.9345  1.0520
17440TIP3    H273736   6.288   6.674   1.892 -1.4004  0.6571 -1.9460
17441TIP3   OH273737   0.449   4.287  11.002  0.1707  0.1183  0.2347
17441TIP3    H173738   0.413   4.373  11.024 -0.6729 -0.2096  0.1227
17441TIP3    H273739   0.458   4.288  10.907 -0.1643 -0.0517  0.2034
17442TIP3   OH273740   0.183   0.980   0.095 -0.2516  0.3565 -0.5386
17442TIP3    H173741   0.172   1.009   0.005  0.7861  0.6339 -0.5927
17442TIP3    H273742   0.271   1.010   0.119  0.3182 -1.5754 -0.1453
17443TIP3   OH273743   5.137   0.508   3.369  0.0793  0.1293 -0.5576
17443TIP3    H173744   5.072   0.577   3.356  0.7601  0.5637 -1.7323
17443TIP3    H273745   5.091   0.426   3.352 -0.0308  0.4689 -1.9519
17444TIP3   OH273746   1.498   6.509   1.501  0.5046 -0.4111 -0.5148
17444TIP3    H173747   1.428   6.447   1.482  0.3361 -0.6987  0.9853
17444TIP3    H273748   1.468   6.556   1.579  0.1121  2.3620 -2.2930
17445TIP3   OH273749   5.156   3.288   0.804  0.0007 -1.4903  0.0738
17445TIP3    H173750   5.084   3.266   0.744  2.5010 -1.4430 -3.0949
17445TIP3    H273751   5.204   3.206   0.815  0.7023 -1.0339  0.4122
17446TIP3   OH273752   5.806   4.556   3.579 -0.3969  0.8237 -0.2689
17446TIP3    H173753   5.756   4.515   3.508 -1.3757  1.4237  0.0554
17446TIP3    H273754   5.873   4.608   3.535  0.4254 -0.5760 -0.6961
17447TIP3   OH273755   6.263   5.868  14.963 -0.3382  0.3871  0.2997
17447TIP3    H173756   6.318   5.946  14.968  0.5601 -0.3236  2.1294
17447TIP3    H273757   6.315   5.800  15.007 -0.3242 -1.7017 -2.7224
17448TIP3   OH273758   2.324   4.072   0.552  0.2824 -0.2167 -0.2907
17448TIP3    H173759   2.415   4.097   0.533  0.4806  0.5469  1.6040
17448TIP3    H273760   2.296   4.132   0.621 -0.8213 -2.1197  0.9723
17449TIP3   OH273761   1.341   1.235   3.618  0.1964 -0.1506  0.3298
17449TIP3    H173762   1.348   1.325   3.648 -0.1137 -0.1872  0.5165
17449TIP3    H273763   1.368   1.238   3.526 -1.8319  0.4890 -0.2573
17450TIP3   OH273764   4.625   1.866  13.656 -0.1600  0.3865 -0.1941
17450TIP3    H173765   4.652   1.957  13.667 -3.8059  1.3489  1.7492
17450TIP3    H273766   4.678   1.817  13.718  0.1664  1.5239  0.4361
17451TIP3   OH273767   1.406   0.846   2.459  0.2185  0.1788  0.2658
17451TIP3    H173768   1.421   0.758   2.424  1.1846  1.3259 -2.4126
17451TIP3    H273769   1.312   0.851   2.472 -0.0781 -0.6637 -1.3746
17452TIP3   OH273770   1.306   0.279   5.658 -0.2114 -0.5009  0.8395
17452TIP3    H173771   1.345   0.219   5.722 -1.3675  1.3662  3.4050
17452TIP3    H273772   1.212   0.261   5.664 -0.5097  1.1450  1.2246
17453TIP3   OH273773   4.921   1.286   3.129  0.6386  0.4956 -0.0164
17453TIP3    H173774   5.009   1.294   3.092  0.9892  0.6129  0.8405
17453TIP3    H273775   4.865   1.331   3.067  1.0139 -0.6229 -1.1984
17454TIP3   OH273776   0.133   1.660  12.898 -0.1357  0.5974 -0.1564
17454TIP3    H173777   0.193   1.698  12.963 -0.7676 -2.2201  2.1677
17454TIP3    H273778   0.183   1.588  12.859 -1.1076 -0.1205 -0.0772
17455TIP3   OH273779   5.687   4.874   0.164 -0.5784 -0.6398  0.4040
17455TIP3    H173780   5.660   4.817   0.092  1.3363  1.0274 -1.7196
17455TIP3    H273781   5.782   4.870   0.164 -0.4805  1.1217  1.3977
17456TIP3   OH273782   3.033   6.267   6.769  0.4832 -0.2664 -0.4844
17456TIP3    H173783   3.075   6.217   6.700 -0.5730 -1.3947 -0.3352
17456TIP3    H273784   2.997   6.201   6.828 -2.5391  0.6119 -1.2360
17457TIP3   OH273785   5.614   1.087  17.010  0.3572  0.1934 -0.2271
17457TIP3    H173786   5.663   1.065  17.090 -0.1831  1.5360  0.4870
17457TIP3    H273787   5.523   1.069  17.032  0.3442 -0.7086 -0.9986
17458TIP3   OH273788   3.097   3.135   2.678  0.9069  0.4554  0.1701
17458TIP3    H173789   3.137   3.150   2.763  1.1354 -0.3165  0.1975
17458TIP3    H273790   3.110   3.042   2.661  1.4201  0.7304 -0.9914
17459TIP3   OH273791   4.986   4.498  12.765  0.4058  0.6826 -0.1191
17459TIP3    H173792   4.927   4.480  12.692 -0.4261 -1.3337  1.0347
17459TIP3    H273793   4.928   4.524  12.837  0.9769 -0.5451  0.7919
17460TIP3   OH273794   6.259   1.660  12.176  0.4864  0.2407 -0.0054
17460TIP3    H173795   6.336   1.704  12.213  0.5068  0.4254 -0.2661
17460TIP3    H273796   6.199   1.651  12.251  0.9052 -0.2274  0.2717
17461TIP3   OH273797   5.030   1.186  15.059 -0.3111  0.0467 -0.5362
17461TIP3    H173798   5.031   1.143  15.144  1.2465  1.1874  0.0513
17461TIP3    H273799   4.970   1.260  15.070  0.6467  0.7699 -0.1216
17462TIP3   OH273800   4.978   0.695  12.930  0.0578 -0.2716 -0.2187
17462TIP3    H173801   5.004   0.654  12.848 -0.6382  0.0665 -0.6107
17462TIP3    H273802   4.926   0.627  12.975 -1.1494  0.1833 -0.8961
17463TIP3   OH273803   3.377   0.380  15.919 -0.1764 -0.0996 -0.0406
17463TIP3    H173804   3.453   0.371  15.976  0.4953  1.6231 -0.6204
17463TIP3    H273805   3.414   0.383  15.831 -0.9325  0.4941 -0.3425
17464TIP3   OH273806   2.195   2.870  13.171  0.2856  0.2402  0.0823
17464TIP3    H173807   2.218   2.791  13.220  0.9245  0.1435 -0.3695
17464TIP3    H273808   2.276   2.921  13.170 -0.3137  1.2472  1.0200
17465TIP3   OH273809   6.448   5.916   4.653 -0.0799 -0.1685  0.2726
17465TIP3    H173810   6.536   5.922   4.616 -0.2294  0.0889 -0.0468
17465TIP3    H273811   6.428   5.822   4.652  0.1592 -0.2189  0.2712
17466TIP3   OH273812   3.849   5.091   3.813  0.3014  0.0478 -0.1265
17466TIP3    H173813   3.823   5.080   3.904 -0.6591 -3.9943 -0.7715
17466TIP3    H273814   3.770   5.120   3.768  0.0893 -0.4385 -0.0725
17467TIP3   OH273815   1.132   4.058  13.796  0.4727  0.2840  0.4920
17467TIP3    H173816   1.182   4.117  13.739  1.0472 -0.6822 -0.0169
17467TIP3    H273817   1.054   4.109  13.820  1.4634  1.6257  0.9208
17468TIP3   OH273818   4.558   3.974   1.611 -0.2639  0.2345  0.3865
17468TIP3    H173819   4.554   3.878   1.614 -1.1485  0.2000 -1.0798
17468TIP3    H273820   4.557   3.994   1.517 -0.2178  1.6819  0.6928
17469TIP3   OH273821   0.262   1.362   0.523  0.0086 -0.7305 -0.0174
17469TIP3    H173822   0.342   1.316   0.548 -0.1148 -0.5567  0.7319
17469TIP3    H273823   0.257   1.436   0.584 -1.1419 -1.2031  0.4877
17470TIP3   OH273824   1.446   1.505   3.697  0.0819 -0.2021  0.2428
17470TIP3    H173825   1.435   1.600   3.704  0.2093 -0.3031  1.9661
17470TIP3    H273826   1.505   1.493   3.622  0.5842  1.0980  0.4172
17471TIP3   OH273827   6.410   4.004  10.927  0.3856  0.0922  0.7289
17471TIP3    H173828   6.339   3.944  10.950  0.5877  0.6962  3.1054
17471TIP3    H273829   6.424   4.055  11.007  0.9595  2.5376 -0.8950
17472TIP3   OH273830   2.030   3.356  14.790 -0.2487 -0.4527 -0.4101
17472TIP3    H173831   2.070   3.437  14.822  1.5551 -1.2235 -0.6439
17472TIP3    H273832   2.065   3.287  14.846  0.6111 -1.4375 -2.0970
17473TIP3   OH273833   0.883   1.226  13.427 -0.3294  0.3953 -0.4486
17473TIP3    H173834   0.892   1.302  13.484 -1.2297 -1.4280  2.2287
17473TIP3    H273835   0.959   1.171  13.449  1.1330  1.1245 -3.4158
17474TIP3   OH273836   2.133   1.540   3.591  0.0421 -0.2301  0.7225
17474TIP3    H173837   2.101   1.480   3.524 -1.6414 -0.3654  1.6132
17474TIP3    H273838   2.157   1.619   3.544  1.5983 -1.3452 -0.3783
17475TIP3   OH273839   1.679   0.555  12.852 -0.0759  0.0990  0.1018
17475TIP3    H173840   1.717   0.520  12.771 -1.0385  0.7242 -0.6290
17475TIP3    H273841   1.607   0.495  12.872  1.6964 -1.4718  1.8525
17476TIP3   OH273842   0.494   6.736   4.234  0.3858  0.3549 -0.4337
17476TIP3    H173843   0.568   6.681   4.258 -0.2673 -0.3687 -0.0783
17476TIP3    H273844   0.515   6.822   4.272  0.0814 -0.3734  1.4273
17477TIP3   OH273845   3.329   1.361   5.429  0.0308 -0.3712  0.4014
17477TIP3    H173846   3.343   1.269   5.450  0.4227  0.1951  2.8217
17477TIP3    H273847   3.413   1.390   5.393 -0.0053 -0.8932 -0.1046
17478TIP3   OH273848   1.472   5.327  11.006 -0.2181  0.5696  0.0439
17478TIP3    H173849   1.468   5.422  11.000 -0.4223  0.7562  2.4468
17478TIP3    H273850   1.398   5.304  11.064  0.1917 -0.9768 -0.0235
17479TIP3   OH273851   4.559   2.295   1.730  0.3630 -0.2081 -0.1761
17479TIP3    H173852   4.610   2.329   1.657  0.4957  0.5366  0.2595
17479TIP3    H273853   4.505   2.226   1.691 -0.1766  0.7463 -1.1385
17480TIP3   OH273854   6.276   3.086   1.703  0.7133  0.1697 -0.0387
17480TIP3    H173855   6.227   3.006   1.723 -0.4532  0.3400 -2.0522
17480TIP3    H273856   6.248   3.149   1.770 -0.6650 -0.2071 -0.2352
17481TIP3   OH273857   4.288   1.551   4.385 -0.3178 -0.4885  0.1107
17481TIP3    H173858   4.319   1.464   4.410 -1.0940 -0.5410  0.9392
17481TIP3    H273859   4.358   1.610   4.414  0.6371 -0.8983 -1.2950
17482TIP3   OH273860   5.969   2.363   5.267 -0.2157  0.7224  0.2889
17482TIP3    H173861   5.876   2.366   5.292 -0.3492 -0.7760  0.0537
17482TIP3    H273862   5.987   2.269   5.255  1.2543  1.0256  0.0434
17483TIP3   OH273863   2.067   5.891  11.536  0.2914  0.2503 -1.2731
17483TIP3    H173864   2.020   5.974  11.543  1.3146  0.6382  1.8433
17483TIP3    H273865   2.000   5.824  11.548  0.3050  0.7909  2.4944
17484TIP3   OH273866   6.162   3.002  11.813 -0.3388  0.0335 -0.4721
17484TIP3    H173867   6.102   2.969  11.746  1.6266 -0.6854 -1.9379
17484TIP3    H273868   6.228   3.051  11.763  0.6090  0.3223  1.0528
17485TIP3   OH273869   4.901   3.738  16.944  0.5535  0.6412 -0.1937
17485TIP3    H173870   4.834   3.783  16.996  0.5658  0.1220  0.2823
17485TIP3    H273871   4.984   3.759  16.987  0.4189 -1.0857  0.9733
17486TIP3   OH273872   6.055   4.165  14.782 -0.0661 -0.3168  0.2148
17486TIP3    H173873   6.102   4.242  14.816  0.7440  0.1463 -1.8809
17486TIP3    H273874   6.122   4.097  14.777 -0.6810 -1.0481  1.6184
17487TIP3   OH273875   0.507   2.344   4.429 -0.8530  0.3494 -0.1675
17487TIP3    H173876   0.480   2.393   4.352 -0.9802 -1.2609 -1.1649
17487TIP3    H273877   0.477   2.397   4.503 -2.0624  1.1667 -1.2335
17488TIP3   OH273878   1.987   2.693  13.013  0.1799 -0.4776 -0.4885
17488TIP3    H173879   1.911   2.738  13.050  1.2034  1.9708 -1.2439
17488TIP3    H273880   2.044   2.677  13.089 -0.1551 -0.4535 -0.2302
17489TIP3   OH273881   4.852   4.751  13.215  0.0758 -0.1983  0.1766
17489TIP3    H173882   4.921   4.769  13.151 -0.7057  1.5844 -0.1996
17489TIP3    H273883   4.781   4.812  13.191 -0.8589 -0.6510  1.7391
17490TIP3   OH273884   0.123   4.769  12.585  0.2530 -0.0198  0.3562
17490TIP3    H173885   0.063   4.738  12.517 -0.4978  2.2837 -0.0782
17490TIP3    H273886   0.185   4.697  12.597 -0.8387 -1.2714 -1.2936
17491TIP3   OH273887   5.513   3.161  15.111 -0.1947  0.0024 -0.5125
17491TIP3    H173888   5.526   3.202  15.025 -0.3915 -1.1258 -1.0861
17491TIP3    H273889   5.482   3.233  15.167  0.1898  0.8036 -1.3092
17492TIP3   OH273890   0.214   5.014   1.421  0.1595 -0.0717 -0.8774
17492TIP3    H173891   0.256   4.938   1.380 -0.9964 -0.3971 -1.4907
17492TIP3    H273892   0.286   5.064   1.459  0.9379 -1.5113 -0.4180
17493TIP3   OH273893   0.898   6.092   1.781  0.2794  0.1133  0.3558
17493TIP3    H173894   0.923   6.056   1.696 -0.4771 -0.1641  0.2445
17493TIP3    H273895   0.928   6.027   1.845 -1.1324 -0.7600  0.1518
17494TIP3   OH273896   5.041   0.305   5.573 -0.9229 -0.1722 -0.1074
17494TIP3    H173897   5.034   0.359   5.652  1.6733 -0.7506  0.5751
17494TIP3    H273898   5.055   0.216   5.605 -1.4244 -0.6694 -1.2315
17495TIP3   OH273899   6.130   1.771   0.432 -0.4380 -0.1344 -0.0872
17495TIP3    H173900   6.095   1.836   0.371 -0.6504 -0.6387 -0.5079
17495TIP3    H273901   6.130   1.689   0.383 -0.3948 -0.5017  0.5167
17496TIP3   OH273902   1.045   1.287   2.647  0.6619  0.1977  0.3027
17496TIP3    H173903   0.952   1.301   2.659  0.5038 -1.3395  0.9814
17496TIP3    H273904   1.076   1.366   2.602 -0.8615  0.9213  0.5113
17497TIP3   OH273905   6.223   4.421   4.956  0.3000  1.1304 -0.2789
17497TIP3    H173906   6.302   4.380   4.923  0.0950  0.1134  0.4449
17497TIP3    H273907   6.154   4.356   4.939 -0.1900  1.5742  0.0168
17498TIP3   OH273908   1.011   0.446   0.726  0.0743  0.1639 -0.7173
17498TIP3    H173909   0.939   0.505   0.751 -0.4952 -0.0687 -1.7962
17498TIP3    H273910   0.970   0.381   0.669  1.0999 -0.1146 -1.1427
17499TIP3   OH273911   0.331   2.184   3.668  0.4791 -0.2370 -0.2318
17499TIP3    H173912   0.253   2.199   3.616 -0.3321 -2.4836  0.2760
17499TIP3    H273913   0.330   2.254   3.734  0.3875  1.3493 -1.8997
17500TIP3   OH273914   3.375   1.250   3.336 -0.1471  0.0471  0.1160
17500TIP3    H173915   3.335   1.180   3.285 -0.3290  0.5566 -0.4505
17500TIP3    H273916   3.438   1.206   3.393  0.3229 -0.4974 -0.8116
17501TIP3   OH273917   3.147   4.444   2.052 -0.0010 -0.6967 -0.2638
17501TIP3    H173918   3.178   4.508   2.117 -0.0895 -0.1706 -0.7344
17501TIP3    H273919   3.077   4.397   2.097 -0.4867  0.0901 -0.1778
17502TIP3   OH273920   4.595   0.648  11.178  0.1438 -0.2994  0.1058
17502TIP3    H173921   4.648   0.576  11.212 -2.2283 -1.4772  1.4267
17502TIP3    H273922   4.548   0.682  11.254  1.5488  3.0252 -0.3894
17503TIP3   OH273923   4.687   3.102   2.818  0.5999 -0.2036 -0.5433
17503TIP3    H173924   4.602   3.087   2.777  1.5125 -0.1450 -2.5106
17503TIP3    H273925   4.685   3.048   2.897 -1.1418 -0.4312 -0.7113
17504TIP3   OH273926   5.463   2.100  15.180 -0.2947 -0.3576 -0.0838
17504TIP3    H173927   5.543   2.143  15.211 -0.2851  0.3680 -1.0788
17504TIP3    H273928   5.479   2.007  15.194  0.5707 -0.1904  0.0753
17505TIP3   OH273929   2.233   1.998  14.672  0.2672 -0.0869 -0.4309
17505TIP3    H173930   2.249   2.061  14.742  1.9348  1.3648 -2.0312
17505TIP3    H273931   2.170   2.042  14.615  1.6943  0.3156 -1.7359
17506TIP3   OH273932   2.285   0.464  10.857 -0.5523  0.1422 -0.3603
17506TIP3    H173933   2.380   0.470  10.845 -0.2452 -0.6691  1.5166
17506TIP3    H273934   2.249   0.474  10.769  1.2202  1.5952 -0.9455
17507TIP3   OH273935   0.654   1.521   3.781  0.1283  0.1411  0.2503
17507TIP3    H173936   0.655   1.456   3.851  0.0529 -0.5056 -0.3350
17507TIP3    H273937   0.686   1.601   3.822  0.0185 -0.2113  1.0370
17508TIP3   OH273938   0.383   5.918  13.279 -0.1827 -0.5152 -0.3127
17508TIP3    H173939   0.429   5.861  13.341 -1.5686 -1.2767  0.0322
17508TIP3    H273940   0.390   5.873  13.195  0.5020 -0.1562 -0.4577
17509TIP3   OH273941   5.599   2.146  12.433  0.6130  0.2990  0.4854
17509TIP3    H173942   5.556   2.220  12.390 -0.1923 -1.0795 -1.1677
17509TIP3    H273943   5.677   2.130  12.380 -0.8841 -2.0223 -1.1159
17510TIP3   OH273944   0.688   4.393  16.067  0.4795 -0.0351 -0.0790
17510TIP3    H173945   0.781   4.401  16.089  0.4110  1.2280 -0.2265
17510TIP3    H273946   0.685   4.396  15.972  0.3248 -0.4683 -0.0859
17511TIP3   OH273947   5.945   1.968  15.285 -0.3210 -0.0039  0.1620
17511TIP3    H173948   6.028   1.921  15.284 -0.2328  0.1799 -1.5819
17511TIP3    H273949   5.905   1.948  15.200 -0.5226  2.6678 -0.3985
17512TIP3   OH273950   2.222   4.747   5.241  0.1525 -0.1245  0.7301
17512TIP3    H173951   2.253   4.717   5.326  1.4250 -2.2117 -0.4498
17512TIP3    H273952   2.298   4.787   5.199  0.2639 -1.5932 -0.5233
17513TIP3   OH273953   6.785   2.378   4.187 -0.2628  0.0915  0.0271
17513TIP3    H173954   6.749   2.420   4.265 -1.0685 -0.2172 -0.1764
17513TIP3    H273955   6.758   2.286   4.195  0.7083 -0.2035  0.0092
17514TIP3   OH273956   5.551   6.766   1.224  0.2929 -0.8199 -0.3544
17514TIP3    H173957   5.542   6.765   1.319  0.1789  1.0555 -0.3285
17514TIP3    H273958   5.639   6.731   1.208  0.6136 -0.4043  0.4799
17515TIP3   OH273959   4.750   2.759  15.036  0.1142  0.2719  0.2994
17515TIP3    H173960   4.658   2.760  15.008  0.2477  0.0555 -0.1441
17515TIP3    H273961   4.755   2.685  15.097  0.0626  0.0963  0.0915
17516TIP3   OH273962   6.415   5.585   5.590 -0.2852 -1.0369 -0.0417
17516TIP3    H173963   6.503   5.620   5.601 -0.2914 -0.7853 -0.7897
17516TIP3    H273964   6.422   5.493   5.616  0.5987 -1.4811 -1.7818
17517TIP3   OH273965   3.415   3.842   5.201 -0.2078 -0.2109 -0.0627
17517TIP3    H173966   3.468   3.838   5.121  0.8199 -0.3425  0.6150
17517TIP3    H273967   3.342   3.899   5.178  0.6139  0.5770 -0.7935
17518TIP3   OH273968   2.743   2.758   2.087 -0.0028 -0.0902  0.3362
17518TIP3    H173969   2.739   2.853   2.083 -0.9457 -0.0022  2.5511
17518TIP3    H273970   2.819   2.734   2.034  0.0288  1.8623 -0.5145
17519TIP3   OH273971   4.824   3.267  14.631  0.5249 -0.2660  0.3970
17519TIP3    H173972   4.889   3.262  14.561  0.1340 -0.7525  0.0732
17519TIP3    H273973   4.852   3.201  14.695 -0.6637 -1.7506 -0.5916
17520TIP3   OH273974   6.383   4.132  16.918 -0.5450  0.1651 -0.2726
17520TIP3    H173975   6.357   4.084  16.840 -1.4006  0.5286 -0.2224
17520TIP3    H273976   6.300   4.160  16.958 -0.0694  2.4696 -0.8007
17521TIP3   OH273977   4.050   3.732   1.633  0.3336  0.5538 -0.2915
17521TIP3    H173978   3.965   3.754   1.670 -0.3021 -1.4924 -0.4959
17521TIP3    H273979   4.113   3.761   1.699 -0.6113  0.2358  0.7748
17522TIP3   OH273980   4.005   2.488  12.014  0.3274 -0.0794 -0.1076
17522TIP3    H173981   4.099   2.483  11.999  0.7147  0.4563  2.0541
17522TIP3    H273982   3.971   2.538  11.939  1.6092 -1.1459 -1.4138
17523TIP3   OH273983   6.282   2.279  16.692  0.3120  0.0997  0.2080
17523TIP3    H173984   6.348   2.263  16.624 -0.5119 -1.8952 -0.1406
17523TIP3    H273985   6.199   2.276  16.645 -0.2176 -0.5672  1.1859
17524TIP3   OH273986   4.610   5.909  11.236 -0.0873  0.4433 -0.6487
17524TIP3    H173987   4.587   5.925  11.145 -1.0668 -0.5572 -0.5929
17524TIP3    H273988   4.687   5.851  11.231  0.4564  1.1631 -0.8246
17525TIP3   OH273989   0.870   0.035   4.467 -0.2366 -0.3906 -0.0659
17525TIP3    H173990   0.842   0.018   4.557  0.7473 -1.4130  0.0602
17525TIP3    H273991   0.833  -0.037   4.416  0.6536 -0.7685 -0.1878
17526TIP3   OH273992   5.158   5.865  11.689  0.0842  0.2823 -0.1949
17526TIP3    H173993   5.211   5.922  11.633  0.2699 -1.2523 -1.6462
17526TIP3    H273994   5.069   5.874  11.655 -0.2825  1.3901  1.0113
17527TIP3   OH273995   6.411   6.244  11.643  0.4404  0.2821 -0.8776
17527TIP3    H173996   6.469   6.201  11.705  2.1764  1.8842 -1.3525
17527TIP3    H273997   6.338   6.183  11.632  1.9616 -1.7038 -0.1770
17528TIP3   OH273998   5.808   1.430  12.901  0.6000  0.3334  0.2376
17528TIP3    H173999   5.770   1.514  12.874  1.1706  0.4692 -0.1390
17528TIP3    H274000   5.785   1.370  12.830 -1.1622 -0.2115  1.2340
17529TIP3   OH274001   0.312   4.055   5.811  0.4231 -0.5073  0.1336
17529TIP3    H174002   0.224   4.034   5.841 -0.4119  0.5707 -1.5059
17529TIP3    H274003   0.359   4.081   5.891 -0.7745 -0.9541  0.9956
17530TIP3   OH274004   2.912   5.101  15.044  0.6923 -0.5098  0.3463
17530TIP3    H174005   2.862   5.029  15.084  0.7609 -0.3880  0.6510
17530TIP3    H274006   2.907   5.083  14.950  0.5719 -0.8261  0.4096
17531TIP3   OH274007   0.513   5.742   3.873 -0.2581 -0.3988  0.5204
17531TIP3    H174008   0.507   5.823   3.923 -1.1544 -0.5757  0.6985
17531TIP3    H274009   0.605   5.738   3.845 -0.7548  1.9628 -1.6360
17532TIP3   OH274010   1.380   2.876   0.218 -0.0519  0.6833  0.0504
17532TIP3    H174011   1.310   2.911   0.272  0.9126  1.2416  0.9544
17532TIP3    H274012   1.346   2.880   0.129 -1.3296  0.5328  0.5217
17533TIP3   OH274013   5.800   6.483   3.821  0.2411  0.0217 -0.9802
17533TIP3    H174014   5.889   6.513   3.801  0.5141 -0.1647 -0.0624
17533TIP3    H274015   5.750   6.564   3.830  0.9240  0.2446  1.2386
17534TIP3   OH274016   1.662   3.986   5.263 -0.3248 -0.4069 -0.0061
17534TIP3    H174017   1.729   3.920   5.278  0.6026  0.6476  0.6131
17534TIP3    H274018   1.676   4.050   5.334 -0.8845  0.6881 -0.8693
17535TIP3   OH274019   5.353   5.114   5.101  0.0270 -0.2112  0.1068
17535TIP3    H174020   5.415   5.048   5.134 -1.2076 -1.0928  0.7027
17535TIP3    H274021   5.354   5.182   5.169 -0.0078 -0.4517  0.3526
17536TIP3   OH274022   0.230   1.863   1.208  0.3582  0.2384 -0.2307
17536TIP3    H174023   0.318   1.854   1.246 -0.0332 -1.1338  0.3412
17536TIP3    H274024   0.188   1.779   1.223 -1.4698  1.2626  0.5195
17537TIP3   OH274025   1.637   3.570  16.424 -0.3004  0.0007  0.8379
17537TIP3    H174026   1.694   3.494  16.432  1.0212  0.5309 -2.3652
17537TIP3    H274027   1.549   3.534  16.414 -0.1778 -0.9304  2.9004
17538TIP3   OH274028   6.326   1.549  13.474 -0.2229  0.4193 -0.0026
17538TIP3    H174029   6.284   1.502  13.546 -0.4639  0.0537 -0.3803
17538TIP3    H274030   6.295   1.639  13.483 -0.7465  0.2435 -0.0203
17539TIP3   OH274031   3.167   5.659  15.777 -0.3526 -0.1432  0.1497
17539TIP3    H174032   3.093   5.604  15.802 -0.9608  0.7903  0.4273
17539TIP3    H274033   3.244   5.611  15.808 -0.9577 -0.1931  1.5949
17540TIP3   OH274034   3.564   4.456   0.127  0.2606  0.2922 -0.1594
17540TIP3    H174035   3.505   4.496   0.191  0.6870 -0.0851  0.4739
17540TIP3    H274036   3.609   4.530   0.086 -0.5012  0.5726 -0.5139
17541TIP3   OH274037   0.818   5.930  12.608  0.2600 -0.3586  0.1542
17541TIP3    H174038   0.901   5.962  12.645  0.6716  0.7649 -1.6894
17541TIP3    H274039   0.843   5.891  12.524 -1.0597 -0.2480 -0.2989
17542TIP3   OH274040   1.504   5.372   5.290 -0.2741  0.2126 -0.1425
17542TIP3    H174041   1.514   5.437   5.221 -1.3762  2.9409  2.1828
17542TIP3    H274042   1.410   5.352   5.291 -0.0886 -0.7115 -0.1957
17543TIP3   OH274043   3.687   0.153   0.983 -0.0598  0.8162 -0.7730
17543TIP3    H174044   3.592   0.146   0.981  0.0365 -1.7973  0.9829
17543TIP3    H274045   3.704   0.238   1.023 -1.7107  0.6405  0.3747
17544TIP3   OH274046   4.679   5.233  17.125  0.2014  0.5762 -0.2874
17544TIP3    H174047   4.726   5.227  17.042 -1.2576 -0.7176 -1.0553
17544TIP3    H274048   4.590   5.204  17.104 -0.9887  3.0849  1.0783
17545TIP3   OH274049   2.579   1.079  14.118 -0.2417  0.2419 -0.6937
17545TIP3    H174050   2.654   1.044  14.071 -0.5446 -1.4453  0.0521
17545TIP3    H274051   2.503   1.057  14.064 -0.7153 -2.7396  1.0596
17546TIP3   OH274052   2.337   3.401   5.120 -0.3230 -0.6062 -0.0335
17546TIP3    H174053   2.402   3.436   5.181 -1.0643 -1.5841  1.3071
17546TIP3    H274054   2.380   3.325   5.080  1.0793  1.4222 -2.5458
17547TIP3   OH274055   5.222   5.730  13.802  0.0608 -0.6041 -0.4250
17547TIP3    H174056   5.303   5.764  13.763  0.6366 -0.7718  0.6198
17547TIP3    H274057   5.152   5.774  13.753  0.7812 -0.1212 -1.0357
17548TIP3   OH274058   0.096   2.001   6.101  0.0100 -0.6143  0.0465
17548TIP3    H174059   0.054   2.066   6.045  1.7049 -0.4601 -1.0854
17548TIP3    H274060   0.050   2.008   6.185 -0.3867  1.4463 -0.3153
17549TIP3   OH274061   2.093   1.990  15.575 -0.4871  0.6222  0.1993
17549TIP3    H174062   2.135   1.985  15.661  0.1228  1.2179 -0.0567
17549TIP3    H274063   2.100   1.901  15.540 -0.4672  0.4494  0.6383
17550TIP3   OH274064   6.361   3.545  11.249 -0.2587 -0.1376 -0.4969
17550TIP3    H174065   6.294   3.595  11.202  0.2683  0.4269 -0.6570
17550TIP3    H274066   6.441   3.597  11.239 -0.0637 -0.1749  0.7491
17551TIP3   OH274067   6.681   5.397  10.344 -0.0276 -0.2655 -0.0222
17551TIP3    H174068   6.633   5.332  10.293 -0.0477 -0.9588  0.8591
17551TIP3    H274069   6.772   5.387  10.318 -0.2592  0.5353 -1.1524
17552TIP3   OH274070   2.182   1.493  13.935 -0.1050 -0.5214 -0.2062
17552TIP3    H174071   2.208   1.567  13.990  2.0374 -0.2871 -1.4821
17552TIP3    H274072   2.233   1.419  13.968 -0.1303 -0.7791 -0.7316
17553TIP3   OH274073   6.569   0.086   1.440 -0.6636 -0.5477 -0.4201
17553TIP3    H174074   6.493   0.141   1.421 -0.2853 -0.1399 -0.7630
17553TIP3    H274075   6.642   0.131   1.397 -0.1927 -0.8214  0.0948
17554TIP3   OH274076   5.272   4.346  15.700  0.1361  0.3429 -0.9127
17554TIP3    H174077   5.224   4.429  15.708 -0.0525  0.2923 -1.4321
17554TIP3    H274078   5.254   4.299  15.781  0.8633  1.1300 -0.2877
17555TIP3   OH274079   0.402   6.383  11.964 -0.0155  0.9327  0.5460
17555TIP3    H174080   0.311   6.352  11.967 -0.0636  1.1551  1.6225
17555TIP3    H274081   0.426   6.395  12.056  0.5671  2.4123  0.2148
17556TIP3   OH274082   5.175   4.279  15.185  0.1058  0.1410  0.0876
17556TIP3    H174083   5.137   4.193  15.205  0.9919 -0.2315  0.2090
17556TIP3    H274084   5.263   4.259  15.153  0.3544  1.0172  0.2165
17557TIP3   OH274085   5.157   5.414  15.213  0.1031  0.0168 -0.0641
17557TIP3    H174086   5.116   5.329  15.229  3.5374 -2.0753 -1.7729
17557TIP3    H274087   5.118   5.444  15.131  0.7173 -1.1366 -0.7861
17558TIP3   OH274088   6.718   0.104  11.958  0.1985  0.9382  0.4901
17558TIP3    H174089   6.729   0.183  11.905 -0.8700 -0.7160 -2.3135
17558TIP3    H274090   6.631   0.114  11.998  0.4301  1.5731  0.8407
17559TIP3   OH274091   5.436   0.383   0.659 -0.5134  0.1276  0.0329
17559TIP3    H174092   5.418   0.320   0.728  0.1810  0.0170  0.1183
17559TIP3    H274093   5.371   0.364   0.592 -0.5824 -0.3967  0.2437
17560TIP3   OH274094   3.636   0.550   3.887 -0.1544  0.4019 -0.2706
17560TIP3    H174095   3.600   0.524   3.802 -1.3688  0.5738  0.1810
17560TIP3    H274096   3.577   0.618   3.918  0.4151  0.4958  0.6153
17561TIP3   OH274097   4.558   3.748   4.743  0.3599 -0.0073 -0.0879
17561TIP3    H174098   4.570   3.688   4.816 -1.3257  1.7677  1.7121
17561TIP3    H274099   4.546   3.834   4.784 -3.8630  0.5422 -2.2194
17562TIP3   OH274100   2.909   4.129  14.374 -0.6632  0.4442  0.3065
17562TIP3    H174101   2.932   4.041  14.347 -0.8322  0.3324  0.5156
17562TIP3    H274102   2.813   4.128  14.380 -0.7762  1.0883 -1.1883
17563TIP3   OH274103   1.560   4.711  13.892 -0.3650 -0.3204  0.3948
17563TIP3    H174104   1.617   4.648  13.850  1.3256  0.4188  1.5274
17563TIP3    H274105   1.617   4.784  13.916 -1.8086  0.5449  1.3276
17564TIP3   OH274106   1.992   4.026  15.560 -0.2361  0.2597  0.3995
17564TIP3    H174107   2.061   4.053  15.621  0.0279  0.7002 -0.0965
17564TIP3    H274108   2.037   3.978  15.491 -0.4271  0.5217  0.0884
17565TIP3   OH274109   2.678   3.164  13.364 -0.0501 -0.1634  0.1104
17565TIP3    H174110   2.750   3.121  13.317 -0.5449 -0.7504 -0.1208
17565TIP3    H274111   2.602   3.153  13.306  0.2431  2.9105 -0.9830
17566TIP3   OH274112   3.592   5.360  13.578  0.4201 -0.2525 -0.1504
17566TIP3    H174113   3.684   5.337  13.566  0.1226 -2.1346  1.0172
17566TIP3    H274114   3.555   5.359  13.490  1.7847  1.8217 -0.7805
17567TIP3   OH274115   0.017   6.550  14.708  0.1295 -0.2002  0.2348
17567TIP3    H174116   0.073   6.472  14.712  0.8897  0.3247 -0.1277
17567TIP3    H274117   0.078   6.624  14.713 -0.7234  0.3884  2.4190
17568TIP3   OH274118   6.396   5.825   5.355  0.4357  0.2718  0.4203
17568TIP3    H174119   6.375   5.732   5.363 -0.8740  0.6536  1.4571
17568TIP3    H274120   6.457   5.842   5.427  0.1685  0.3672  0.6227
17569TIP3   OH274121   3.985   3.479   4.589 -0.7106  0.6173 -0.0367
17569TIP3    H174122   3.958   3.570   4.601  0.3952  0.9454  0.0543
17569TIP3    H274123   4.063   3.470   4.643 -0.2863 -0.1359 -0.7592
17570TIP3   OH274124   5.720   1.850   1.714  0.3359  0.6466 -0.7503
17570TIP3    H174125   5.707   1.772   1.768  0.5833  0.2705 -1.2338
17570TIP3    H274126   5.682   1.828   1.629 -0.2559  1.3224 -0.6676
17571TIP3   OH274127   6.179   2.037   1.639  0.3310 -0.0197 -0.2091
17571TIP3    H174128   6.231   1.976   1.690  0.6099  1.5184  1.4075
17571TIP3    H274129   6.095   2.041   1.685 -0.1948 -0.2836 -1.1380
17572TIP3   OH274130   6.314   1.182   0.086  0.4343  0.1501 -0.0790
17572TIP3    H174131   6.293   1.270   0.056  0.2220  0.2440  0.3463
17572TIP3    H274132   6.391   1.193   0.141 -0.1282  0.1920  0.7037
17573TIP3   OH274133   3.326   4.628   0.926  0.2225  0.1772 -0.2628
17573TIP3    H174134   3.269   4.552   0.912 -0.9959  0.9569  0.3169
17573TIP3    H274135   3.415   4.594   0.914 -0.3486 -1.1096 -0.9875
17574TIP3   OH274136   4.602   2.799   5.519 -0.3046 -0.4914  0.0552
17574TIP3    H174137   4.560   2.721   5.557  0.9715 -1.0797  0.2920
17574TIP3    H274138   4.576   2.870   5.577  0.2912 -1.1122  1.1059
17575TIP3   OH274139   6.683   6.335   4.692 -0.0715 -0.1142  0.4730
17575TIP3    H174140   6.678   6.410   4.752 -1.9604 -0.6457  1.0172
17575TIP3    H274141   6.593   6.301   4.688  0.4687 -1.4629 -0.9141
17576TIP3   OH274142   0.677   0.044  13.628 -0.8312 -0.1338  0.0687
17576TIP3    H174143   0.640   0.042  13.716 -0.9645  1.3789  0.0552
17576TIP3    H274144   0.685  -0.048  13.603 -2.1930 -0.5326  1.0730
17577TIP3   OH274145   1.132   4.175  14.728  0.2330 -0.6991  0.2901
17577TIP3    H174146   1.164   4.105  14.784 -1.6628 -0.4520  1.7071
17577TIP3    H274147   1.103   4.244  14.788 -0.8006  0.0271 -1.0042
17578TIP3   OH274148   6.220   1.643  12.499 -0.7138  0.4710 -0.8877
17578TIP3    H174149   6.252   1.731  12.517 -1.0478  0.6674 -1.2399
17578TIP3    H274150   6.134   1.640  12.540 -0.1403 -0.1520  0.3033
17579TIP3   OH274151   6.718   0.950  13.357 -0.1408 -0.6157 -0.3283
17579TIP3    H174152   6.645   0.912  13.309  0.8068 -2.1559 -0.5651
17579TIP3    H274153   6.795   0.902  13.326  0.6121 -0.9690  1.9921
17580TIP3   OH274154   5.535   3.714  16.125  0.0036 -0.4540 -0.1644
17580TIP3    H174155   5.540   3.671  16.040  0.7997 -0.4222 -0.1420
17580TIP3    H274156   5.442   3.713  16.148 -0.1361 -1.0053 -0.7537
17581TIP3   OH274157   4.640   3.077   5.360 -0.8620  0.1274 -0.7054
17581TIP3    H174158   4.646   3.172   5.346 -1.1369  0.3108  0.4043
17581TIP3    H274159   4.731   3.048   5.369 -0.8120  0.3992 -0.3259
17582TIP3   OH274160   2.236   0.047   4.542  0.1547  1.0785 -0.0949
17582TIP3    H174161   2.264   0.031   4.452 -0.2963  0.2900 -0.0988
17582TIP3    H274162   2.317   0.058   4.591  0.4331  0.4663 -0.4092
17583TIP3   OH274163   4.792   3.820   3.082  0.3763 -0.6302  0.1177
17583TIP3    H174164   4.719   3.764   3.054  1.3241 -1.3018 -1.0221
17583TIP3    H274165   4.778   3.902   3.034  0.9847 -1.1479 -0.9578
17584TIP3   OH274166   1.132   1.048  12.423  0.5182  0.0461  0.1130
17584TIP3    H174167   1.189   1.069  12.349  1.7265 -0.0923  0.9779
17584TIP3    H274168   1.157   1.110  12.491  0.9834 -1.2409  1.1496
17585TIP3   OH274169   3.080   2.652   0.966 -0.5013 -0.6681 -0.2182
17585TIP3    H174170   3.079   2.723   0.902  0.9833  0.8664  1.3915
17585TIP3    H274171   3.125   2.580   0.921  0.6398  0.4270 -0.8806
17586TIP3   OH274172   4.883   0.843   2.771 -0.2280 -0.6825  0.2685
17586TIP3    H174173   4.815   0.782   2.743  0.5424 -1.2084 -0.4782
17586TIP3    H274174   4.924   0.873   2.689 -0.3801  0.5893  0.6363
17587TIP3   OH274175   2.220   2.549  10.974  0.2598  0.2393 -0.7884
17587TIP3    H174176   2.230   2.465  10.929  2.0623  0.2303 -0.3864
17587TIP3    H274177   2.299   2.598  10.952 -0.5912  1.6772 -0.6816
17588TIP3   OH274178   3.889   1.952  11.373 -0.3060 -0.3479  0.3636
17588TIP3    H174179   3.826   2.016  11.340  0.5683 -0.1792 -1.0199
17588TIP3    H274180   3.972   1.999  11.375 -0.0616 -0.8117  1.3924
17589TIP3   OH274181   2.173   2.719  12.225  0.2158 -0.1398  0.2148
17589TIP3    H174182   2.211   2.745  12.309  0.0920  1.1584 -0.1271
17589TIP3    H274183   2.095   2.668  12.249 -0.5650  1.3263  0.9039
17590TIP3   OH274184   6.698   4.722  13.478  0.3854 -0.8590 -0.4027
17590TIP3    H174185   6.717   4.803  13.430  1.5066 -0.3604  0.8439
17590TIP3    H274186   6.603   4.715  13.475 -0.0239  2.3407  2.3397
17591TIP3   OH274187   4.213   4.194  15.566 -0.2310  0.9085 -0.1755
17591TIP3    H174188   4.164   4.156  15.493  0.1751  1.0009 -0.5011
17591TIP3    H274189   4.165   4.167  15.644  0.6331 -1.1864 -0.3321
17592TIP3   OH274190   3.263   2.468  16.896 -0.6182  0.0607 -0.3909
17592TIP3    H174191   3.233   2.379  16.914 -0.3792  0.1482  0.4566
17592TIP3    H274192   3.291   2.465  16.804  4.5542 -2.2161  1.0510
17593TIP3   OH274193   2.033   0.621  15.017  0.4546  0.3034  0.3733
17593TIP3    H174194   2.041   0.548  15.078  0.8994 -0.1586 -0.2268
17593TIP3    H274195   1.967   0.678  15.056  0.5944 -0.0793  1.1826
17594TIP3   OH274196   5.952   1.889   5.039 -0.1426  0.0889 -0.2995
17594TIP3    H174197   5.979   1.957   4.976 -0.5760  0.5087 -0.0355
17594TIP3    H274198   5.933   1.813   4.985  2.8463 -0.6398 -0.3986
17595TIP3   OH274199   5.802   2.410  12.607  0.2608  0.7731 -0.0629
17595TIP3    H174200   5.858   2.368  12.672 -1.0172 -1.1458 -0.1382
17595TIP3    H274201   5.838   2.382  12.523  0.3286  1.0924 -0.1415
17596TIP3   OH274202   6.597   4.768  16.273 -0.6321  0.1513 -0.4227
17596TIP3    H174203   6.570   4.769  16.365  0.3882 -2.6664 -0.0276
17596TIP3    H274204   6.516   4.751  16.225 -0.7884 -0.8818  0.1784
17597TIP3   OH274205   2.378   4.962   5.494 -0.1034 -0.3626  0.2750
17597TIP3    H174206   2.360   4.869   5.505 -0.3951 -0.2111  1.1443
17597TIP3    H274207   2.448   4.966   5.430 -0.9669 -1.1271 -0.7390
17598TIP3   OH274208   2.631   4.310  17.176 -0.1855  0.1902  0.1039
17598TIP3    H174209   2.544   4.299  17.214 -0.2540  0.4901  0.0402
17598TIP3    H274210   2.691   4.293  17.248 -0.2556 -1.4143 -0.1944
17599TIP3   OH274211   0.598   1.297  11.346  0.0784 -0.0324 -0.0482
17599TIP3    H174212   0.656   1.325  11.275 -0.5817  0.2390 -0.4913
17599TIP3    H274213   0.512   1.289  11.305 -0.4116  0.6082  0.8174
17600TIP3   OH274214   0.137   0.502   1.561  0.5683  0.1711  0.0413
17600TIP3    H174215   0.101   0.420   1.526 -0.2733  0.9786 -1.0285
17600TIP3    H274216   0.189   0.475   1.636  2.0385 -1.5961 -1.5328
17601TIP3   OH274217   2.898   5.169   6.473  0.4625 -0.4048 -0.3769
17601TIP3    H174218   2.882   5.228   6.547  2.1425 -0.1158 -0.2178
17601TIP3    H274219   2.869   5.219   6.397  1.3965  0.4420 -0.1910
17602TIP3   OH274220   4.135   2.539   4.237  0.0937 -0.5722  0.6534
17602TIP3    H174221   4.100   2.465   4.187 -1.0933 -0.4095  1.2453
17602TIP3    H274222   4.168   2.500   4.318  0.8579 -0.6567  0.3080
17603TIP3   OH274223   0.442   6.543  11.739  0.4297 -0.2463  0.1395
17603TIP3    H174224   0.422   6.476  11.805  0.9585 -0.9010 -0.3550
17603TIP3    H274225   0.362   6.546  11.685  1.4952 -2.7197 -1.7098
17604TIP3   OH274226   1.813   5.892   2.777  0.0979 -0.3276 -0.3492
17604TIP3    H174227   1.871   5.826   2.739 -0.1457 -0.7806  0.0656
17604TIP3    H274228   1.759   5.844   2.840  1.4670  0.6672  1.6336
17605TIP3   OH274229   3.641   0.525   0.574 -0.2424 -0.2506  0.0431
17605TIP3    H174230   3.674   0.557   0.658 -0.2435 -1.2446  0.4183
17605TIP3    H274231   3.708   0.464   0.543  0.1874  0.7704 -1.1004
17606TIP3   OH274232   4.900   0.971   1.746 -0.2441  0.1804  0.0647
17606TIP3    H174233   4.965   1.039   1.725 -0.3647  0.0746 -0.6708
17606TIP3    H274234   4.848   1.010   1.816  0.8583  0.1104  0.9514
17607TIP3   OH274235   6.136   2.061  14.473  0.2743  0.2119  0.4232
17607TIP3    H174236   6.219   2.021  14.499  0.2596 -0.1184 -0.0179
17607TIP3    H274237   6.086   2.069  14.554  0.7197  0.3611  0.6783
17608TIP3   OH274238   3.917   1.270   5.013  0.2405 -0.1113 -0.1672
17608TIP3    H174239   3.891   1.242   4.925 -1.2336 -1.4424  0.6815
17608TIP3    H274240   3.949   1.359   5.000  0.4371 -0.4279 -2.1241
17609TIP3   OH274241   0.529   1.027   5.211  0.3123 -0.1039  0.2462
17609TIP3    H174242   0.470   0.958   5.182  0.8007 -0.1114 -0.7663
17609TIP3    H274243   0.520   1.095   5.144  0.6400  0.3496  0.6580
17610TIP3   OH274244   1.826   4.742  16.022  0.1963 -0.0600 -0.5322
17610TIP3    H174245   1.900   4.729  16.081  0.4694 -0.6811 -1.0016
17610TIP3    H274246   1.749   4.731  16.077  0.4463 -0.5698 -0.2796
17611TIP3   OH274247   1.113   0.676   2.473  0.6880 -0.0125  0.6677
17611TIP3    H174248   1.074   0.688   2.559  0.0001 -1.5015  0.5753
17611TIP3    H274249   1.145   0.586   2.473  0.2850 -0.1707 -0.7783
17612TIP3   OH274250   5.316   1.173   1.572 -0.5468  0.0761 -0.0921
17612TIP3    H174251   5.385   1.149   1.634  0.0213 -0.3641 -0.8831
17612TIP3    H274252   5.361   1.222   1.504 -1.1207  0.3071 -0.3032
17613TIP3   OH274253   6.670   3.787  13.264  0.6266  0.3766  0.0435
17613TIP3    H174254   6.593   3.753  13.217  0.4178  1.2934 -0.2866
17613TIP3    H274255   6.743   3.734  13.231 -0.1110 -1.8247  1.7870
17614TIP3   OH274256   0.918   4.985   1.534  0.3623  0.2484 -0.1524
17614TIP3    H174257   1.010   4.964   1.518 -0.0893 -1.0341 -1.1341
17614TIP3    H274258   0.902   4.955   1.624  1.6372  3.0866  1.0687
17615TIP3   OH274259   1.499   3.036  13.058 -0.2101 -0.0591 -0.8100
17615TIP3    H174260   1.422   3.037  13.115 -0.3153  1.8709 -0.9331
17615TIP3    H274261   1.564   3.089  13.105 -0.5156  2.1187 -2.7241
17616TIP3   OH274262   6.227   1.998  14.819  0.2215  0.7503  0.2877
17616TIP3    H174263   6.165   2.063  14.786 -0.0499  0.8315  0.9643
17616TIP3    H274264   6.258   2.033  14.902  1.8494  1.1435 -0.4530
17617TIP3   OH274265   2.459   4.606  15.099  0.3380  0.5338  0.0909
17617TIP3    H174266   2.479   4.597  15.192  0.0213  0.7629  0.1812
17617TIP3    H274267   2.375   4.651  15.097 -0.9719 -1.8232 -0.2343
17618TIP3   OH274268   6.310   6.661   3.792  0.3144  0.0828  0.0073
17618TIP3    H174269   6.285   6.741   3.746 -1.3444 -0.3014  0.1940
17618TIP3    H274270   6.398   6.641   3.760  0.6496  1.8584 -0.1941
17619TIP3   OH274271   1.382   2.923   4.944  0.0376  0.4974  0.2350
17619TIP3    H174272   1.303   2.978   4.937  0.6636  1.6660  2.0280
17619TIP3    H274273   1.410   2.934   5.035  1.4743 -1.0352 -0.0121
17620TIP3   OH274274   1.398   5.699   3.638  0.0606 -0.5758 -1.0292
17620TIP3    H174275   1.469   5.720   3.577  0.3598  1.3791 -0.0269
17620TIP3    H274276   1.435   5.716   3.724 -0.9062 -1.7302 -0.3814
17621TIP3   OH274277   2.285   6.775  14.691 -0.3227  0.1123 -0.0761
17621TIP3    H174278   2.334   6.801  14.769 -0.9600  2.7551 -0.5147
17621TIP3    H274279   2.196   6.759  14.723  0.3211 -2.7643  0.3858
17622TIP3   OH274280   4.365   2.076   0.734  0.3691 -0.2911 -0.0214
17622TIP3    H174281   4.393   2.080   0.642 -2.6049 -0.6363 -1.0064
17622TIP3    H274282   4.384   2.162   0.769  0.5523  0.1927 -1.2838
17623TIP3   OH274283   1.555   0.147  11.502 -0.1778  0.6024  0.9029
17623TIP3    H174284   1.623   0.143  11.569  0.1073  1.8485  0.7136
17623TIP3    H274285   1.562   0.236  11.467  2.3597 -1.1652 -3.5745
17624TIP3   OH274286   1.407   1.764  12.368  0.6314  0.3896 -0.1997
17624TIP3    H174287   1.451   1.779  12.285  0.2042 -0.5410 -0.5966
17624TIP3    H274288   1.333   1.825  12.367  0.2249 -0.1078 -0.8128
17625TIP3   OH274289   0.171   6.261  12.060  0.0794 -0.0547  0.5260
17625TIP3    H174290   0.092   6.222  12.022  0.2648  0.3184 -0.2572
17625TIP3    H274291   0.179   6.221  12.146 -1.1365  0.1274  0.7318
17626TIP3   OH274292   6.742   4.397  13.509  0.1889  0.0356 -0.2582
17626TIP3    H174293   6.793   4.473  13.536 -1.1181  1.3115 -1.2765
17626TIP3    H274294   6.731   4.408  13.415  0.0303 -1.4502 -0.4247
17627TIP3   OH274295   4.578   2.940  13.521  1.0194  0.1643 -0.4346
17627TIP3    H174296   4.625   2.879  13.578 -0.5059 -0.4887  0.1473
17627TIP3    H274297   4.523   2.885  13.466 -0.4590  1.0049  0.1757
17628TIP3   OH274298   1.576   1.400  14.013  0.5074  0.2146  0.0296
17628TIP3    H174299   1.486   1.432  14.008  0.2011 -0.6915 -0.3348
17628TIP3    H274300   1.574   1.313  13.972  1.5369  0.1656  0.0489
17629TIP3   OH274301   2.726   3.062   0.293 -0.2346  0.0727  0.5440
17629TIP3    H174302   2.697   2.988   0.348  0.3355 -0.6137 -0.0667
17629TIP3    H274303   2.688   3.044   0.207  1.6368 -0.6389 -0.1689
17630TIP3   OH274304   0.497   0.034   0.084 -0.0093 -0.0099 -0.2237
17630TIP3    H174305   0.468   0.081   0.006  0.4471  1.9349  0.7591
17630TIP3    H274306   0.593   0.039   0.080  0.0854 -2.0155 -0.8034
17631TIP3   OH274307   4.918   2.423   5.829  0.0967  0.0751  0.3946
17631TIP3    H174308   4.930   2.516   5.808  1.1729 -0.3495 -0.9119
17631TIP3    H274309   4.842   2.396   5.777  0.4874 -0.0580 -0.1081
17632TIP3   OH274310   5.728   5.696  16.277 -0.0957  0.6018 -0.4547
17632TIP3    H174311   5.668   5.763  16.245  0.7902  0.3234 -2.7294
17632TIP3    H274312   5.684   5.613  16.256 -0.8446  0.4109  1.6910
17633TIP3   OH274313   1.133   5.902   5.523  0.3636 -0.0119 -0.6044
17633TIP3    H174314   1.153   5.937   5.609 -0.9137 -0.3298 -0.1670
17633TIP3    H274315   1.195   5.830   5.511 -1.1167 -1.6046  1.1212
17634TIP3   OH274316   0.444   3.263   6.024  0.0267  0.2086  0.4729
17634TIP3    H174317   0.455   3.204   6.099  0.0793 -0.5688 -0.1499
17634TIP3    H274318   0.354   3.294   6.031 -0.1860 -0.4080  0.4645
17635TIP3   OH274319   3.444   1.306  13.210 -0.7987  0.2186  1.1832
17635TIP3    H174320   3.523   1.314  13.262 -0.2393  0.7262  0.2770
17635TIP3    H274321   3.390   1.242  13.257 -0.2627  0.5786  2.2999
17636TIP3   OH274322   3.574   3.762   5.794 -0.0951 -0.2066 -0.3827
17636TIP3    H174323   3.525   3.843   5.808 -0.6180 -0.7131  0.7483
17636TIP3    H274324   3.644   3.765   5.859 -0.2936 -0.8069 -0.1395
17637TIP3   OH274325   1.529   5.670   2.239 -0.1221 -0.5040  0.3256
17637TIP3    H174326   1.517   5.602   2.305 -1.3413  0.0301  0.6769
17637TIP3    H274327   1.495   5.750   2.282  1.0087  0.2514 -0.1799
17638TIP3   OH274328   1.383   2.615  11.336 -0.0820 -0.6556  0.4150
17638TIP3    H174329   1.427   2.531  11.328  0.2491 -0.3040 -1.8499
17638TIP3    H274330   1.453   2.679  11.345 -0.2531 -0.4491  0.3065
17639TIP3   OH274331   1.862   4.810  14.048  0.3638  0.0847 -0.1279
17639TIP3    H174332   1.801   4.749  14.089  0.2971  0.1200 -0.1751
17639TIP3    H274333   1.872   4.777  13.959  0.1221  0.2923 -0.2350
17640TIP3   OH274334   5.782   4.077  16.499  0.8671 -0.4763 -0.2086
17640TIP3    H174335   5.846   4.128  16.449  0.8247 -1.0433 -0.8423
17640TIP3    H274336   5.697   4.113  16.473  0.8965 -0.1039  0.2076
17641TIP3   OH274337   2.037   4.886  12.840 -0.0528 -0.0763 -0.3772
17641TIP3    H174338   1.998   4.933  12.767  0.6631 -0.4620 -1.0141
17641TIP3    H274339   2.083   4.812  12.799  1.0751  0.1935  0.3924
17642TIP3   OH274340   0.767   1.098   5.662  0.1036 -0.1129 -0.8484
17642TIP3    H174341   0.754   1.092   5.568  1.1959  1.5792 -1.1291
17642TIP3    H274342   0.844   1.044   5.680 -0.9051 -1.5329 -0.7116
17643TIP3   OH274343   4.591   5.867   4.568  0.2592 -0.1526 -0.1031
17643TIP3    H174344   4.667   5.896   4.517  0.9047 -0.2970  0.7728
17643TIP3    H274345   4.542   5.948   4.585  1.6819  0.3677  1.7201
17644TIP3   OH274346   3.575   6.779  15.677 -0.5605  0.2818 -0.4055
17644TIP3    H174347   3.549   6.716  15.610 -1.6695  0.4361 -0.1276
17644TIP3    H274348   3.565   6.732  15.760  1.2567 -0.0640 -0.3461
17645TIP3   OH274349   3.743   3.788  14.623 -0.2034 -0.3283 -0.1351
17645TIP3    H174350   3.838   3.783  14.608 -0.3786  0.1984 -1.4539
17645TIP3    H274351   3.729   3.736  14.703  1.4096  0.9630  1.0368
17646TIP3   OH274352   5.852   3.834  12.712 -0.0186  0.3239 -0.2676
17646TIP3    H174353   5.938   3.796  12.692 -1.0523 -2.1554 -0.2485
17646TIP3    H274354   5.841   3.818  12.806 -0.9287 -0.3374 -0.4803
17647TIP3   OH274355   5.282   4.481   3.360  0.3377  0.1725 -0.0205
17647TIP3    H174356   5.317   4.418   3.296  1.7335  1.7945 -0.8961
17647TIP3    H274357   5.214   4.529   3.312  2.7659  2.7707 -0.9938
17648TIP3   OH274358   6.558   2.784  14.011 -0.4769 -0.0047  0.2947
17648TIP3    H174359   6.507   2.822  14.082  0.0334  1.7610 -0.2410
17648TIP3    H274360   6.502   2.793  13.934 -0.5765 -0.8577  0.2731
17649TIP3   OH274361   1.646   5.287   4.050  0.1518  0.4794 -0.5200
17649TIP3    H174362   1.719   5.349   4.056 -0.3845  1.1459 -0.8586
17649TIP3    H274363   1.642   5.245   4.136 -0.1179  1.6309  0.0274
17650TIP3   OH274364   5.269   1.682  13.063 -0.3488 -0.3320 -0.6903
17650TIP3    H174365   5.178   1.654  13.056 -0.4848  0.3254 -1.6861
17650TIP3    H274366   5.317   1.604  13.091 -1.4010 -0.3647  1.0897
17651TIP3   OH274367   2.235   2.750  12.498  0.2715  0.0410 -0.0128
17651TIP3    H174368   2.240   2.656  12.511 -0.1174  0.1975  1.2958
17651TIP3    H274369   2.141   2.771  12.504  0.3473  0.5108 -0.3501
17652TIP3   OH274370   5.904   4.974  16.254  0.4593  0.1258 -0.0307
17652TIP3    H174371   5.933   5.062  16.277  0.1099  0.1040  0.4871
17652TIP3    H274372   5.841   4.987  16.183  1.2412  0.2159 -0.7241
17653TIP3   OH274373   2.874   3.866   2.265  0.3940 -0.0683  0.5596
17653TIP3    H174374   2.854   3.957   2.245  1.6485  0.4207  1.4676
17653TIP3    H274375   2.927   3.836   2.191 -2.8281 -1.1091 -1.4215
17654TIP3   OH274376   1.257   3.587   1.440 -0.0691  0.0239  0.0781
17654TIP3    H174377   1.319   3.519   1.415 -0.6789 -0.5676  0.1709
17654TIP3    H274378   1.293   3.668   1.404  0.6407 -0.3548 -0.0514
17655TIP3   OH274379   4.582   2.211   0.296  0.3984 -0.4839 -0.0964
17655TIP3    H174380   4.576   2.190   0.202 -1.8262 -0.2806 -0.0403
17655TIP3    H274381   4.560   2.129   0.340 -1.7095  0.2036  0.1892
17656TIP3   OH274382   4.377   6.740   4.595 -0.6688  0.1065 -0.1573
17656TIP3    H174383   4.374   6.805   4.524  0.3830  1.1495  0.7419
17656TIP3    H274384   4.336   6.784   4.669 -0.2439 -0.3737  0.3652
17657TIP3   OH274385   1.974   6.250  14.334  0.6396 -0.0918 -0.2210
17657TIP3    H174386   1.992   6.198  14.413 -1.0368 -0.9534 -0.3820
17657TIP3    H274387   1.893   6.297  14.353 -0.2158 -0.9063 -1.6897
17658TIP3   OH274388   3.477   5.630   5.803  0.0906 -0.1492 -0.4794
17658TIP3    H174389   3.508   5.720   5.795 -0.8094 -0.0736 -3.4262
17658TIP3    H274390   3.439   5.626   5.891  1.4175  1.9219  0.2230
17659TIP3   OH274391   3.037   6.620   0.677  0.2969  0.8380 -0.3392
17659TIP3    H174392   3.026   6.713   0.698  1.4531  0.9217 -0.1024
17659TIP3    H274393   2.957   6.579   0.709  1.7430  1.0422  3.8421
17660TIP3   OH274394   5.246   6.388  12.839 -0.3569  0.0884  0.4918
17660TIP3    H174395   5.314   6.399  12.906  0.7694  1.7210 -0.8854
17660TIP3    H274396   5.287   6.333  12.772 -1.1472 -0.7249  0.6713
17661TIP3   OH274397   5.336   3.961  11.629 -0.3331  0.0149  0.1596
17661TIP3    H174398   5.294   4.006  11.556 -0.7942  0.0286  0.4279
17661TIP3    H274399   5.382   4.030  11.677 -1.1911  0.2416  0.6763
17662TIP3   OH274400   0.948   0.130  13.297 -0.2901  0.2515  0.1536
17662TIP3    H174401   1.019   0.194  13.299 -0.1230  0.0381  1.2500
17662TIP3    H274402   0.935   0.112  13.204  1.1196  0.2769 -0.0686
17663TIP3   OH274403   1.198   4.046   4.133  0.1854  0.4204 -0.3894
17663TIP3    H174404   1.257   4.019   4.063  0.8269  1.6825 -0.3610
17663TIP3    H274405   1.242   4.019   4.214 -0.9091 -1.7149 -0.4711
17664TIP3   OH274406   6.454   4.801   3.397  0.0781 -0.9686 -0.2426
17664TIP3    H174407   6.534   4.836   3.358  0.7817 -2.0295  0.2032
17664TIP3    H274408   6.474   4.708   3.411 -1.0442 -1.1216  0.3591
17665TIP3   OH274409   4.594   6.631  13.312 -0.1810  0.1271  0.2663
17665TIP3    H174410   4.585   6.585  13.396 -0.8397 -1.6439 -0.7642
17665TIP3    H274411   4.508   6.624  13.271  0.5437 -0.3013 -1.2157
17666TIP3   OH274412   3.764   4.337  11.277 -0.5254 -0.2040 -0.4633
17666TIP3    H174413   3.765   4.385  11.360 -0.9119 -0.9713 -0.0161
17666TIP3    H274414   3.845   4.363  11.234 -1.4476  2.0423 -0.8990
17667TIP3   OH274415   4.523   1.413   2.044  1.0754 -0.7630 -0.0797
17667TIP3    H174416   4.485   1.498   2.067  0.8521 -0.3779 -1.7447
17667TIP3    H274417   4.599   1.404   2.101  0.0928 -0.2428  1.3195
17668TIP3   OH274418   1.872   5.359   4.460 -0.6151 -0.4186 -0.7642
17668TIP3    H174419   1.807   5.404   4.405 -1.6294 -1.6565 -0.6080
17668TIP3    H274420   1.821   5.325   4.534  0.4008 -0.4885 -0.0842
17669TIP3   OH274421   4.876   3.014   5.726 -0.1759 -0.5169 -0.3560
17669TIP3    H174422   4.918   3.099   5.715 -0.1930 -0.7593 -2.5009
17669TIP3    H274423   4.817   3.025   5.800 -0.1853  1.3381 -0.6345
17670TIP3   OH274424   3.159   4.180   0.661 -0.1046 -0.0218 -0.0757
17670TIP3    H174425   3.148   4.217   0.573  0.0543 -0.6639 -0.3623
17670TIP3    H274426   3.069   4.159   0.689 -0.0773 -0.5602 -0.3995
17671TIP3   OH274427   0.951   1.263  12.205  0.5439 -0.4363  0.0586
17671TIP3    H174428   0.879   1.296  12.151 -0.0475 -1.8605 -0.0591
17671TIP3    H274429   0.914   1.257  12.293  1.0978  0.6177  0.3609
17672TIP3   OH274430   3.760   4.515   3.313  0.5561 -0.0326 -0.0813
17672TIP3    H174431   3.719   4.536   3.397 -0.0834 -2.8360  0.3544
17672TIP3    H274432   3.687   4.512   3.251  0.5344 -1.5444  0.0024
17673TIP3   OH274433   2.594   0.825   0.086  0.1165  0.2242  0.0276
17673TIP3    H174434   2.553   0.739   0.086  0.5663 -0.0448  2.2632
17673TIP3    H274435   2.661   0.820   0.018 -0.2457 -0.9983 -0.2492
17674TIP3   OH274436   6.317   3.520   0.039  0.2629 -0.4145  0.4887
17674TIP3    H174437   6.320   3.467  -0.041  0.4095  0.6239 -0.1985
17674TIP3    H274438   6.256   3.474   0.096 -0.7593 -0.5181 -0.6786
17675TIP3   OH274439   3.871   3.802   1.377  0.0994 -0.3877  0.8908
17675TIP3    H174440   3.965   3.813   1.364  0.2189 -0.6649  1.4885
17675TIP3    H274441   3.855   3.839   1.464 -0.2721 -0.7155  0.9624
17676TIP3   OH274442   4.117   6.138   3.794  0.1369 -0.1054 -0.1127
17676TIP3    H174443   4.077   6.106   3.875 -0.2300  0.4154 -0.0839
17676TIP3    H274444   4.075   6.222   3.778  0.1272 -0.2512 -0.9022
17677TIP3   OH274445   6.038   5.367  10.413 -1.0128  0.6113 -0.2224
17677TIP3    H174446   6.122   5.365  10.460 -1.0671  2.0408 -0.0439
17677TIP3    H274447   6.031   5.280  10.374 -0.5011 -0.2674  1.5993
17678TIP3   OH274448   2.867   1.661  13.319 -0.0846 -0.0161 -0.1644
17678TIP3    H174449   2.921   1.625  13.249  0.5844  2.3079 -0.9117
17678TIP3    H274450   2.867   1.594  13.387  2.8603 -0.5576 -0.6175
17679TIP3   OH274451   3.043   0.779  11.310 -0.4017 -0.7891  0.2055
17679TIP3    H174452   3.067   0.870  11.328  0.8102 -0.9778 -0.4152
17679TIP3    H274453   3.126   0.736  11.289 -0.8518 -2.2390  1.3276
17680TIP3   OH274454   4.609   2.052  14.486  0.2578  0.1408  0.1328
17680TIP3    H174455   4.656   2.019  14.563  1.8613 -0.1829 -0.9522
17680TIP3    H274456   4.552   2.121  14.520  0.5281 -0.3875  1.6934
17681TIP3   OH274457   2.185   4.002  11.531 -0.6752 -0.0352 -0.0627
17681TIP3    H174458   2.111   3.993  11.472 -0.1617 -2.0096 -0.4283
17681TIP3    H274459   2.215   3.913  11.546  0.2775  0.5713  1.8128
17682TIP3   OH274460   5.185   5.611  15.603  0.3935 -0.4282  0.4605
17682TIP3    H174461   5.191   5.526  15.646 -0.0385  0.0243  1.4404
17682TIP3    H274462   5.146   5.669  15.669 -1.6350 -0.0574 -1.0150
17683TIP3   OH274463   0.710   4.120  15.176  0.3586  0.4371  0.0030
17683TIP3    H174464   0.638   4.129  15.115  0.5530  1.2904 -0.0966
17683TIP3    H274465   0.686   4.045  15.231 -0.1765  0.1620 -0.6064
17684TIP3   OH274466   0.289   5.615  11.671  0.0616 -0.2644  0.3863
17684TIP3    H174467   0.302   5.577  11.758 -0.0993  0.3707  0.6932
17684TIP3    H274468   0.338   5.697  11.673  0.7136 -0.6268 -0.3912
17685TIP3   OH274469   0.323   4.187   5.344 -0.6922 -0.5744  0.1763
17685TIP3    H174470   0.384   4.136   5.396  1.4470  2.1669  0.4837
17685TIP3    H274471   0.345   4.167   5.253  3.0376  2.8472  0.1901
17686TIP3   OH274472   0.839   0.748  14.726  0.4463  0.3872 -0.1983
17686TIP3    H174473   0.805   0.666  14.691  3.7087 -1.4689  0.7136
17686TIP3    H274474   0.871   0.796  14.649  0.6046 -0.2407 -0.5282
17687TIP3   OH274475   6.255   6.684  15.998  0.6166 -0.4493 -0.1652
17687TIP3    H174476   6.267   6.632  16.078  2.8624  0.6822  0.2560
17687TIP3    H274477   6.169   6.725  16.010  1.8965  1.5522  2.7802
17688TIP3   OH274478   3.556   2.221   1.666  0.3575 -0.0333 -0.1007
17688TIP3    H174479   3.594   2.195   1.582 -1.3645 -0.6984 -0.6934
17688TIP3    H274480   3.631   2.251   1.718  1.4711  0.1993 -1.7951
17689TIP3   OH274481   1.692   3.308  13.577 -0.2684 -0.6563 -0.2037
17689TIP3    H174482   1.758   3.265  13.521  1.3668  0.4634  0.8107
17689TIP3    H274483   1.743   3.345  13.649 -2.1315 -0.4031  1.0025
17690TIP3   OH274484   6.023   0.705   0.608  0.1454  0.2785  0.5763
17690TIP3    H174485   5.991   0.757   0.681 -0.7043 -2.0641  1.9139
17690TIP3    H274486   5.958   0.719   0.539  1.4906  3.3125 -0.1687
17691TIP3   OH274487   0.979   5.007  13.703 -0.2366  0.1712 -0.3544
17691TIP3    H174488   1.063   5.033  13.667  0.6524 -0.0106  1.5463
17691TIP3    H274489   0.930   5.089  13.711  0.8443  0.6783  1.2654
17692TIP3   OH274490   5.019   6.063  14.912 -0.5249  0.0200 -1.0614
17692TIP3    H174491   5.036   5.986  14.966  0.7193 -0.3041 -1.8852
17692TIP3    H274492   4.925   6.080  14.922 -0.7528 -1.4314 -0.6603
17693TIP3   OH274493   6.531   6.499  14.697  0.4919  0.6653  0.6853
17693TIP3    H174494   6.522   6.404  14.697  0.3058  0.6803  0.2569
17693TIP3    H274495   6.625   6.514  14.705  0.8839  0.3855 -2.6625
17694TIP3   OH274496   5.200   1.519   0.971  0.0438 -0.0826  0.2726
17694TIP3    H174497   5.196   1.426   0.948 -0.7430 -0.5841  2.3951
17694TIP3    H274498   5.109   1.544   0.985  0.2672  0.9921 -0.1551
17695TIP3   OH274499   5.778   5.477  13.234 -0.1389  0.3054 -0.5778
17695TIP3    H174500   5.690   5.511  13.251 -0.7385 -0.5388 -1.9208
17695TIP3    H274501   5.792   5.410  13.302 -0.0268  1.2859  0.3908
17696TIP3   OH274502   3.270   3.153   5.958 -0.0427 -0.8136  0.4805
17696TIP3    H174503   3.195   3.113   6.002 -1.6762  1.0983 -0.4964
17696TIP3    H274504   3.316   3.200   6.027 -2.0641  1.3883  0.3753
17697TIP3   OH274505   2.437   3.721   5.253  0.0328  0.5152 -0.0502
17697TIP3    H174506   2.498   3.654   5.223 -1.0769 -0.3465 -0.4031
17697TIP3    H274507   2.490   3.779   5.308  1.2390 -0.0242 -0.6341
17698TIP3   OH274508   4.794   1.046  12.612 -0.3043  0.5466  0.0060
17698TIP3    H174509   4.860   1.114  12.598 -0.6211  0.3583 -2.6686
17698TIP3    H274510   4.842   0.964  12.603 -0.3289  0.3939  1.1629
17699TIP3   OH274511   3.633   1.832   3.758  0.3435 -0.2375  0.1569
17699TIP3    H174512   3.552   1.884   3.761  0.7770  0.4059  1.1984
17699TIP3    H274513   3.634   1.784   3.841  1.7285  0.8617  0.8042
17700TIP3   OH274514   0.292   2.187   6.199  0.2143 -0.1233  0.1480
17700TIP3    H174515   0.222   2.247   6.175  0.5076 -0.2457 -1.0568
17700TIP3    H274516   0.349   2.239   6.257 -0.3828  0.2541  0.3962
17701TIP3   OH274517   5.023   2.070   5.248 -0.0257  0.2511 -0.0605
17701TIP3    H174518   5.060   2.023   5.174  0.7218  0.7248  0.0096
17701TIP3    H274519   4.971   2.140   5.208 -0.5848 -0.2119 -0.1524
17702TIP3   OH274520   0.631   6.640  12.636 -0.5460 -0.4407  0.1157
17702TIP3    H174521   0.572   6.610  12.567 -1.1593 -0.5915  0.6941
17702TIP3    H274522   0.718   6.612  12.608 -0.4096  1.8802 -1.9398
17703TIP3   OH274523   2.628   3.415   2.911  0.6167  0.3094 -0.0297
17703TIP3    H174524   2.556   3.461   2.956 -0.1012 -0.5577 -0.2840
17703TIP3    H274525   2.611   3.430   2.818  0.7021 -0.0053 -0.0941
17704TIP3   OH274526   5.904   3.667   2.441 -0.3117 -0.0247 -0.0533
17704TIP3    H174527   5.877   3.712   2.521 -0.3324 -1.0557  0.5133
17704TIP3    H274528   5.822   3.645   2.397 -0.3587 -1.6143  0.8239
17705TIP3   OH274529   4.709   2.671  16.040 -0.0711 -0.2832 -0.5630
17705TIP3    H174530   4.784   2.724  16.015  0.1885  0.3223  1.4557
17705TIP3    H274531   4.746   2.593  16.082 -0.4754 -1.7412 -2.8062
17706TIP3   OH274532   3.799   1.393   4.205 -0.0175  0.2402 -0.3744
17706TIP3    H174533   3.723   1.445   4.232 -0.2515  0.9950 -2.4572
17706TIP3    H274534   3.874   1.438   4.245 -0.6031 -0.3715  1.4911
17707TIP3   OH274535   4.381   6.728   3.225 -0.3581  0.2364 -0.2303
17707TIP3    H174536   4.442   6.770   3.165  0.9330 -0.0919  0.8274
17707TIP3    H274537   4.380   6.636   3.197 -0.8262  0.3629 -0.6254
17708TIP3   OH274538   5.629   4.319  13.969  0.0416  0.3336 -0.7424
17708TIP3    H174539   5.667   4.232  13.956 -1.6348 -0.9609  2.3250
17708TIP3    H274540   5.544   4.315  13.926 -0.2135  0.2879 -0.2417
17709TIP3   OH274541   5.797   6.782  11.567  0.1709  0.0697 -0.0475
17709TIP3    H174542   5.711   6.799  11.608 -0.5753  0.5851 -1.8021
17709TIP3    H274543   5.811   6.688  11.581 -0.2528  0.1598  1.0515
17710TIP3   OH274544   0.500   2.913   5.474 -0.6471  0.3195  0.1012
17710TIP3    H174545   0.517   2.968   5.398  2.4966 -1.2603 -0.3910
17710TIP3    H274546   0.584   2.873   5.495 -2.0421 -1.4008  2.7541
17711TIP3   OH274547   3.364   2.245  14.364  0.2579  0.0419 -0.4735
17711TIP3    H174548   3.291   2.290  14.320  0.7423  0.4196 -0.8936
17711TIP3    H274549   3.336   2.238  14.455 -0.6471 -0.5189 -0.7893
17712TIP3   OH274550   2.480   4.551   4.835 -0.2908  0.5877  0.0557
17712TIP3    H174551   2.559   4.506   4.865  0.0146  0.6738 -0.6061
17712TIP3    H274552   2.438   4.583   4.915  0.0625  0.0756  0.4464
17713TIP3   OH274553   3.177   0.002  15.167  0.5395  0.3504 -0.3995
17713TIP3    H174554   3.101  -0.009  15.110  0.4517 -0.2170 -0.1772
17713TIP3    H274555   3.151   0.071  15.228  0.3242  0.3844 -0.5287
17714TIP3   OH274556   4.638   6.134   5.627  0.0554  0.1345 -0.1504
17714TIP3    H174557   4.680   6.138   5.541 -1.4734  0.4651 -0.8950
17714TIP3    H274558   4.692   6.190   5.682  1.4762 -0.6420 -0.6856
17715TIP3   OH274559   2.073   1.245  11.741  0.8407 -0.1691 -0.4661
17715TIP3    H174560   2.008   1.223  11.808 -0.8233 -0.1691 -2.0349
17715TIP3    H274561   2.128   1.168  11.735  0.0902 -0.7357 -0.1493
17716TIP3   OH274562   2.906   1.716   5.664  0.0422  0.1767 -0.7382
17716TIP3    H174563   2.864   1.783   5.719  0.4965  0.0996 -0.2974
17716TIP3    H274564   2.847   1.707   5.589 -0.7271  0.0853 -0.1365
17717TIP3   OH274565   1.653   5.262  12.278  0.2881  0.0753 -0.4985
17717TIP3    H174566   1.718   5.294  12.340 -0.5248  1.8402 -0.5234
17717TIP3    H274567   1.702   5.208  12.217  0.9145 -2.8748  2.4549
17718TIP3   OH274568   1.158   4.881   1.413 -0.4103  0.0142 -0.0773
17718TIP3    H174569   1.147   4.924   1.328  0.3630  2.9369  1.2430
17718TIP3    H274570   1.252   4.863   1.420 -0.5715 -0.8783 -0.1314
17719TIP3   OH274571   4.334   2.977  16.907 -0.1211 -0.0104  0.2135
17719TIP3    H174572   4.428   2.963  16.919 -0.1086  1.6436  2.2383
17719TIP3    H274573   4.293   2.917  16.970 -0.5377 -2.1457 -1.9890
17720TIP3   OH274574   6.485   0.389  15.923 -0.6690 -0.1954  0.2328
17720TIP3    H174575   6.439   0.319  15.968 -1.0774  0.4347  0.8027
17720TIP3    H274576   6.558   0.345  15.878  0.3475 -0.7098  2.3180
17721TIP3   OH274577   2.223   5.798   3.358 -0.1695 -0.0346  0.0575
17721TIP3    H174578   2.316   5.783   3.341 -0.3837 -2.0210  0.5347
17721TIP3    H274579   2.216   5.799   3.453 -0.7308 -0.5603  0.0275
17722TIP3   OH274580   6.689   4.571  11.879 -0.1927  0.0372  0.3717
17722TIP3    H174581   6.608   4.532  11.913 -0.9628  1.0488 -0.2564
17722TIP3    H274582   6.728   4.502  11.826 -1.3192 -0.0428 -0.3835
17723TIP3   OH274583   2.773   5.111   3.563  0.2170  0.1658 -0.2415
17723TIP3    H174584   2.738   5.146   3.645  2.0865  0.9971  0.2059
17723TIP3    H274585   2.771   5.185   3.502 -0.4640 -0.2580 -0.7552
17724TIP3   OH274586   1.659   3.063  16.151  0.1084  0.4816 -0.3093
17724TIP3    H174587   1.580   3.012  16.135  1.2804 -1.4547 -0.0432
17724TIP3    H274588   1.717   3.041  16.079  1.4101 -0.1635  0.9156
17725TIP3   OH274589   0.156   5.923  13.784  0.2852  0.3703  0.3041
17725TIP3    H174590   0.188   5.980  13.714  1.0179 -0.0207  0.3244
17725TIP3    H274591   0.073   5.889  13.750  0.6717  0.1262 -0.4038
17726TIP3   OH274592   6.620   3.236  16.739 -0.6185 -0.0814  0.1375
17726TIP3    H174593   6.571   3.272  16.665 -1.8883  1.3718  1.6766
17726TIP3    H274594   6.554   3.198  16.796  0.2640 -0.2348  1.0684
17727TIP3   OH274595   6.688   4.216  11.535 -0.8505 -0.9002 -0.4385
17727TIP3    H174596   6.642   4.136  11.560  1.2251 -1.3883  1.9971
17727TIP3    H274597   6.648   4.285  11.587  0.8662 -1.2769  1.4611
17728TIP3   OH274598   6.454   2.288   4.324 -0.2378  0.5799 -0.2434
17728TIP3    H174599   6.489   2.372   4.294  0.7050 -0.1928 -1.3734
17728TIP3    H274600   6.522   2.224   4.302 -0.4366 -0.3231  1.6820
17729TIP3   OH274601   3.580   5.908  10.937 -0.1921 -0.0680  0.4843
17729TIP3    H174602   3.520   5.931  10.867  2.0604  0.3940 -1.3478
17729TIP3    H274603   3.582   5.812  10.938  0.0881 -0.0710 -0.3718
17730TIP3   OH274604   3.589   0.304  10.783  0.2053  0.1525  0.1522
17730TIP3    H174605   3.661   0.289  10.844 -1.1934 -1.5187  1.4284
17730TIP3    H274606   3.584   0.222  10.733  0.6803  1.1319 -1.5365
17731TIP3   OH274607   3.735   6.128   4.711  0.2886  0.0573  0.0039
17731TIP3    H174608   3.673   6.138   4.638  0.8337 -1.0589 -0.6224
17731TIP3    H274609   3.812   6.178   4.684  0.2741  0.1139  0.0681
17732TIP3   OH274610   0.624   1.432  17.112 -0.1843 -0.1834  0.4050
17732TIP3    H174611   0.705   1.427  17.161 -0.2366 -0.7707  0.4347
17732TIP3    H274612   0.646   1.482  17.033  0.6108 -1.7655 -0.3844
17733TIP3   OH274613   5.799   5.130   6.387  0.1056  0.1694  0.4296
17733TIP3    H174614   5.774   5.038   6.388 -2.0429  0.6913 -1.0786
17733TIP3    H274615   5.892   5.130   6.367 -0.0512 -1.6376 -0.3765
17734TIP3   OH274616   4.207   6.115  11.855 -0.7953  0.2828 -0.4764
17734TIP3    H174617   4.238   6.201  11.825  0.6565 -0.1408 -0.2358
17734TIP3    H274618   4.212   6.059  11.777  0.3242 -0.1145 -0.1353
17735TIP3   OH274619   5.923   1.472  16.104  0.0032  0.1810 -0.0210
17735TIP3    H174620   6.008   1.451  16.143  0.6596  0.5777 -1.1975
17735TIP3    H274621   5.912   1.566  16.118 -1.2717 -0.2511  2.0655
17736TIP3   OH274622   2.508   0.345  15.582  0.9855  0.2348 -0.4522
17736TIP3    H174623   2.520   0.440  15.579  0.8366  0.3164  1.0397
17736TIP3    H274624   2.530   0.321  15.672  0.1248 -1.0178 -0.5643
17737TIP3   OH274625   0.333   3.770  12.012 -0.0330  0.0403  0.1758
17737TIP3    H174626   0.328   3.825  12.090 -2.4778 -1.2036  0.9279
17737TIP3    H274627   0.402   3.810  11.959  0.5801  1.8058  2.2557
17738TIP3   OH274628   0.098   2.227  16.556  0.7918  0.1651 -0.2033
17738TIP3    H174629   0.107   2.132  16.562  0.6739  0.1252 -0.7011
17738TIP3    H274630   0.173   2.255  16.504  0.2257  0.2385 -0.9742
17739TIP3   OH274631   0.455   4.520  13.373  0.0152  0.1823 -0.9570
17739TIP3    H174632   0.384   4.457  13.387  1.3937 -0.8868  1.6221
17739TIP3    H274633   0.421   4.603  13.405 -0.5737 -0.0337 -1.0226
17740TIP3   OH274634   0.546   4.478   2.137  0.3318  0.2846 -0.2226
17740TIP3    H174635   0.518   4.552   2.083  0.3184 -0.1822 -0.8620
17740TIP3    H274636   0.512   4.498   2.224  0.7953  1.2965 -0.2631
17741TIP3   OH274637   4.376   0.750   4.799  0.2631 -0.1221  0.4110
17741TIP3    H174638   4.298   0.720   4.751  0.6994  0.9632 -1.0314
17741TIP3    H274639   4.446   0.747   4.734  0.9044  1.2335  1.0209
17742TIP3   OH274640   1.275   2.342  14.419 -0.0618  0.3082  0.3398
17742TIP3    H174641   1.184   2.342  14.390  0.0092 -1.1895  0.1076
17742TIP3    H274642   1.296   2.250  14.434  1.9880  0.4637 -1.3822
17743TIP3   OH274643   3.582   3.370   5.221  0.1627  0.8407 -0.3054
17743TIP3    H174644   3.622   3.377   5.134 -0.9727  1.1446 -0.8193
17743TIP3    H274645   3.615   3.288   5.257  0.9636  0.9172 -0.8549
17744TIP3   OH274646   3.179   4.920  11.831 -0.2936 -0.1741  0.2615
17744TIP3    H174647   3.135   4.952  11.910 -0.3904 -1.3534  0.7010
17744TIP3    H274648   3.115   4.861  11.791  0.0020 -0.0742 -0.3639
17745TIP3   OH274649   5.635   0.949   2.762  0.2346  0.8570  0.8603
17745TIP3    H174650   5.636   1.036   2.721  0.0183  0.5194  0.1155
17745TIP3    H274651   5.636   0.888   2.688  0.5594  0.2206  1.3807
17746TIP3   OH274652   0.494   2.875  14.257 -0.5626 -0.1767 -0.1132
17746TIP3    H174653   0.425   2.895  14.193 -0.1155  1.6469 -0.0567
17746TIP3    H274654   0.476   2.785  14.285 -3.7218  0.6991  0.8814
17747TIP3   OH274655   1.349   6.054  12.281  0.1834 -0.2647 -0.1423
17747TIP3    H174656   1.271   6.039  12.334  0.3981 -0.9642 -0.0196
17747TIP3    H274657   1.325   6.024  12.193  0.7247 -1.6933  0.1801
17748TIP3   OH274658   0.908   3.722   0.477  0.2757 -0.4426 -0.0812
17748TIP3    H174659   0.886   3.732   0.385 -0.3944  1.1088  0.2280
17748TIP3    H274660   0.824   3.732   0.523  0.4425 -2.1676  0.6415
17749TIP3   OH274661   4.775   6.033   1.050  0.6334 -0.0072  0.4435
17749TIP3    H174662   4.725   6.093   0.995  1.5729  0.5037  0.1436
17749TIP3    H274663   4.737   5.947   1.032  0.6867  0.2075 -0.7333
17750TIP3   OH274664   5.943   2.089  13.390  0.4840 -0.5050 -0.3123
17750TIP3    H174665   6.006   2.133  13.333  1.3385 -0.7425  0.4141
17750TIP3    H274666   5.874   2.058  13.332  1.7742 -1.5021 -1.3300
17751TIP3   OH274667   4.470   5.838  16.131 -0.1364 -0.1450 -0.2016
17751TIP3    H174668   4.502   5.832  16.042  1.6273  0.4019  0.3767
17751TIP3    H274669   4.512   5.917  16.167 -1.5789  0.2008  0.7989
17752TIP3   OH274670   2.947   1.830  12.517  0.0786 -0.6390  0.5043
17752TIP3    H174671   3.036   1.817  12.547 -0.6945 -5.6824  0.9874
17752TIP3    H274672   2.898   1.856  12.595  0.6079 -0.4956  0.7833
17753TIP3   OH274673   1.100   0.995  14.276  0.0650 -0.3032 -0.2722
17753TIP3    H174674   1.057   0.942  14.209  0.9936 -1.0777 -0.2537
17753TIP3    H274675   1.054   1.079  14.272 -0.1328 -0.4620 -1.6214
17754TIP3   OH274676   5.849   4.908  10.546 -0.0971 -0.4959 -0.6726
17754TIP3    H174677   5.829   4.920  10.453  1.8703 -0.4946 -1.1216
17754TIP3    H274678   5.908   4.980  10.567  0.7424 -1.4114  0.1641
17755TIP3   OH274679   6.732   1.053   6.221  0.0863 -0.0157  0.5101
17755TIP3    H174680   6.679   1.094   6.289  0.4303  0.5997  0.4130
17755TIP3    H274681   6.804   1.115   6.205  2.2507 -1.9232  2.3906
17756TIP3   OH274682   2.395   2.068  15.282  0.3690  0.3033 -0.4643
17756TIP3    H174683   2.310   2.087  15.322  0.4956  2.4275 -1.0955
17756TIP3    H274684   2.438   2.154  15.277  3.9755 -1.1761  3.0057
17757TIP3   OH274685   4.043   5.894   2.391 -0.1882 -0.1437 -0.1121
17757TIP3    H174686   3.956   5.904   2.350 -0.0497 -2.5214 -1.0840
17757TIP3    H274687   4.086   5.978   2.376 -1.7864  0.5485 -0.9690
17758TIP3   OH274688   4.724   5.447  13.687 -0.4331  0.0106 -0.3163
17758TIP3    H174689   4.813   5.412  13.681 -0.0101  1.0081 -0.0727
17758TIP3    H274690   4.734   5.540  13.667 -1.4458  0.1032 -0.4183
17759TIP3   OH274691   2.958   5.795   4.611  0.2549  0.1519  0.3693
17759TIP3    H174692   2.951   5.847   4.691 -0.9027  0.1121  0.3096
17759TIP3    H274693   2.883   5.822   4.558  0.5010 -0.4797 -0.3124
17760TIP3   OH274694   5.236   4.144   2.286 -0.4278 -0.4801 -0.1603
17760TIP3    H174695   5.298   4.139   2.213 -0.6581 -1.6819 -0.2959
17760TIP3    H274696   5.276   4.205   2.347  0.5620 -0.7021 -0.5672
17761TIP3   OH274697   3.162   1.944  14.211 -0.1556 -0.4156  0.3743
17761TIP3    H174698   3.107   1.922  14.286 -2.2239 -0.0232 -0.9896
17761TIP3    H274699   3.128   2.028  14.181  1.8505  0.3239  0.0960
17762TIP3   OH274700   3.839   2.545   1.222  0.3209 -0.3602  0.3075
17762TIP3    H174701   3.827   2.640   1.219 -0.3717 -0.4836 -1.3463
17762TIP3    H274702   3.931   2.531   1.198  0.1124 -0.1531 -0.6537
17763TIP3   OH274703   1.644   3.120  15.164  0.1101  0.3739 -0.5759
17763TIP3    H174704   1.691   3.095  15.244 -0.5908 -0.6001 -0.4620
17763TIP3    H274705   1.713   3.131  15.098  0.5556 -0.5057 -0.2660
17764TIP3   OH274706   6.766   0.403   5.571 -0.4267 -0.1937 -0.2271
17764TIP3    H174707   6.778   0.498   5.560  0.4578 -0.2866 -0.1502
17764TIP3    H274708   6.834   0.378   5.633 -1.8825 -0.5743  1.2347
17765TIP3   OH274709   5.059   1.550   3.578 -0.0754 -0.0978  0.4166
17765TIP3    H174710   5.022   1.489   3.514 -0.7909  0.5319  0.2225
17765TIP3    H274711   5.006   1.629   3.569  0.9305  0.6053  0.5671
17766TIP3   OH274712   2.367   4.019   5.191 -0.0267 -0.0176  0.8650
17766TIP3    H174713   2.434   4.064   5.140 -0.4642  0.7938  0.9961
17766TIP3    H274714   2.415   3.977   5.262  0.4715 -0.3602  0.3301
17767TIP3   OH274715   6.419   3.636   3.843 -0.4828 -0.4394  0.1756
17767TIP3    H174716   6.471   3.615   3.921 -0.5859 -1.4827 -0.0261
17767TIP3    H274717   6.405   3.731   3.848  1.4072 -0.1511  0.2471
17768TIP3   OH274718   5.293   6.270   2.018  0.2368 -0.3256  0.0487
17768TIP3    H174719   5.378   6.275   1.974  0.5402 -0.0952  0.6534
17768TIP3    H274720   5.234   6.321   1.962  0.5554 -0.2780 -0.2443
17769TIP3   OH274721   4.233   6.171   1.415  0.1063 -0.5760  0.4523
17769TIP3    H174722   4.246   6.189   1.322  0.4184  2.4363  1.0232
17769TIP3    H274723   4.285   6.093   1.432  2.0402  0.2547 -1.3788
17770TIP3   OH274724   1.062   3.339   5.095  0.3442  0.4120 -0.1935
17770TIP3    H174725   1.019   3.391   5.026 -0.7457 -1.2599 -0.7937
17770TIP3    H274726   1.097   3.405   5.155 -0.0112  1.8776 -1.5337
17771TIP3   OH274727   1.696   3.775   4.815 -0.2329 -0.0890  0.2065
17771TIP3    H174728   1.751   3.760   4.892  0.9319  1.3164 -0.3101
17771TIP3    H274729   1.667   3.866   4.824 -0.1182  0.0703 -0.9888
17772TIP3   OH274730   4.529   6.473  12.035 -0.5789 -0.0573 -0.2727
17772TIP3    H174731   4.605   6.415  12.039  0.4705  1.4270  1.5981
17772TIP3    H274732   4.554   6.540  11.971  0.4926  1.5348  1.7778
17773TIP3   OH274733   4.234   6.663   0.087  0.0252  0.0969  0.1506
17773TIP3    H174734   4.220   6.741   0.033  0.8120  1.1513  1.4172
17773TIP3    H274735   4.329   6.652   0.088 -0.0736 -0.7222  0.1869
17774TIP3   OH274736   0.571   6.786  16.461  0.0565  0.5445 -0.0029
17774TIP3    H174737   0.576   6.762  16.368  1.4902  0.7208  0.0196
17774TIP3    H274738   0.526   6.871  16.461 -1.9265 -0.4596 -0.3445
17775TIP3   OH274739   0.620   1.473  11.858  0.5300 -0.0835  0.3308
17775TIP3    H174740   0.646   1.433  11.775  0.8790  0.4117  0.2001
17775TIP3    H274741   0.550   1.533  11.835 -0.5774 -1.2359  0.6476
17776TIP3   OH274742   2.589   2.650   2.423  0.2892 -0.6381 -0.0504
17776TIP3    H174743   2.616   2.580   2.363  0.3695 -1.3229  0.7773
17776TIP3    H274744   2.549   2.604   2.497  1.2402  0.1191  0.9616
17777TIP3   OH274745   0.324   2.892   0.738 -0.9018  0.3487  0.4319
17777TIP3    H174746   0.365   2.807   0.724  1.0393  1.5788 -1.5783
17777TIP3    H274747   0.276   2.909   0.656 -0.5741  1.5622  0.4845
17778TIP3   OH274748   0.360   1.258  11.673 -0.2591  1.2351  0.0411
17778TIP3    H174749   0.376   1.257  11.768  1.0386 -0.7307 -0.1580
17778TIP3    H274750   0.439   1.296  11.636 -0.1713  0.6805 -0.3413
17779TIP3   OH274751   6.522   2.858  10.655 -0.0514  0.0742  0.2402
17779TIP3    H174752   6.583   2.823  10.590 -0.5447  0.0401 -0.2082
17779TIP3    H274753   6.482   2.933  10.612 -1.7401 -1.0546 -0.1971
17780TIP3   OH274754   4.028   3.344   0.986  0.0336  1.0703  0.0882
17780TIP3    H174755   4.115   3.326   0.950 -1.2047 -2.1088 -1.4719
17780TIP3    H274756   4.030   3.305   1.074 -0.3934 -0.6405 -0.6493
17781TIP3   OH274757   5.185   5.870   3.266 -0.0463 -0.4389 -0.6629
17781TIP3    H174758   5.239   5.811   3.319  0.9707  0.0426 -1.1408
17781TIP3    H274759   5.207   5.847   3.175  0.0921  0.4405 -0.8527
17782TIP3   OH274760   1.158   4.104   3.030  0.7809  0.5040 -0.1586
17782TIP3    H174761   1.238   4.144   3.064  0.3790  0.6035  0.6997
17782TIP3    H274762   1.151   4.021   3.079  0.6300  0.2645 -0.5895
17783TIP3   OH274763   0.334   2.060   5.872  0.3778 -0.1973 -0.1929
17783TIP3    H174764   0.305   2.024   5.788 -0.4683  1.6329 -0.6925
17783TIP3    H274765   0.417   2.103   5.853  0.1868  0.2180 -0.0794
17784TIP3   OH274766   6.461   0.763   2.061 -0.3832  0.7397 -1.2560
17784TIP3    H174767   6.463   0.792   1.970  0.3944  0.9286 -1.1886
17784TIP3    H274768   6.553   0.763   2.088 -0.6286  0.9322 -0.3923
17785TIP3   OH274769   5.579   3.140   0.691  0.8702  0.2814 -0.1518
17785TIP3    H174770   5.596   3.230   0.664  0.4053  0.0615 -1.2265
17785TIP3    H274771   5.659   3.112   0.736  0.5384  1.6457  1.3473
17786TIP3   OH274772   4.498   1.802  13.075 -0.5280 -0.1071  0.1678
17786TIP3    H174773   4.565   1.737  13.095 -0.4398 -0.1820 -0.3672
17786TIP3    H274774   4.457   1.770  12.995 -0.1125  0.7853 -0.4052
17787TIP3   OH274775   4.862   6.711   1.861  0.3275  0.4155  0.4189
17787TIP3    H174776   4.940   6.660   1.884 -0.3517 -0.4343  0.9085
17787TIP3    H274777   4.832   6.748   1.944 -0.8163 -0.7591  0.5516
17788TIP3   OH274778   2.357   4.648   4.015  0.8750  0.1445 -0.2771
17788TIP3    H174779   2.436   4.673   3.967  0.5274 -2.4832 -2.3590
17788TIP3    H274780   2.289   4.707   3.982  1.7129  1.6060  0.6179
17789TIP3   OH274781   4.916   2.716   3.266 -0.2602 -0.0304 -0.2189
17789TIP3    H174782   4.991   2.710   3.206  0.7534  1.1449  0.9031
17789TIP3    H274783   4.929   2.799   3.311 -0.4505 -1.3852  2.3810
17790TIP3   OH274784   4.825   5.437   1.055 -0.3942 -0.5038  0.1685
17790TIP3    H174785   4.837   5.491   1.133 -0.0971  0.1692 -0.3381
17790TIP3    H274786   4.755   5.480   1.006 -0.5323 -0.8857  0.0259
17791TIP3   OH274787   5.468   6.409  13.025 -0.5865 -0.3677  0.2030
17791TIP3    H174788   5.484   6.327  13.071 -2.3436 -0.6966  0.2605
17791TIP3    H274789   5.530   6.409  12.952 -0.6351 -1.7784  0.1581
17792TIP3   OH274790   0.829   4.478  12.023 -0.7072  0.0723 -0.3326
17792TIP3    H174791   0.823   4.438  12.110  2.8206 -1.4986 -0.7096
17792TIP3    H274792   0.769   4.428  11.968 -1.8449  0.1202  0.8387
17793TIP3   OH274793   3.062   4.176   3.850 -0.1178  0.3053  0.3221
17793TIP3    H174794   2.996   4.203   3.914 -1.4666  3.1188 -2.1450
17793TIP3    H274795   3.034   4.088   3.823 -2.1761  0.9596  0.2366
17794TIP3   OH274796   5.923   6.694  15.604 -0.0770  0.2644  0.0889
17794TIP3    H174797   5.829   6.703  15.619 -0.0193  0.1983  0.4985
17794TIP3    H274798   5.934   6.714  15.511 -0.5136  0.1434  0.0068
17795TIP3   OH274799   3.498   0.496  14.742  0.4361  0.1686 -0.0990
17795TIP3    H174800   3.500   0.443  14.662  1.7666  1.0647 -0.6684
17795TIP3    H274801   3.417   0.547  14.734 -0.5563 -1.3190  0.1743
17796TIP3   OH274802   3.886   5.577   1.482  0.4218  0.3844  0.2094
17796TIP3    H174803   3.816   5.573   1.547 -0.2529  2.1073 -0.3776
17796TIP3    H274804   3.960   5.616   1.529  0.5222 -0.0970  0.4472
17797TIP3   OH274805   1.343   3.365  12.319  0.6557 -0.3125  0.1147
17797TIP3    H174806   1.416   3.340  12.262  0.1860 -0.1037 -0.5850
17797TIP3    H274807   1.384   3.409  12.393  1.1304  1.3034 -1.0719
17798TIP3   OH274808   3.711   2.233   4.507  0.0480  0.4919  0.1224
17798TIP3    H174809   3.681   2.304   4.564  1.1017  1.4421 -0.4835
17798TIP3    H274810   3.791   2.201   4.549 -0.3325 -0.2231  0.2999
17799TIP3   OH274811   2.543   2.413  14.450 -0.5621 -0.5254  0.0109
17799TIP3    H174812   2.483   2.485  14.431 -1.2244 -0.3162  2.8113
17799TIP3    H274813   2.618   2.430  14.392 -1.6940  1.1069 -1.0388
17800TIP3   OH274814   6.415   5.168  16.579 -0.0423 -0.4856  0.1220
17800TIP3    H174815   6.366   5.205  16.506 -0.3226 -0.1746  0.4713
17800TIP3    H274816   6.386   5.216  16.656  0.5674 -0.5204  0.3824
17801TIP3   OH274817   1.481   1.121  12.551  0.6562  0.0414  0.3162
17801TIP3    H174818   1.431   1.161  12.622 -0.7344 -2.5063  0.8548
17801TIP3    H274819   1.565   1.097  12.591  0.0164 -1.0465  1.0408
17802TIP3   OH274820   2.892   3.158  13.743  0.3738  0.1974 -0.2977
17802TIP3    H174821   2.930   3.244  13.726 -0.0657  0.3254 -0.6252
17802TIP3    H274822   2.955   3.116  13.802  1.3469  0.1722 -1.3286
17803TIP3   OH274823   0.705   6.268   5.433  0.1714 -0.1632  1.3073
17803TIP3    H174824   0.616   6.257   5.466 -0.7322  1.3359 -0.5840
17803TIP3    H274825   0.738   6.345   5.481  0.1731 -0.2273  1.4106
17804TIP3   OH274826   1.664   6.624  14.035  0.0709  0.4297 -0.1564
17804TIP3    H174827   1.732   6.593  13.975  0.1845  0.3084  0.0366
17804TIP3    H274828   1.698   6.707  14.070  0.8784 -0.4822  1.2518
17805TIP3   OH274829   6.733   2.472  15.317 -0.4070  0.1153  0.3075
17805TIP3    H174830   6.651   2.520  15.312  1.1595  2.7404 -1.4962
17805TIP3    H274831   6.735   2.420  15.236 -0.0593  0.4657  0.0885
17806TIP3   OH274832   0.491   2.562  11.781 -0.0935  0.3705  0.3206
17806TIP3    H174833   0.555   2.563  11.710  0.2685  1.5532  0.6439
17806TIP3    H274834   0.445   2.479  11.771  0.7451  0.0016 -0.5840
17807TIP3   OH274835   4.406   0.145  16.807 -0.5972 -0.3560  0.3103
17807TIP3    H174836   4.320   0.149  16.765 -0.3934 -1.6566 -0.2699
17807TIP3    H274837   4.453   0.221  16.773 -1.3980  0.1506  0.3396
17808TIP3   OH274838   5.966   3.800  11.911 -0.0508 -0.3695 -0.7019
17808TIP3    H174839   5.906   3.741  11.865  0.2482 -0.1790 -1.3297
17808TIP3    H274840   5.953   3.885  11.869  0.7191 -0.3462 -0.8917
17809TIP3   OH274841   3.794   5.250   3.061 -0.5751 -0.7567  0.2590
17809TIP3    H174842   3.752   5.246   2.975 -0.8861  1.4372  0.2788
17809TIP3    H274843   3.722   5.268   3.122 -0.3186 -2.0291  0.9449
17810TIP3   OH274844   6.626   2.465   4.796  0.1370  0.0215 -0.6656
17810TIP3    H174845   6.711   2.424   4.781  0.8330  2.1989 -3.0850
17810TIP3    H274846   6.646   2.544   4.847 -0.6974 -0.5900  0.6174
17811TIP3   OH274847   5.278   6.713   0.906  0.0270  0.5262  0.3545
17811TIP3    H174848   5.342   6.642   0.905  0.0991  0.5912  0.1947
17811TIP3    H274849   5.332   6.793   0.914 -0.0358  0.5791  0.2436
17812TIP3   OH274850   0.332   3.810   0.280 -0.3725 -0.2025 -0.4270
17812TIP3    H174851   0.318   3.848   0.193  0.4242 -0.6515 -0.7576
17812TIP3    H274852   0.347   3.885   0.337 -1.2150  0.1129 -0.6103
17813TIP3   OH274853   1.921   2.461   3.946 -0.3062 -0.5327 -0.3618
17813TIP3    H174854   1.837   2.495   3.975  1.0614  1.6909  1.2173
17813TIP3    H274855   1.951   2.523   3.880  0.8657 -0.2800  0.3758
17814TIP3   OH274856   6.398   1.041   4.139 -0.3403  0.2375 -0.3502
17814TIP3    H174857   6.361   1.125   4.113 -2.1253 -0.2680  0.4044
17814TIP3    H274858   6.340   0.976   4.099  1.9705 -0.6771 -2.2691
17815TIP3   OH274859   2.325   0.203   3.628 -0.4032  0.4335  0.2784
17815TIP3    H174860   2.389   0.140   3.662 -0.7141 -0.2907 -0.4545
17815TIP3    H274861   2.366   0.289   3.641  0.9076 -0.0536 -0.5958
17816TIP3   OH274862   0.611   4.025  10.463  0.4452 -0.0054  0.3058
17816TIP3    H174863   0.612   4.039  10.368  1.0774  0.6817  0.4108
17816TIP3    H274864   0.538   3.965  10.477 -0.6517  1.1222 -0.4458
17817TIP3   OH274865   4.761   4.123  13.257 -0.1822  0.0873 -0.4290
17817TIP3    H174866   4.725   4.203  13.295  1.0875  1.3735 -1.8752
17817TIP3    H274867   4.797   4.151  13.172  0.0523 -2.0607 -1.0618
17818TIP3   OH274868   6.554   5.494  13.924  0.4142 -0.1415  0.3090
17818TIP3    H174869   6.648   5.505  13.906  0.3932  0.2911  0.4667
17818TIP3    H274870   6.524   5.436  13.855  0.5869  0.5469 -0.3567
17819TIP3   OH274871   4.532   3.613   6.588 -0.9428  0.1644 -0.0044
17819TIP3    H174872   4.573   3.698   6.574 -1.1229  0.1947 -0.3443
17819TIP3    H274873   4.456   3.612   6.529 -1.8889  0.4149  1.2036
17820TIP3   OH274874   1.599   3.854   0.644  0.4798 -0.1608 -0.5267
17820TIP3    H174875   1.534   3.852   0.574 -0.6993  0.0336  0.5515
17820TIP3    H274876   1.682   3.868   0.598 -0.6698  3.5773 -1.6463
17821TIP3   OH274877   1.481   3.336   5.261  0.2499 -0.1455 -0.0258
17821TIP3    H174878   1.489   3.418   5.212  0.4695 -0.0248  0.2110
17821TIP3    H274879   1.554   3.337   5.323  0.0262 -0.3379  0.2463
17822TIP3   OH274880   3.491   4.810  10.956 -0.0033 -0.1717 -0.4605
17822TIP3    H174881   3.498   4.902  10.980  0.1740 -0.1256 -0.6842
17822TIP3    H274882   3.575   4.772  10.982  0.8425  0.2228 -2.4677
17823TIP3   OH274883   5.550   0.418  11.634 -0.3403  0.0351 -0.2633
17823TIP3    H174884   5.583   0.453  11.717 -1.1909 -0.5428  0.3223
17823TIP3    H274885   5.455   0.413  11.646 -0.3674 -1.0791 -0.8739
17824TIP3   OH274886   4.618   2.384   2.846 -0.6951 -0.1419  0.0500
17824TIP3    H174887   4.670   2.464   2.846 -1.4256  0.3905 -3.1045
17824TIP3    H274888   4.663   2.326   2.907  1.1988  1.8122  0.5664
17825TIP3   OH274889   2.752   1.506  14.915 -0.3763 -0.1192 -0.3083
17825TIP3    H174890   2.759   1.450  14.992  0.0102  0.3987  0.0314
17825TIP3    H274891   2.711   1.586  14.946  1.1819  0.6974 -0.3238
17826TIP3   OH274892   0.131   6.525   1.585 -0.1259 -0.3817  0.5277
17826TIP3    H174893   0.208   6.574   1.555  0.5382 -0.7372  1.6183
17826TIP3    H274894   0.112   6.466   1.513  1.8322 -1.6679  1.0163
17827TIP3   OH274895   0.879   4.806   2.953 -0.0616 -0.3542  0.1525
17827TIP3    H174896   0.852   4.756   3.030 -0.0430 -0.5804  0.0127
17827TIP3    H274897   0.799   4.849   2.923  0.4586  1.8578  1.8518
17828TIP3   OH274898   2.748   1.978  17.229  0.0366  0.0425  0.4783
17828TIP3    H174899   2.681   1.931  17.279  0.7175 -0.1995  1.1906
17828TIP3    H274900   2.714   2.066  17.219 -0.3078 -0.0308  0.9965
17829TIP3   OH274901   3.050   6.269   4.598  0.2004  0.1124  0.0263
17829TIP3    H174902   2.976   6.211   4.612 -2.1713  2.6592 -1.3566
17829TIP3    H274903   3.083   6.246   4.511 -0.1269  0.1807 -0.1171
17830TIP3   OH274904   1.986   4.657   5.626  0.1259 -0.5318  0.5997
17830TIP3    H174905   2.009   4.737   5.675  0.8573 -0.7139  0.5605
17830TIP3    H274906   2.070   4.614   5.611 -0.2557 -1.2267  0.4724
17831TIP3   OH274907   5.875   0.087   0.277  0.3845 -0.2151  0.0359
17831TIP3    H174908   5.827   0.112   0.198  0.2825 -1.5553 -0.3444
17831TIP3    H274909   5.862   0.160   0.338 -0.2609  0.4320 -0.8701
17832TIP3   OH274910   2.137   3.726  11.093 -0.1826 -0.1586 -0.0898
17832TIP3    H174911   2.149   3.786  11.019  2.4278 -0.9562 -0.3567
17832TIP3    H274912   2.048   3.743  11.123 -0.1379  2.5350 -1.3244
17833TIP3   OH274913   4.318   5.872   5.684  0.1693 -0.3855 -0.4268
17833TIP3    H174914   4.233   5.864   5.728 -1.2140 -1.5665 -3.1441
17833TIP3    H274915   4.319   5.961   5.649  1.3327  0.6029  2.0236
17834TIP3   OH274916   5.947   5.668   4.162  0.7646  0.3593 -0.5688
17834TIP3    H174917   5.924   5.575   4.160 -0.7342  0.6983  0.3291
17834TIP3    H274918   5.927   5.696   4.251  4.2893  0.8160  0.1453
17835TIP3   OH274919   1.193   2.520   2.991  0.9225  0.2682  0.3943
17835TIP3    H174920   1.142   2.578   3.048 -0.3440 -1.0783  0.6868
17835TIP3    H274921   1.260   2.483   3.048  0.9274  0.4690  0.5193
17836TIP3   OH274922   4.059   6.642  14.421 -0.2310  0.5484 -0.0357
17836TIP3    H174923   4.101   6.635  14.335 -0.1804 -0.7138  0.0851
17836TIP3    H274924   4.058   6.736  14.439 -1.1510  0.9113 -1.8552
17837TIP3   OH274925   6.556   4.793   1.928 -0.3088  0.7707  0.0996
17837TIP3    H174926   6.549   4.793   2.023 -1.9005  0.7755 -0.0061
17837TIP3    H274927   6.588   4.881   1.906  1.3675  0.3344  0.6926
17838TIP3   OH274928   0.738   1.155  15.125  0.3162 -0.2116 -0.2414
17838TIP3    H174929   0.693   1.085  15.077 -2.5624  0.4069  1.4443
17838TIP3    H274930   0.671   1.192  15.183  1.8511  3.7757 -0.8587
17839TIP3   OH274931   4.525   5.739   1.251 -0.5012  0.2444 -0.0120
17839TIP3    H174932   4.571   5.808   1.297  0.3631 -0.0877 -0.3662
17839TIP3    H274933   4.452   5.783   1.207 -1.8268  0.4309  2.3233
17840TIP3   OH274934   3.072   3.570   5.072  0.1702 -0.5589  0.3089
17840TIP3    H174935   3.069   3.519   5.152 -1.7672 -0.8498  0.0858
17840TIP3    H274936   3.059   3.506   5.002  0.3308 -0.1066 -0.1427
17841TIP3   OH274937   0.086   5.840  12.203 -0.8821  0.3654  0.1925
17841TIP3    H174938   0.025   5.790  12.257  0.0020 -1.8601 -0.8285
17841TIP3    H274939   0.157   5.779  12.183  2.0443  3.0323  1.8507
17842TIP3   OH274940   5.396   6.531  11.749  0.0338 -0.1671 -0.3841
17842TIP3    H174941   5.438   6.617  11.742 -0.2300  0.0655  0.8621
17842TIP3    H274942   5.460   6.477  11.795 -1.4397  0.5018  2.6071
17843TIP3   OH274943   6.496   2.408  12.685  0.4536 -0.3284  0.2409
17843TIP3    H174944   6.573   2.446  12.643  1.4744 -0.9897  1.4416
17843TIP3    H274945   6.500   2.440  12.776  0.7050 -2.3380  0.9667
17844TIP3   OH274946   5.841   3.008  14.559  0.6814 -0.3233 -0.4362
17844TIP3    H174947   5.892   2.940  14.603  1.0274 -0.1442 -0.5564
17844TIP3    H274948   5.894   3.033  14.484  0.1697 -0.4981 -0.8561
17845TIP3   OH274949   6.448   2.848  14.269 -0.4955 -0.0544  0.0279
17845TIP3    H174950   6.375   2.895  14.229 -1.0993 -2.3142 -1.6285
17845TIP3    H274951   6.491   2.913  14.324 -5.2853  0.7355  3.1304
17846TIP3   OH274952   5.069   1.029  15.307 -0.8800  0.0063 -0.2091
17846TIP3    H174953   5.036   1.015  15.396  0.1518 -1.2924 -0.0332
17846TIP3    H274954   5.097   0.943  15.277 -2.6753  0.1123 -2.4014
17847TIP3   OH274955   2.157   0.168  16.799 -0.5579 -0.0022  0.3255
17847TIP3    H174956   2.094   0.233  16.828 -0.6250 -0.3726  1.0200
17847TIP3    H274957   2.231   0.218  16.765 -1.2021  0.4332 -0.4456
17848TIP3   OH274958   3.714   0.177   2.924 -0.3667 -0.3331  0.3313
17848TIP3    H174959   3.662   0.219   2.993 -1.8738 -2.0415  0.2762
17848TIP3    H274960   3.788   0.137   2.971  1.6208  3.0399  0.2843
17849TIP3   OH274961   2.567   1.180  14.760 -0.3384 -0.3888 -0.3542
17849TIP3    H174962   2.544   1.257  14.812  1.2228  0.2269 -0.5499
17849TIP3    H274963   2.577   1.214  14.671  0.1712 -0.8477 -0.4723
17850TIP3   OH274964   6.248   1.722  12.894 -0.1004 -0.0333  0.0397
17850TIP3    H174965   6.312   1.708  12.964 -0.7949  0.3419  0.7522
17850TIP3    H274966   6.252   1.817  12.877 -0.5506  0.0082  0.1665
17851TIP3   OH274967   4.696   5.776   3.006 -0.0467  0.2936 -0.3024
17851TIP3    H174968   4.748   5.848   3.041 -0.3914 -0.0346  0.9070
17851TIP3    H274969   4.746   5.697   3.030 -1.2137 -0.0394  1.1144
17852TIP3   OH274970   5.497   4.622  16.423 -0.3020 -0.1415 -0.3141
17852TIP3    H174971   5.407   4.620  16.389 -0.5706  0.7510  0.3266
17852TIP3    H274972   5.519   4.715  16.427  0.3160 -0.3151  0.4205
17853TIP3   OH274973   2.678   2.609  14.648 -0.2866  0.2011 -0.4757
17853TIP3    H174974   2.664   2.692  14.601  0.0713  0.1667 -0.6470
17853TIP3    H274975   2.632   2.544  14.595 -0.5676  0.2917 -0.3409
17854TIP3   OH274976   5.808   5.043  15.701 -0.3126 -0.4205  0.0539
17854TIP3    H174977   5.764   5.128  15.699  0.0454 -0.2483 -0.4079
17854TIP3    H274978   5.737   4.981  15.719 -0.8643 -0.2176 -1.3624
17855TIP3   OH274979   5.689   6.275  12.115 -0.3331  0.2515 -0.5904
17855TIP3    H174980   5.600   6.248  12.093  0.3058 -1.1699 -1.4882
17855TIP3    H274981   5.740   6.195  12.112  1.5444  1.4536 -2.9568
17856TIP3   OH274982   2.003   4.060   4.181 -0.4573 -0.2403  0.4555
17856TIP3    H174983   2.089   4.036   4.147  0.0342  1.2197  0.6359
17856TIP3    H274984   2.006   4.036   4.274  0.2422  1.0009  0.7714
17857TIP3   OH274985   3.965   6.002   1.422  0.3077 -0.6315  0.6031
17857TIP3    H174986   3.919   5.938   1.368  0.7675 -1.3112  1.0018
17857TIP3    H274987   4.037   6.032   1.367 -2.1273  2.4830 -1.0719
17858TIP3   OH274988   3.974   2.343   2.097 -0.3339 -0.2963  0.1399
17858TIP3    H174989   3.904   2.278   2.098 -1.8936  1.3472 -0.6272
17858TIP3    H274990   3.932   2.424   2.068  2.1157  0.4276 -1.6026
17859TIP3   OH274991   5.741   0.637  12.971 -0.4369 -0.0172 -0.2392
17859TIP3    H174992   5.753   0.730  12.954 -0.0872 -0.2948 -1.5450
17859TIP3    H274993   5.647   0.626  12.982 -0.8982 -0.1027 -3.7523
17860TIP3   OH274994   2.154   6.657  15.840 -0.0489 -0.0719 -0.1152
17860TIP3    H174995   2.081   6.680  15.783 -0.0851 -0.8893 -0.3925
17860TIP3    H274996   2.227   6.710  15.808 -0.5535  0.8654  0.2607
17861TIP3   OH274997   5.890   6.442   5.792 -0.6654 -0.4200 -0.2977
17861TIP3    H174998   5.877   6.352   5.823 -1.5007 -0.1331  0.1889
17861TIP3    H274999   5.931   6.487   5.865  1.2699 -0.8097 -1.1233
17862TIP3   OH275000   6.070   5.091  13.250 -0.1008  0.2631 -0.5543
17862TIP3    H175001   6.082   5.087  13.344 -0.2959 -0.7196 -0.5689
17862TIP3    H275002   6.154   5.122  13.216 -0.1877  1.0782 -0.0249
17863TIP3   OH275003   5.665   3.965   1.107 -0.3189 -0.5581 -0.8642
17863TIP3    H175004   5.623   4.021   1.042  0.0781  0.8943  0.1041
17863TIP3    H275005   5.594   3.939   1.165  0.1672  2.5232  1.2226
17864TIP3   OH275006   3.398   3.836  14.932 -0.1917  0.1387  0.2847
17864TIP3    H175007   3.379   3.746  14.958 -2.3230  1.0465  1.9471
17864TIP3    H275008   3.334   3.855  14.864 -0.9748  1.0169  1.2595
17865TIP3   OH275009   0.370   0.151  14.921  0.6780  0.3371  0.4621
17865TIP3    H175010   0.351   0.222  14.982  1.1611  0.3656  0.5773
17865TIP3    H275011   0.462   0.129  14.936  0.2823 -0.9325  1.0606
17866TIP3   OH275012   3.699   5.013   5.187 -0.7278 -0.2832 -0.0980
17866TIP3    H175013   3.673   4.979   5.273 -0.4602  0.7447  0.3976
17866TIP3    H275014   3.760   4.948   5.153  1.6100  0.8051  1.8706
17867TIP3   OH275015   1.735   4.698   5.963  0.0026  0.2905 -0.2384
17867TIP3    H175016   1.660   4.753   5.986 -0.6207 -0.5756 -0.1923
17867TIP3    H275017   1.810   4.757   5.970 -0.4295  0.6615  1.6925
17868TIP3   OH275018   0.658   5.459   0.015 -0.2316  0.2610  0.0340
17868TIP3    H175019   0.674   5.365   0.014  1.0813  0.4658 -0.1940
17868TIP3    H275020   0.712   5.491   0.088 -0.8482  0.8045  0.2565
17869TIP3   OH275021   1.757   0.890  13.424 -0.1466 -0.2094 -0.2738
17869TIP3    H175022   1.781   0.799  13.441  0.2397 -0.0583  0.0077
17869TIP3    H275023   1.841   0.936  13.418 -0.3533  0.2974  0.5502
17870TIP3   OH275024   4.685   1.912   5.476  0.5865  0.6110  0.5810
17870TIP3    H175025   4.734   1.910   5.558  0.6823 -1.4961  0.5042
17870TIP3    H275026   4.681   1.820   5.448 -2.5041  0.8320  0.0685
17871TIP3   OH275027   5.983   4.109  13.393 -0.1104  0.5327  0.1799
17871TIP3    H175028   5.964   4.106  13.487  0.4827 -1.5933  0.2665
17871TIP3    H275029   5.901   4.083  13.351  0.2687 -0.7977  0.2289
17872TIP3   OH275030   0.263   0.594   6.827  0.9764  0.7295  0.1932
17872TIP3    H175031   0.274   0.646   6.907 -1.3204  0.0339  1.0073
17872TIP3    H275032   0.199   0.643   6.776  1.1814  0.3124 -0.4635
17873TIP3   OH275033   5.906   2.806  16.338  0.3472 -0.0060  0.5399
17873TIP3    H175034   5.877   2.732  16.393  0.5344 -0.2388  0.3249
17873TIP3    H275035   5.836   2.871  16.347  1.6525  1.1014  3.2820
17874TIP3   OH275036   0.135   5.971   5.498  0.5187  0.0440 -0.0480
17874TIP3    H175037   0.088   6.047   5.464  0.4164  0.2198  0.4805
17874TIP3    H275038   0.116   5.901   5.436 -1.0190 -0.0657  0.5484
17875TIP3   OH275039   1.418   2.414  12.554 -0.2691  0.2619  0.4334
17875TIP3    H175040   1.418   2.481  12.485  1.0840  0.4007  0.5549
17875TIP3    H275041   1.500   2.429  12.601  0.1031 -1.5831  0.3787
17876TIP3   OH275042   1.910   0.903  16.707 -0.4507 -0.1286 -0.0412
17876TIP3    H175043   1.976   0.959  16.748  2.2490 -1.2513 -2.6979
17876TIP3    H275044   1.866   0.960  16.644 -2.8044  0.8747  2.3651
17877TIP3   OH275045   4.230   4.248  16.658 -0.1494 -0.4838  0.2649
17877TIP3    H175046   4.262   4.159  16.674 -0.0326 -0.5757 -0.4367
17877TIP3    H275047   4.190   4.275  16.741 -0.4989 -1.3221  0.3787
17878TIP3   OH275048   1.222   0.524   5.915 -0.0709  0.1944 -0.2736
17878TIP3    H175049   1.230   0.542   6.009 -1.9260  1.7883 -0.3872
17878TIP3    H275050   1.295   0.466   5.896  1.3939  1.2753  1.7977
17879TIP3   OH275051   3.328   0.716   5.289  0.3321 -0.1259  0.1164
17879TIP3    H175052   3.262   0.752   5.231  0.9206 -1.8327 -1.6528
17879TIP3    H275053   3.281   0.696   5.370 -0.6833  1.3686 -0.0855
17880TIP3   OH275054   2.112   0.452  13.781 -0.3509  0.5983 -0.2052
17880TIP3    H175055   2.190   0.410  13.818 -0.2132 -0.4966 -1.7022
17880TIP3    H275056   2.071   0.495  13.856  1.8507  1.4736  0.5620
17881TIP3   OH275057   6.327   5.165  13.138  0.1369  0.1857 -0.4740
17881TIP3    H175058   6.413   5.184  13.101 -0.0439  2.2542  0.1331
17881TIP3    H275059   6.344   5.097  13.204  1.1762 -0.0166 -0.9423
17882TIP3   OH275060   6.476   0.606  13.083 -0.3543 -0.0337  0.1182
17882TIP3    H175061   6.504   0.625  12.994 -0.6875  1.5758  0.3394
17882TIP3    H275062   6.381   0.615  13.081 -0.6513 -2.7704  0.0094
17883TIP3   OH275063   1.577   5.752   5.044 -0.0805  0.2292 -0.1712
17883TIP3    H175064   1.647   5.818   5.044  0.6044 -0.4760  0.7593
17883TIP3    H275065   1.618   5.675   5.003 -0.3540 -0.1482  0.2678
17884TIP3   OH275066   5.606   5.811   0.014 -0.3050  0.6045  0.1870
17884TIP3    H175067   5.581   5.895   0.054 -1.9120 -0.5630  1.7083
17884TIP3    H275068   5.541   5.749   0.047  2.4556 -1.8189  1.2898
17885TIP3   OH275069   0.084   3.700   3.720 -0.0644 -0.1045  0.2268
17885TIP3    H175070   0.116   3.789   3.737  0.1672 -0.2489  0.5583
17885TIP3    H275071  -0.004   3.713   3.684  0.9274  0.3655 -2.1295
17886TIP3   OH275072   4.071   3.197  13.131  0.5013  0.0487  0.0218
17886TIP3    H175073   4.088   3.113  13.090  0.5781  0.3959 -0.6611
17886TIP3    H275074   3.995   3.182  13.186  1.3405 -0.8147  0.9633
17887TIP3   OH275075   0.362   2.205   1.629 -0.4047 -0.3948  0.2101
17887TIP3    H175076   0.443   2.233   1.585 -0.8112 -1.1939 -1.0727
17887TIP3    H275077   0.392   2.164   1.710  0.3366  1.5224  0.9391
17888TIP3   OH275078   1.390   4.279   5.197  0.5545  0.3039  0.1898
17888TIP3    H175079   1.455   4.317   5.256 -1.5723 -0.6828  3.3094
17888TIP3    H275080   1.375   4.191   5.231  0.0744 -0.7385 -2.5631
17889TIP3   OH275081   0.483   5.694   0.976 -0.1023 -0.5924 -0.1016
17889TIP3    H175082   0.521   5.740   1.052  0.1296 -1.9682  0.6289
17889TIP3    H275083   0.535   5.614   0.969 -1.5775 -1.5305 -0.3321
17890TIP3   OH275084   5.672   6.158  14.117 -0.4376  0.6044  0.2182
17890TIP3    H175085   5.625   6.240  14.105 -1.8633  0.0110  1.5434
17890TIP3    H275086   5.637   6.122  14.199  1.0108 -0.7513  0.2787
17891TIP3   OH275087   0.769   4.658   5.320  0.0577  0.1102  0.3234
17891TIP3    H175088   0.717   4.710   5.382 -0.2188  0.0999  0.0986
17891TIP3    H275089   0.706   4.625   5.257  0.2922 -0.1692  0.2328
17892TIP3   OH275090   2.265   4.153  11.088  0.3834  0.0666  0.4450
17892TIP3    H175091   2.346   4.194  11.118  1.9621 -1.5569 -1.4587
17892TIP3    H275092   2.249   4.191  11.002 -0.8496  0.2941  0.7575
17893TIP3   OH275093   4.686   5.582  15.854 -0.0093  0.0072 -0.1634
17893TIP3    H175094   4.632   5.527  15.911 -0.3769  0.3631 -0.1658
17893TIP3    H275095   4.743   5.520  15.808  1.2402 -0.1634  1.5952
17894TIP3   OH275096   6.781   2.343  14.006 -0.2614  0.0685 -0.4286
17894TIP3    H175097   6.870   2.322  13.977 -0.9097  0.2137 -2.5353
17894TIP3    H275098   6.794   2.396  14.085  1.5229  0.6546 -1.1067
17895TIP3   OH275099   1.398   5.376  16.910 -0.5189  0.0546  0.4565
17895TIP3    H175100   1.447   5.318  16.852 -3.3268 -0.8794 -1.0862
17895TIP3    H275101   1.451   5.456  16.914  1.0344 -0.8497 -1.2237
17896TIP3   OH275102   3.787   3.089   2.859  0.1222  0.0883  0.3846
17896TIP3    H175103   3.775   3.091   2.954 -1.5345  0.7940  0.1789
17896TIP3    H275104   3.834   3.008   2.843 -0.2956 -0.4404  1.7413
17897TIP3   OH275105   0.167   1.119  13.180  0.2301 -0.1500 -0.1549
17897TIP3    H175106   0.187   1.129  13.273 -0.3471 -1.9347  0.1825
17897TIP3    H275107   0.112   1.195  13.159  2.1438  1.4506  0.3937
17898TIP3   OH275108   4.253   4.414   2.844  0.3338 -0.0229  0.6128
17898TIP3    H175109   4.299   4.331   2.834  0.2277  0.3853 -4.5503
17898TIP3    H275110   4.166   4.389   2.876  0.5645 -1.8378 -0.1191
17899TIP3   OH275111   4.819   2.663  13.408  0.2996  0.1613 -0.7557
17899TIP3    H175112   4.899   2.614  13.429  1.2853  1.8334 -0.4931
17899TIP3    H275113   4.783   2.618  13.331 -0.2925 -2.5771  1.0352
17900TIP3   OH275114   4.532   0.808   5.835  0.1905  0.5780  0.2062
17900TIP3    H175115   4.477   0.730   5.827  0.5992  0.4056 -1.0348
17900TIP3    H275116   4.607   0.780   5.887 -0.2710  0.4733  0.8153
17901TIP3   OH275117   5.494   2.311   3.429  0.6492  0.1696 -0.1434
17901TIP3    H175118   5.556   2.251   3.469 -2.6813 -2.7459  0.9183
17901TIP3    H275119   5.442   2.345   3.502 -1.1686 -0.0618 -1.2853
17902TIP3   OH275120   0.108   3.149   1.922  0.5235  0.2351  0.2276
17902TIP3    H175121   0.180   3.189   1.970  0.6676 -2.1131  2.0288
17902TIP3    H275122   0.149   3.084   1.866  0.0337  0.7475 -0.7483
17903TIP3   OH275123   3.534   6.507  16.171 -0.4389  0.4106  0.0088
17903TIP3    H175124   3.617   6.469  16.139 -0.7561 -0.3245  0.0391
17903TIP3    H275125   3.525   6.472  16.260 -1.9114 -1.3613 -0.8093
17904TIP3   OH275126   2.748   1.591  16.063  0.0842  0.1194  0.2024
17904TIP3    H175127   2.737   1.533  16.139 -0.8691  1.0484  0.7713
17904TIP3    H275128   2.668   1.642  16.059  1.1172  1.7494 -0.0270
17905TIP3   OH275129   5.498   2.631  14.130 -0.0050  0.5264 -0.1327
17905TIP3    H175130   5.429   2.608  14.192  1.4206 -0.2161  1.2162
17905TIP3    H275131   5.517   2.550  14.084 -0.2952  0.8187 -0.7666
17906TIP3   OH275132   5.681   3.423  10.497  0.3113  0.0463 -0.0221
17906TIP3    H175133   5.697   3.504  10.545 -0.6051  0.6998 -0.8119
17906TIP3    H275134   5.656   3.451  10.409 -0.9803 -1.0598 -0.0220
17907TIP3   OH275135   4.593   4.531  16.390 -0.2335 -0.0495  0.5571
17907TIP3    H175136   4.548   4.489  16.463 -1.7863  0.6582  0.0321
17907TIP3    H275137   4.524   4.579  16.344  1.2786  2.0841  0.4430
17908TIP3   OH275138   1.832   1.332   3.609  0.3617  0.0476  0.3229
17908TIP3    H175139   1.742   1.354   3.585 -0.3805 -2.4962  0.6970
17908TIP3    H275140   1.882   1.349   3.530 -0.4330  1.5033  0.1149
17909TIP3   OH275141   2.976   5.494  13.127  0.2145 -0.8038 -0.1888
17909TIP3    H175142   3.037   5.512  13.055 -0.4634  0.2329 -0.5219
17909TIP3    H275143   3.033   5.480  13.203  0.8480  1.5919 -0.1836
17910TIP3   OH275144   5.773   3.530  16.624 -0.0451 -0.4676 -0.2377
17910TIP3    H175145   5.755   3.598  16.559  1.8595  0.3739  0.0794
17910TIP3    H275146   5.813   3.458  16.574  1.0570  0.0220 -0.0794
17911TIP3   OH275147   4.364   5.071   4.228 -0.0119  0.1829  0.0574
17911TIP3    H175148   4.412   5.002   4.273  0.0339 -0.8038 -1.4657
17911TIP3    H275149   4.415   5.088   4.149 -0.9484  0.7401 -0.4363
17912TIP3   OH275150   6.044   2.820  11.622  0.3042  0.1771  0.1762
17912TIP3    H175151   5.974   2.884  11.606  1.4692  1.2749 -0.6041
17912TIP3    H275152   6.075   2.797  11.534  0.7308 -0.5287  0.5130
17913TIP3   OH275153   0.058   4.963   4.976 -0.1241 -0.3126  0.2046
17913TIP3    H175154   0.036   5.056   4.983 -1.6494 -0.6250 -0.2186
17913TIP3    H275155   0.010   4.921   5.048 -0.8511 -0.9972 -0.6681
17914TIP3   OH275156   6.111   1.550  14.605  0.3410  0.3933  0.0324
17914TIP3    H175157   6.118   1.631  14.656  2.1293  2.1985 -2.9140
17914TIP3    H275158   6.058   1.573  14.529  1.7880 -0.8531 -1.4101
17915TIP3   OH275159   4.095   4.180  11.323 -0.7390 -0.2839  0.0655
17915TIP3    H175160   4.056   4.246  11.266 -0.4810 -0.1512  0.0419
17915TIP3    H275161   4.036   4.174  11.398 -1.0571 -0.4290 -0.1984
17916TIP3   OH275162   1.291   1.041  14.021  0.2134  0.2058 -0.0227
17916TIP3    H175163   1.292   1.004  13.933 -1.5550 -2.0048  0.8455
17916TIP3    H275164   1.199   1.044  14.045  0.7184 -0.0641  2.0782
17917TIP3   OH275165   6.320   3.779   0.309 -0.0705 -0.8219  0.2552
17917TIP3    H175166   6.390   3.795   0.246  0.2451 -1.9967  0.2970
17917TIP3    H275167   6.313   3.861   0.358 -0.7902  0.3572 -1.7472
17918TIP3   OH275168   3.140   1.876  11.832  0.0863  0.0147 -0.0519
17918TIP3    H175169   3.183   1.940  11.889  0.9670 -0.2637 -0.3988
17918TIP3    H275170   3.098   1.929  11.764  0.0614  0.2786  0.1684
17919TIP3   OH275171   0.105   5.000   4.270 -0.5954 -0.4598 -0.4837
17919TIP3    H175172   0.064   4.941   4.332 -1.7513 -0.5438 -1.3122
17919TIP3    H275173   0.037   5.018   4.205 -0.0119  1.1295 -0.6855
17920TIP3   OH275174   0.331   0.526   4.970  0.6996  0.3073  0.4091
17920TIP3    H175175   0.323   0.459   5.038 -0.2249  0.8259  0.8208
17920TIP3    H275176   0.425   0.541   4.961  0.7476  1.5736  2.8651
17921TIP3   OH275177   3.051   0.906  17.080 -0.3412 -0.1472 -0.0223
17921TIP3    H175178   2.964   0.943  17.067 -0.0811  0.2479 -0.6557
17921TIP3    H275179   3.111   0.974  17.050  0.1089 -1.6569 -2.6509
17922TIP3   OH275180   4.728   0.673  10.935  0.5348 -0.0149 -0.2429
17922TIP3    H175181   4.684   0.648  11.016  1.2170  0.9345  0.4199
17922TIP3    H275182   4.796   0.607  10.922  0.1497 -0.4061 -0.2689
17923TIP3   OH275183   2.827   5.664  14.474 -0.1746  0.0336 -0.0466
17923TIP3    H175184   2.894   5.694  14.413 -0.7597  1.2333 -0.1324
17923TIP3    H275185   2.875   5.627  14.547  0.5296 -1.6795 -1.3532
17924TIP3   OH275186   5.706   0.139   2.078 -0.1241  0.2804  0.3497
17924TIP3    H175187   5.697   0.234   2.073  0.0018  0.2703 -0.0722
17924TIP3    H275188   5.679   0.107   1.991  0.0097 -0.0536  0.4271
17925TIP3   OH275189   4.104   4.241   0.275 -0.1816  0.5418 -0.3422
17925TIP3    H175190   4.019   4.221   0.315 -0.9663  2.7677 -0.8258
17925TIP3    H275191   4.121   4.167   0.217  0.3050 -2.0562  2.9739
17926TIP3   OH275192   6.088   6.253  15.811 -0.2730  0.2851 -0.0415
17926TIP3    H175193   6.076   6.281  15.902  1.4719  1.0952 -0.0277
17926TIP3    H275194   6.033   6.312  15.760  0.3315  1.1870  0.3339
17927TIP3   OH275195   3.378   5.219   5.727 -0.6667 -0.4753 -0.3487
17927TIP3    H175196   3.377   5.134   5.772 -1.3034  0.3247  1.1867
17927TIP3    H275197   3.335   5.279   5.788  1.1942  1.2955 -0.7167
17928TIP3   OH275198   5.992   5.048   4.536  0.0515  0.5171  0.2272
17928TIP3    H175199   5.949   4.965   4.555 -2.1604  1.6645  0.4072
17928TIP3    H275200   5.964   5.107   4.607 -0.7437  2.2151 -1.4580
17929TIP3   OH275201   3.784   2.860  14.083 -0.2600  0.0477  0.2831
17929TIP3    H175202   3.821   2.902  14.005  1.6096  0.2801  1.2686
17929TIP3    H275203   3.700   2.905  14.096 -0.1491  0.6717 -1.0269
17930TIP3   OH275204   3.851   3.403   4.153 -0.2625  0.1297 -0.4538
17930TIP3    H175205   3.774   3.360   4.116  0.5379 -0.8765 -0.9880
17930TIP3    H275206   3.888   3.339   4.214  0.9766  0.0132 -1.2968
17931TIP3   OH275207   1.377   2.232   3.809  0.4300  0.2446  0.6643
17931TIP3    H175208   1.448   2.264   3.865  0.8212  0.2280  0.1820
17931TIP3    H275209   1.361   2.143   3.840 -0.1642  0.6422  1.5282
17932TIP3   OH275210   6.022   1.997  14.212  0.4646  0.1861  0.3098
17932TIP3    H175211   6.064   2.001  14.298  0.6585  0.0532  0.2214
17932TIP3    H275212   5.964   1.920  14.216  0.4464  0.2008  0.3331
17933TIP3   OH275213   3.556   5.885  13.247  0.1505  0.2920  0.6415
17933TIP3    H175214   3.586   5.903  13.337 -0.4279 -0.9085  1.0857
17933TIP3    H275215   3.528   5.971  13.214 -0.2159  0.6530  1.8417
17934TIP3   OH275216   2.756   4.752  12.061  0.3691  0.2210 -0.0708
17934TIP3    H175217   2.827   4.763  12.124 -0.7739  1.1278  1.0985
17934TIP3    H275218   2.679   4.784  12.107 -0.1310  3.0409 -2.6937
17935TIP3   OH275219   0.491   1.197   4.969 -0.1325  0.0025  0.1910
17935TIP3    H175220   0.504   1.216   4.876 -1.1831 -0.2668 -0.0186
17935TIP3    H275221   0.402   1.163   4.974  0.0896 -0.4412  1.2323
17936TIP3   OH275222   1.406   3.852   1.493 -0.4012  0.9755 -0.1178
17936TIP3    H175223   1.394   3.878   1.401  3.5067 -1.1204 -1.3505
17936TIP3    H275224   1.420   3.935   1.539 -3.1749  2.1220 -1.2270
17937TIP3   OH275225   3.601   6.185   1.511 -0.2707 -0.0559 -0.1313
17937TIP3    H175226   3.553   6.139   1.580 -0.4141 -0.2676 -0.3715
17937TIP3    H275227   3.689   6.196   1.546 -0.2676 -0.4161 -0.0330
17938TIP3   OH275228   3.559   0.860  13.743 -0.2228 -0.1384 -0.2231
17938TIP3    H175229   3.588   0.771  13.723 -2.8131 -1.5578  2.0294
17938TIP3    H275230   3.632   0.898  13.792  0.4072 -1.4170 -0.1437
17939TIP3   OH275231   6.764   3.545   5.701  0.1801  0.2502  0.8052
17939TIP3    H175232   6.788   3.637   5.687  1.4642 -0.0663  0.8687
17939TIP3    H275233   6.847   3.498   5.702 -0.5900 -1.2374 -1.4293
17940TIP3   OH275234   4.966   2.578  11.175 -0.2203  0.2470 -0.1901
17940TIP3    H175235   4.960   2.653  11.235  0.5612  1.5478 -1.6842
17940TIP3    H275236   5.059   2.571  11.156 -0.2041 -1.6250  0.5494
17941TIP3   OH275237   3.397   0.443   1.162  0.2455 -0.0151 -0.1287
17941TIP3    H175238   3.346   0.518   1.130 -1.0691 -0.1998  1.4512
17941TIP3    H275239   3.332   0.377   1.183  1.1603 -0.4338  1.4650
17942TIP3   OH275240   4.749   1.779  16.343 -0.3219 -0.0189  0.6443
17942TIP3    H175241   4.797   1.779  16.260 -0.7690 -1.0053  0.3781
17942TIP3    H275242   4.677   1.717  16.329 -2.2257  2.0977  0.7058
17943TIP3   OH275243   1.401   0.076  13.969  0.4600  0.3367 -0.6218
17943TIP3    H175244   1.448   0.148  14.011  0.3820  1.3255 -2.1781
17943TIP3    H275245   1.423   0.084  13.876 -1.2438 -0.3534 -1.1097
17944TIP3   OH275246   6.429   5.546  14.722  0.1663 -0.9474 -0.4403
17944TIP3    H175247   6.469   5.592  14.796  0.6626 -0.6251 -0.9120
17944TIP3    H275248   6.406   5.615  14.660 -1.2778 -1.1227 -0.0949
17945TIP3   OH275249   2.057   5.456  15.533  0.0685 -0.0347 -0.1299
17945TIP3    H175250   2.079   5.514  15.606 -1.5253 -0.1544  0.4531
17945TIP3    H275251   1.962   5.458  15.528  0.1332 -0.5246 -1.8169
17946TIP3   OH275252   4.236   4.771  13.325  0.0867 -0.0317 -0.0596
17946TIP3    H175253   4.251   4.781  13.419 -2.6225 -1.4446  0.5716
17946TIP3    H275254   4.314   4.725  13.293  0.3248 -0.9757  1.8085
17947TIP3   OH275255   0.460   4.755   2.568 -1.1005  0.4409  0.1474
17947TIP3    H175256   0.548   4.792   2.566 -1.0549  0.3423  0.3425
17947TIP3    H275257   0.445   4.725   2.478 -0.6858 -0.1146  0.2545
17948TIP3   OH275258   6.284   3.329  15.927 -0.0881 -0.2432  0.3139
17948TIP3    H175259   6.254   3.294  16.011 -1.0149  2.4678  1.1715
17948TIP3    H275260   6.379   3.316  15.928 -0.1522 -0.7052  1.5482
17949TIP3   OH275261   0.677   4.931   5.122 -0.2271 -0.0173  0.2729
17949TIP3    H175262   0.687   4.891   5.035  2.0287 -0.1709  0.5706
17949TIP3    H275263   0.598   4.891   5.158  0.5710 -2.3303 -0.4434
17950TIP3   OH275264   1.090   4.015   1.363 -0.4450 -0.3992  0.8361
17950TIP3    H175265   1.093   4.020   1.459  3.2416  0.1036  0.7614
17950TIP3    H275266   1.181   4.022   1.336 -1.4111 -0.7629 -2.7372
17951TIP3   OH275267   0.081   0.663  13.415  0.0521 -0.1874  0.0031
17951TIP3    H175268  -0.002   0.621  13.392 -0.4785  0.7469  0.1873
17951TIP3    H275269   0.144   0.625  13.354 -0.4176 -1.2443  0.1624
17952TIP3   OH275270   1.634   5.675   1.323 -0.1128 -0.1555  0.0098
17952TIP3    H175271   1.570   5.640   1.261 -1.3688 -0.0377  1.2268
17952TIP3    H275272   1.684   5.739   1.272 -2.7022  1.6980 -0.2707
17953TIP3   OH275273   6.694   4.007   2.494 -0.0699 -0.1095 -0.6238
17953TIP3    H175274   6.745   4.087   2.488  0.2149 -0.2091  0.3905
17953TIP3    H275275   6.755   3.942   2.528 -0.7308 -0.3540  0.0950
17954TIP3   OH275276   0.643   6.733  14.600 -0.2441 -0.1056 -0.5093
17954TIP3    H175277   0.584   6.722  14.674 -1.7482  0.1108 -1.6416
17954TIP3    H275278   0.631   6.653  14.548  0.6978 -0.2023 -0.5852
17955TIP3   OH275279   0.737   0.273  16.403 -0.3351  0.1349 -0.3300
17955TIP3    H175280   0.829   0.277  16.379 -0.5074  0.4542 -0.9362
17955TIP3    H275281   0.735   0.299  16.495  0.3119 -0.9815  0.0148
17956TIP3   OH275282   4.726   2.176   1.981 -0.2466  0.1462 -0.2266
17956TIP3    H175283   4.803   2.213   1.939  0.4425 -0.1132  0.8006
17956TIP3    H275284   4.653   2.229   1.949  0.2713 -0.0393 -1.7306
17957TIP3   OH275285   0.127   5.301  15.313  0.5828 -0.4151 -0.0330
17957TIP3    H175286   0.082   5.383  15.332  1.7765  0.0332  0.9476
17957TIP3    H275287   0.113   5.286  15.220  1.0695  1.3441 -0.4102
17958TIP3   OH275288   1.069   1.672  16.482 -0.8334  0.0457  0.2518
17958TIP3    H175289   1.012   1.703  16.553 -0.4307 -1.4742  1.2729
17958TIP3    H275290   1.104   1.752  16.443 -0.1373  0.8993  2.5332
17959TIP3   OH275291   3.651   2.206  11.553 -0.5302 -0.3508 -0.5041
17959TIP3    H175292   3.703   2.286  11.542 -0.5407 -0.2732  0.0181
17959TIP3    H275293   3.582   2.213  11.487 -1.0089  0.4504  0.0755
17960TIP3   OH275294   0.716   3.849   3.976  0.1498  0.0603 -0.4228
17960TIP3    H175295   0.631   3.890   3.990 -0.0374 -1.2059  2.4238
17960TIP3    H275296   0.695   3.758   3.953  0.6967 -0.3411  0.6055
17961TIP3   OH275297   2.073   1.540   3.868  0.3079 -0.4112 -0.1019
17961TIP3    H175298   2.017   1.614   3.891 -1.9896 -1.8165 -1.0506
17961TIP3    H275299   2.102   1.558   3.779  0.9763  0.0616  0.2047
17962TIP3   OH275300   0.630   3.699  15.011  0.2647 -0.4970  0.1705
17962TIP3    H175301   0.602   3.640  14.941  2.0388 -1.1158 -0.0496
17962TIP3    H275302   0.715   3.664  15.038  0.6879  1.1466  0.9966
17963TIP3   OH275303   2.746   4.522   4.834 -1.0401 -0.1189 -0.1271
17963TIP3    H175304   2.776   4.600   4.880 -0.4593 -0.9288  0.8779
17963TIP3    H275305   2.815   4.503   4.771 -2.0247  1.2287 -1.6529
17964TIP3   OH275306   5.497   1.786  12.848 -0.7386  0.0872 -0.1384
17964TIP3    H175307   5.547   1.868  12.850  0.1538 -0.4638  0.1960
17964TIP3    H275308   5.408   1.812  12.870 -0.6540  1.1131 -0.9847
17965TIP3   OH275309   2.634   0.497   0.271 -0.2903 -0.2298 -0.4593
17965TIP3    H175310   2.632   0.427   0.205 -0.4017 -0.1412 -0.5506
17965TIP3    H275311   2.629   0.451   0.354 -1.4519 -0.2698 -0.5528
17966TIP3   OH275312   0.595   3.361  15.808 -0.6501  0.3746 -0.4709
17966TIP3    H175313   0.502   3.354  15.830 -0.5378  0.0034 -0.1111
17966TIP3    H275314   0.609   3.454  15.794 -0.8118  0.5783  0.6485
17967TIP3   OH275315   0.426   4.283  10.729  0.2290  0.3929  0.1712
17967TIP3    H175316   0.402   4.215  10.666 -0.4855  0.4480  0.3812
17967TIP3    H275317   0.482   4.343  10.679  1.2415 -0.5863  0.1073
17968TIP3   OH275318   3.877   3.012  13.354  0.4775  0.1512 -0.0089
17968TIP3    H175319   3.886   3.066  13.433  0.0622  0.5498 -0.2258
17968TIP3    H275320   3.878   2.922  13.386 -1.1142  0.3286  0.6171
17969TIP3   OH275321   3.712   5.644  13.370 -0.3315  0.1015  0.1625
17969TIP3    H175322   3.638   5.697  13.340  0.0266 -0.0892 -1.0612
17969TIP3    H275323   3.769   5.706  13.416 -1.3310  0.2116  1.2972
17970TIP3   OH275324   4.584   0.769   1.006  0.3705  0.4073  0.0193
17970TIP3    H175325   4.573   0.828   0.932 -0.3465  2.2935  1.5788
17970TIP3    H275326   4.665   0.721   0.988 -0.1314  0.3878 -2.2609
17971TIP3   OH275327   5.215   4.034  13.861  0.5496  0.2289  0.4443
17971TIP3    H175328   5.153   4.001  13.796 -0.3836 -0.9816  1.9023
17971TIP3    H275329   5.263   4.103  13.816 -1.0898  0.4230 -1.0604
17972TIP3   OH275330   0.472   5.347  16.626  0.1078  0.2641 -0.2545
17972TIP3    H175331   0.392   5.314  16.585  0.4898 -1.0854  0.0358
17972TIP3    H275332   0.477   5.298  16.709  1.9652 -0.7066 -0.9206
17973TIP3   OH275333   1.922   6.268   1.871 -0.1049  0.1933  0.1478
17973TIP3    H175334   1.929   6.244   1.964 -2.5195 -0.7216  0.1452
17973TIP3    H275335   1.987   6.337   1.858 -0.2186  0.8034  2.6807
17974TIP3   OH275336   1.698   6.035   2.139 -0.2492  0.4850  0.0744
17974TIP3    H175337   1.688   5.996   2.226 -4.2179  2.2775  0.5560
17974TIP3    H275338   1.724   5.962   2.083  2.2982 -0.7240  2.6900
17975TIP3   OH275339   5.623   6.468   5.126  0.0060 -0.5199  0.3312
17975TIP3    H175340   5.620   6.442   5.218  0.0844  1.9980  1.0742
17975TIP3    H275341   5.688   6.538   5.123 -0.0788 -0.5096 -1.6347
17976TIP3   OH275342   3.696   2.433   2.596  0.2177  0.1019 -0.2078
17976TIP3    H175343   3.695   2.527   2.576 -0.1605  0.1857  0.1963
17976TIP3    H275344   3.761   2.425   2.665 -0.3709  0.1922  0.3609
17977TIP3   OH275345   1.797   5.217   0.567 -0.1834  0.1828 -0.0587
17977TIP3    H175346   1.871   5.265   0.602 -2.1893  1.6798  2.3186
17977TIP3    H275347   1.806   5.129   0.603  0.0997  0.5268  0.7082
17978TIP3   OH275348   3.992   2.761  15.352 -0.0406 -0.1431 -0.4040
17978TIP3    H175349   3.914   2.706  15.346  0.5723 -1.1241  0.4967
17978TIP3    H275350   4.059   2.703  15.388  0.6898  1.1140  0.2779
17979TIP3   OH275351   4.682   4.572   2.652 -0.1320  0.1145 -0.1708
17979TIP3    H175352   4.776   4.583   2.636  0.1918  0.2017  1.6395
17979TIP3    H275353   4.640   4.642   2.602  0.8325  0.5762 -0.3314
17980TIP3   OH275354   2.414   6.551  16.752 -0.2323  0.1571 -0.4164
17980TIP3    H175355   2.510   6.548  16.761 -0.2380  1.4594  0.1966
17980TIP3    H275356   2.381   6.535  16.840 -0.5593  0.3410 -0.5050
17981TIP3   OH275357   2.081   1.225  16.369  0.1237  0.1713 -0.0448
17981TIP3    H175358   2.151   1.213  16.433  0.6627 -0.0897 -0.6684
17981TIP3    H275359   2.002   1.192  16.412  0.5982 -0.5905  0.2534
17982TIP3   OH275360   2.169   2.177  15.381  0.4867 -0.2443  0.2195
17982TIP3    H175361   2.092   2.152  15.330 -0.3313  1.5419  0.5322
17982TIP3    H275362   2.155   2.136  15.466  0.1246 -0.3341  0.1194
17983TIP3   OH275363   3.303   3.370   0.435 -0.4788 -0.0441 -0.3111
17983TIP3    H175364   3.373   3.306   0.450  0.6756  0.9068 -1.5283
17983TIP3    H275365   3.247   3.330   0.368  0.7500  0.5838 -1.7414
17984TIP3   OH275366   6.575   4.479  13.945  0.3899  0.0523  0.7917
17984TIP3    H175367   6.557   4.463  13.853  0.3116  1.6368  0.5227
17984TIP3    H275368   6.633   4.408  13.971  1.7519  0.5246 -0.8993
17985TIP3   OH275369   3.227   4.339   4.732 -0.2653 -0.8706 -0.6913
17985TIP3    H175370   3.134   4.358   4.725 -0.5700 -1.7529  0.8693
17985TIP3    H275371   3.233   4.272   4.799  1.7167  0.9387  1.0154
17986TIP3   OH275372   0.553   6.181  12.198 -0.1688 -0.3180 -0.8612
17986TIP3    H175373   0.519   6.129  12.271  0.7785 -1.3092 -1.1105
17986TIP3    H275374   0.620   6.125  12.158 -0.2404  0.4656 -2.1046
17987TIP3   OH275375   0.434   4.688   2.953  0.2411  0.2331 -0.2210
17987TIP3    H175376   0.401   4.636   2.879  0.2902 -0.1204  0.0049
17987TIP3    H275377   0.387   4.655   3.029  1.1457 -0.3128  0.1107
17988TIP3   OH275378   2.925   1.466   4.143  0.7377 -0.2383  0.6821
17988TIP3    H175379   2.832   1.456   4.121  1.0973  1.5111 -1.7607
17988TIP3    H275380   2.957   1.534   4.084  3.8905 -1.6751  0.6284
17989TIP3   OH275381   1.419   2.694  13.256  0.2397 -0.0844  0.2342
17989TIP3    H175382   1.363   2.748  13.201  0.8819 -0.3477 -0.6770
17989TIP3    H275383   1.407   2.730  13.344  0.4018  1.3273 -0.3042
17990TIP3   OH275384   2.364   2.872  17.217  0.2788 -0.3212  0.1822
17990TIP3    H175385   2.402   2.881  17.305 -0.8257 -1.1007  0.7421
17990TIP3    H275386   2.303   2.946  17.210  2.0675  1.0912 -0.8284
17991TIP3   OH275387   5.895   1.405   3.153  0.7517  0.1485 -0.0529
17991TIP3    H175388   5.888   1.376   3.062  0.9288 -1.5328  0.4410
17991TIP3    H275389   5.985   1.438   3.160  0.5145  0.9331 -0.6645
17992TIP3   OH275390   4.319   4.280  16.106 -0.2014 -0.0136 -0.3762
17992TIP3    H175391   4.324   4.246  16.017  0.7387 -1.5066  0.2184
17992TIP3    H275392   4.225   4.283  16.126 -0.3803 -0.2797 -1.1823
17993TIP3   OH275393   4.302   5.272   3.570 -0.1439 -0.3896  0.4093
17993TIP3    H175394   4.332   5.182   3.572 -2.6506 -1.2942 -0.7645
17993TIP3    H275395   4.330   5.309   3.654  3.5550 -1.3111 -0.3397
17994TIP3   OH275396   6.641   2.060  16.371 -0.6263  0.0339 -0.5774
17994TIP3    H175397   6.723   2.101  16.399 -0.0425 -0.0114 -2.1337
17994TIP3    H275398   6.600   2.126  16.315 -1.8385  0.1896  0.4774
17995TIP3   OH275399   4.821   6.163   3.092  0.3737 -0.4274  0.8320
17995TIP3    H175400   4.757   6.161   3.162 -1.1073 -1.0694 -0.5079
17995TIP3    H275401   4.863   6.077   3.096 -2.3433 -1.9506 -1.4009
17996TIP3   OH275402   5.502   2.235  13.472 -0.1626 -0.3993 -0.0238
17996TIP3    H175403   5.545   2.227  13.557 -1.5387 -2.4814  0.4948
17996TIP3    H275404   5.488   2.145  13.443 -2.0922  0.2533 -1.2372
17997TIP3   OH275405   2.811   0.734  17.150  0.1533 -0.4320  0.3525
17997TIP3    H175406   2.884   0.780  17.108  0.1647 -0.0127  0.8229
17997TIP3    H275407   2.842   0.644  17.160  0.7685 -0.1733  0.9040
17998TIP3   OH275408   2.544   0.835   1.480  0.5241 -0.0657 -0.2869
17998TIP3    H175409   2.591   0.780   1.542  2.5661  0.1610 -1.5770
17998TIP3    H275410   2.599   0.914   1.472  0.6729 -0.3901 -2.8542
17999TIP3   OH275411   3.521   6.530   5.333  0.1951 -0.2127 -0.2942
17999TIP3    H175412   3.465   6.597   5.293  2.8617  1.3326 -1.5413
17999TIP3    H275413   3.526   6.460   5.268  0.3285 -0.0121 -0.5000
18000TIP3   OH275414   5.768   5.172   5.049  0.3229 -0.6579 -0.3122
18000TIP3    H175415   5.802   5.095   5.004  1.0063 -0.8481  0.5151
18000TIP3    H275416   5.840   5.201   5.105 -0.7699 -0.9285  1.2863
18001TIP3   OH275417   3.858   3.079   1.056 -0.1462 -0.1216  0.2705
18001TIP3    H175418   3.802   3.148   1.020  2.5820  3.0214  1.8243
18001TIP3    H275419   3.913   3.052   0.982  0.2568  0.9283  0.1778
18002TIP3   OH275420   1.273   2.907   4.580 -0.6844 -0.0357  0.7001
18002TIP3    H175421   1.308   2.841   4.521 -1.1649 -0.5927  1.0241
18002TIP3    H275422   1.179   2.907   4.562 -0.5876  1.1111  0.1616
18003TIP3   OH275423   3.816   4.757   1.096 -0.1867  0.0181  0.0027
18003TIP3    H175424   3.862   4.674   1.088 -0.9372 -0.8204  3.4278
18003TIP3    H275425   3.869   4.808   1.157 -1.3993  0.7745  0.4506
18004TIP3   OH275426   5.587   5.658  13.518 -0.6914 -1.0564  0.3963
18004TIP3    H175427   5.681   5.659  13.535 -0.5535 -1.2996 -0.3182
18004TIP3    H275428   5.577   5.709  13.438 -1.1554 -1.1050  0.4211
18005TIP3   OH275429   3.462   3.951   6.068  0.3251  0.1027  0.5771
18005TIP3    H175430   3.457   3.857   6.087  1.1407  0.0531  0.5498
18005TIP3    H275431   3.412   3.992   6.138 -2.0255 -0.5098 -0.7036
18006TIP3   OH275432   1.171   3.160  12.177  0.4961  0.1901  0.2876
18006TIP3    H175433   1.143   3.084  12.228  1.2766  1.0286  2.0091
18006TIP3    H275434   1.227   3.210  12.237 -0.3946  2.3695 -0.6450
18007TIP3   OH275435   5.523   4.308  16.372  0.1668 -0.4053  0.2919
18007TIP3    H175436   5.610   4.326  16.335 -1.4631  0.5609 -3.3435
18007TIP3    H275437   5.508   4.379  16.434  2.2953 -1.1006  1.6820
18008TIP3   OH275438   4.277   4.403   2.270 -0.0071  0.0633 -0.5199
18008TIP3    H175439   4.258   4.489   2.232 -0.0565 -0.2464 -1.1982
18008TIP3    H275440   4.266   4.342   2.197 -1.3924 -0.6895  0.3093
18009TIP3   OH275441   3.890   2.793   0.498  0.9059  0.1739 -0.7145
18009TIP3    H175442   3.930   2.711   0.526 -1.8678 -0.2538  2.3316
18009TIP3    H275443   3.808   2.768   0.457  0.1457  1.3890  0.0201
18010TIP3   OH275444   6.230   1.715  11.566 -0.5371 -0.3278 -0.4777
18010TIP3    H175445   6.304   1.744  11.618  0.0690 -2.3182 -0.1764
18010TIP3    H275446   6.157   1.769  11.595  0.6215  1.1721 -0.2817
18011TIP3   OH275447   6.490   1.347   6.029 -0.0454 -0.3319  0.2700
18011TIP3    H175448   6.473   1.253   6.034 -1.2133 -0.0324  2.6927
18011TIP3    H275449   6.578   1.356   6.066 -0.6440 -0.3067  1.7295
18012TIP3   OH275450   2.204   0.996  12.383  0.6951 -0.3636  0.4068
18012TIP3    H175451   2.165   1.067  12.435  0.2247 -1.9966  2.3560
18012TIP3    H275452   2.239   0.935  12.449  2.5770 -1.1180 -1.2583
18013TIP3   OH275453   0.391   4.978   4.703 -0.4756 -0.3468  0.4177
18013TIP3    H175454   0.349   4.935   4.777 -0.6621  0.6072  0.8721
18013TIP3    H275455   0.440   4.908   4.659 -2.1726 -1.3753  0.1317
18014TIP3   OH275456   1.127   6.703  11.388  0.1519 -0.0507 -0.4331
18014TIP3    H175457   1.215   6.721  11.355  0.4918 -0.2029  0.3797
18014TIP3    H275458   1.086   6.789  11.398  0.3730  0.0471 -0.3749
18015TIP3   OH275459   1.621   1.353   4.641  0.1921 -0.0107  0.3304
18015TIP3    H175460   1.548   1.307   4.684  1.0326 -0.8740  0.8749
18015TIP3    H275461   1.634   1.432   4.694 -0.7716  0.4860 -0.1608
18016TIP3   OH275462   1.801   3.988   0.990  0.3595  0.0698 -0.1278
18016TIP3    H175463   1.835   4.018   0.906 -1.2349 -1.7431 -1.4732
18016TIP3    H275464   1.870   3.933   1.026  1.2650  1.2927  0.0216
18017TIP3   OH275465   5.811   0.422   4.334 -0.4574  0.1448  0.2214
18017TIP3    H175466   5.724   0.453   4.310 -0.6135  1.1962  2.0073
18017TIP3    H275467   5.823   0.453   4.424  1.6384 -0.2422  0.0998
18018TIP3   OH275468   0.058   0.404  15.249 -0.0369  0.6283 -0.0458
18018TIP3    H175469   0.124   0.465  15.281  0.4352  0.2551 -0.3092
18018TIP3    H275470   0.083   0.320  15.286  0.9813  0.0317 -2.0562
18019TIP3   OH275471   5.781   4.185   1.277 -0.1065  0.0431 -0.0093
18019TIP3    H175472   5.809   4.097   1.300 -0.1664  0.0745  0.1822
18019TIP3    H275473   5.702   4.173   1.224  0.8280 -0.0965 -1.4072
18020TIP3   OH275474   5.170   2.019   3.453  0.4308 -0.4492 -0.0244
18020TIP3    H175475   5.089   2.044   3.408 -1.3111  0.2119  3.3645
18020TIP3    H275476   5.157   1.928   3.478  1.5171 -0.9063 -1.0694
18021TIP3   OH275477   3.849   0.265  13.309 -1.0308  0.3526 -0.2762
18021TIP3    H175478   3.904   0.333  13.347 -0.8392 -0.2923  0.6140
18021TIP3    H275479   3.807   0.307  13.234  0.5433  0.8931 -0.8598
18022TIP3   OH275480   2.164   6.086   3.307  0.0517 -0.4022 -0.1602
18022TIP3    H175481   2.240   6.140   3.327 -0.0650 -0.1846 -0.2971
18022TIP3    H275482   2.186   6.000   3.341  0.7885 -0.5984 -1.0952
18023TIP3   OH275483   2.217   1.431   1.298 -0.2037 -0.2756 -0.2960
18023TIP3    H175484   2.209   1.473   1.384  0.9316 -2.1398  0.7521
18023TIP3    H275485   2.286   1.366   1.309 -0.2264 -0.7388 -2.5641
18024TIP3   OH275486   6.432   1.307  11.458 -0.7068  0.3777 -0.0644
18024TIP3    H175487   6.377   1.250  11.404 -1.2715 -0.7611  1.6899
18024TIP3    H275488   6.371   1.350  11.518 -0.3328  3.0842 -1.5391
18025TIP3   OH275489   0.613   0.247  14.503  0.2743 -0.3122  0.1175
18025TIP3    H175490   0.643   0.157  14.519 -0.6425 -0.5625  0.4361
18025TIP3    H275491   0.661   0.300  14.567  0.1368 -0.6895  0.5336
18026TIP3   OH275492   0.752   6.462   2.029 -0.2260  0.3142  0.0295
18026TIP3    H175493   0.691   6.521   1.985 -0.6621 -0.3822 -0.3027
18026TIP3    H275494   0.765   6.391   1.967 -0.2951 -0.3226  0.7386
18027TIP3   OH275495   2.278   0.578  14.471 -0.2096 -0.6273 -0.0494
18027TIP3    H175496   2.224   0.501  14.454  0.1016 -0.8873  0.1411
18027TIP3    H275497   2.233   0.624  14.542 -1.0703  0.0295 -1.0004
18028TIP3   OH275498   3.421   3.798   4.746 -0.7154  0.0959 -0.0978
18028TIP3    H175499   3.471   3.730   4.792 -0.0561  1.6876  1.5777
18028TIP3    H275500   3.482   3.833   4.681 -0.5835  0.0892  0.0227
18029TIP3   OH275501   5.458   0.167  12.215 -0.3209 -0.4269  0.0639
18029TIP3    H175502   5.551   0.143  12.227 -0.4108 -1.1189 -0.5899
18029TIP3    H275503   5.430   0.115  12.140 -1.6132 -1.2489  1.1023
18030TIP3   OH275504   5.314   0.406   3.538 -0.1192  0.7612  0.7047
18030TIP3    H175505   5.250   0.436   3.474  1.1865  0.6988 -0.6395
18030TIP3    H275506   5.374   0.480   3.549  1.0535 -0.0862  0.0435
18031TIP3   OH275507   3.391   1.536   4.657 -0.2168 -0.4920 -0.8165
18031TIP3    H175508   3.339   1.456   4.652 -0.0096 -0.5482 -2.4486
18031TIP3    H275509   3.476   1.508   4.693 -1.1179 -0.4816  1.3872
18032TIP3   OH275510   6.574   3.513  14.547  0.2437 -0.0121 -0.0697
18032TIP3    H175511   6.516   3.580  14.584 -0.5897  0.4788 -2.1871
18032TIP3    H275512   6.658   3.558  14.538  0.3008  0.0382  0.6614
18033TIP3   OH275513   2.527   5.957  16.106  0.3233  0.6372 -0.6527
18033TIP3    H175514   2.577   5.936  16.027 -0.3839 -1.7950 -0.5069
18033TIP3    H275515   2.465   5.884  16.114  0.4477  0.8233  2.1973
18034TIP3   OH275516   1.367   1.674  16.891  0.4177 -0.7648 -0.5122
18034TIP3    H175517   1.454   1.653  16.923  0.4524  0.2071  0.0468
18034TIP3    H275518   1.355   1.767  16.911 -1.1807 -1.1541  0.4620
18035TIP3   OH275519   1.209   3.383  10.552 -0.3204 -0.1220 -0.3063
18035TIP3    H175520   1.264   3.412  10.479 -1.0787  0.6404 -0.5817
18035TIP3    H275521   1.124   3.366  10.513 -1.4492  2.7134  0.8046
18036TIP3   OH275522   2.116   1.369  17.154 -0.0268  0.5243 -0.2550
18036TIP3    H175523   2.166   1.391  17.233  0.8587  0.4318 -0.7886
18036TIP3    H275524   2.165   1.298  17.113 -0.3795  0.7041 -0.9948
18037TIP3   OH275525   1.704   1.983  10.296  0.0935  0.1477  0.0075
18037TIP3    H175526   1.672   2.062  10.253 -0.5692  0.0649  0.3247
18037TIP3    H275527   1.797   1.999  10.311 -0.3377  1.5196  1.4595
18038TIP3   OH275528   6.412   2.815   1.332  0.2756  0.2207  0.1448
18038TIP3    H175529   6.431   2.803   1.239 -1.8467 -3.1481  0.0787
18038TIP3    H275530   6.323   2.850   1.333  0.8015  1.5638  0.8970
18039TIP3   OH275531   5.163   0.474  15.661 -0.0907 -0.3225  0.1961
18039TIP3    H175532   5.133   0.438  15.745 -0.0242  0.6231  0.6266
18039TIP3    H275533   5.189   0.564  15.681 -3.2117  1.0329 -1.4959
18040TIP3   OH275534   5.055   3.614  12.962 -0.2005  0.0035 -0.5509
18040TIP3    H175535   5.064   3.543  12.898  1.3854 -0.4991  0.1939
18040TIP3    H275536   5.006   3.575  13.034  2.5814 -1.0651  0.8411
18041TIP3   OH275537   4.752   6.111   5.399 -0.2317 -0.3854  0.4870
18041TIP3    H175538   4.827   6.162   5.368 -1.3026  0.8786 -0.0827
18041TIP3    H275539   4.760   6.027   5.355  0.0071  0.2923 -0.8007
18042TIP3   OH275540   3.725   4.784  14.445  0.5175  0.4708 -0.4489
18042TIP3    H175541   3.652   4.770  14.505 -0.2105  0.7896 -1.2477
18042TIP3    H275542   3.684   4.789  14.358  1.5191  0.3451 -0.9348
18043TIP3   OH275543   2.805   6.571   4.071 -0.0195 -0.8853 -0.3207
18043TIP3    H175544   2.855   6.508   4.124  0.0755  0.0315  0.7000
18043TIP3    H275545   2.829   6.550   3.981 -0.1777 -2.4756 -0.0123
18044TIP3   OH275546   5.127   6.052   5.086  0.1387 -0.1258 -0.1202
18044TIP3    H175547   5.112   5.983   5.150  0.4387  0.2148  0.3155
18044TIP3    H275548   5.214   6.033   5.050  0.9796  1.0209  1.2572
18045TIP3   OH275549   1.868   3.229   5.139 -0.5786  0.5692  0.2322
18045TIP3    H175550   1.783   3.262   5.166 -0.6041  1.7034 -1.1950
18045TIP3    H275551   1.931   3.294   5.171 -0.4275  0.7792 -0.4837
18046TIP3   OH275552   0.265   3.208  13.928  0.4432 -0.2409 -0.3313
18046TIP3    H175553   0.211   3.129  13.925  1.5910 -1.1034  1.2660
18046TIP3    H275554   0.275   3.227  14.021  2.0177  0.5134 -0.6437
18047TIP3   OH275555   1.484   0.099   3.504 -0.1649  0.1343  0.4595
18047TIP3    H175556   1.425   0.143   3.565 -0.1835  0.0687  0.4891
18047TIP3    H275557   1.542   0.168   3.473 -1.9781  0.7332 -1.6665
18048TIP3   OH275558   2.941   5.572  14.087 -0.1229 -0.3592  0.1880
18048TIP3    H175559   3.010   5.506  14.083 -0.8503 -1.0529 -1.5151
18048TIP3    H275560   2.860   5.522  14.090 -0.7134  0.4206 -1.8107
18049TIP3   OH275561   4.631   6.384   1.321  0.4316 -0.1382  0.5246
18049TIP3    H175562   4.727   6.381   1.325  0.3839 -1.5637  0.5668
18049TIP3    H275563   4.604   6.293   1.310 -0.8346  0.4713 -1.5682
18050TIP3   OH275564   3.244   1.307  14.317  0.1444 -0.5486  0.5939
18050TIP3    H175565   3.242   1.225  14.367 -0.4119 -1.3802 -0.7584
18050TIP3    H275566   3.321   1.353  14.350  2.1436 -2.9062 -0.6179
18051TIP3   OH275567   5.520   0.179   2.477 -0.1527 -0.5025  0.7274
18051TIP3    H175568   5.593   0.140   2.430 -1.1489 -1.4408 -0.0353
18051TIP3    H275569   5.529   0.273   2.461  0.6113 -0.6550  0.2430
18052TIP3   OH275570   5.224   1.759  16.637 -0.1777 -0.2534 -0.4163
18052TIP3    H175571   5.256   1.677  16.676  0.1497  1.1399  2.3040
18052TIP3    H275572   5.133   1.740  16.613 -0.1370 -1.3872  0.2830
18053TIP3   OH275573   5.822   5.895   3.736  0.1332 -0.1959 -0.1223
18053TIP3    H175574   5.903   5.930   3.698 -0.0538 -0.7384 -1.0438
18053TIP3    H275575   5.849   5.817   3.783  0.0040 -0.9698 -1.3156
18054TIP3   OH275576   0.414   1.900  14.559 -0.0472  0.2070 -0.1381
18054TIP3    H175577   0.457   1.983  14.580  0.2961 -0.0271  0.0889
18054TIP3    H275578   0.416   1.895  14.463  0.9923 -0.1022 -0.1014
18055TIP3   OH275579   2.048   5.041   0.557 -0.1984 -0.5528  0.4023
18055TIP3    H175580   2.076   5.132   0.566 -2.2204 -0.1524  3.3221
18055TIP3    H275581   2.024   5.032   0.464  2.8362  0.9829 -0.6067
18056TIP3   OH275582   3.217   6.511  14.169  0.1947 -0.0194  0.4018
18056TIP3    H175583   3.300   6.558  14.160  0.2170 -0.1669 -0.2095
18056TIP3    H275584   3.185   6.503  14.079 -0.8073  0.6244  0.6922
18057TIP3   OH275585   6.418   0.964  11.436 -0.2238  0.6987  0.3488
18057TIP3    H175586   6.390   1.012  11.358  0.1633  0.2199 -0.0929
18057TIP3    H275587   6.361   0.996  11.506 -0.3908  1.3327 -0.0729
18058TIP3   OH275588   1.450   1.790  13.755  0.0967  0.3121  0.3292
18058TIP3    H175589   1.408   1.805  13.670 -1.6920 -0.9925  0.9631
18058TIP3    H275590   1.466   1.878  13.789  0.9545  0.8565 -1.3965
18059TIP3   OH275591   4.829   3.162  15.529  0.2638  0.0485  0.2630
18059TIP3    H175592   4.738   3.151  15.556 -0.0268 -0.9016 -1.0431
18059TIP3    H275593   4.868   3.076  15.541  0.8250  0.2927  0.1969
18060TIP3   OH275594   0.842   3.228   4.745  0.1917 -0.5072  0.0009
18060TIP3    H175595   0.793   3.163   4.696 -0.4383  1.7837 -2.5466
18060TIP3    H275596   0.782   3.255   4.815 -1.1287  0.1718 -1.3506
18061TIP3   OH275597   1.320   5.025   2.569 -0.1876 -0.5999  0.1618
18061TIP3    H175598   1.334   4.967   2.495  0.8681 -0.5261  0.2954
18061TIP3    H275599   1.390   5.090   2.563 -0.9714  0.2788  0.3844
18062TIP3   OH275600   1.275   0.174  14.614  0.5636  0.2093  0.1662
18062TIP3    H175601   1.277   0.269  14.604  0.8338  0.1231 -0.6102
18062TIP3    H275602   1.363   0.145  14.590  0.3095 -0.2915 -0.1768
18063TIP3   OH275603   6.009   4.901   5.671 -0.3152  0.3892  0.1197
18063TIP3    H175604   5.975   4.883   5.758  0.0061 -1.0920 -0.0488
18063TIP3    H275605   6.015   4.815   5.629 -2.7260  1.2863 -2.2120
18064TIP3   OH275606   1.764   0.074  14.115  0.6917  0.2337 -0.2376
18064TIP3    H175607   1.800   0.109  14.034  1.7487 -1.3407 -0.4707
18064TIP3    H275608   1.713   0.146  14.152 -0.4851  0.7009 -2.7083
18065TIP3   OH275609   2.953   3.585   4.116  0.7280 -0.1028 -0.3394
18065TIP3    H175610   3.011   3.625   4.181  1.5084  1.0576 -1.7265
18065TIP3    H275611   2.997   3.504   4.092  0.3304 -0.6478  0.7075
18066TIP3   OH275612   4.721   3.271  13.103 -0.0230 -0.0691  0.3531
18066TIP3    H175613   4.676   3.335  13.159 -0.2303  0.9759 -0.9935
18066TIP3    H275614   4.786   3.232  13.160 -1.1843 -0.0444  1.7420
18067TIP3   OH275615   1.680   2.853  11.157 -0.0741 -0.3114  0.3252
18067TIP3    H175616   1.749   2.809  11.206  0.7728  0.4883 -0.1349
18067TIP3    H275617   1.719   2.936  11.129 -0.8387 -0.3496 -0.9121
18068TIP3   OH275618   1.674   0.462  13.918 -0.2752 -0.2652  0.1741
18068TIP3    H175619   1.592   0.511  13.906 -0.4692 -0.0252  2.1857
18068TIP3    H275620   1.662   0.417  14.002  2.1647  0.8381  1.1703
18069TIP3   OH275621   2.808   5.518   1.858 -0.6462 -0.1762  0.2820
18069TIP3    H175622   2.738   5.510   1.793 -1.6312 -2.1264  1.5563
18069TIP3    H275623   2.789   5.600   1.904 -1.4814 -0.1804 -0.0495
18070TIP3   OH275624   6.062   5.101  13.870 -0.3146  0.2412  0.0383
18070TIP3    H175625   6.061   5.138  13.959 -0.1787  0.8870 -0.2228
18070TIP3    H275626   6.036   5.010  13.882 -0.2427  0.3074  0.7502
18071TIP3   OH275627   3.011   5.747  16.807  0.9623  0.3319 -0.0456
18071TIP3    H175628   2.923   5.784  16.801 -0.1754 -2.1650  0.5254
18071TIP3    H275629   3.042   5.742  16.716 -0.2535 -0.5535 -0.4167
18072TIP3   OH275630   4.152   2.074  11.364 -0.1963  0.3032 -0.7201
18072TIP3    H175631   4.115   2.086  11.452 -0.7550  1.0144 -1.0522
18072TIP3    H275632   4.227   2.133  11.361 -1.3497  1.7385 -1.4107
18073TIP3   OH275633   6.292   4.318   0.907 -0.0980  0.2952 -0.2439
18073TIP3    H175634   6.253   4.356   0.828 -0.2976 -0.1641 -0.3683
18073TIP3    H275635   6.363   4.263   0.874 -0.5173 -0.3118 -0.1420
18074TIP3   OH275636   6.017   2.877  11.142 -0.3760 -0.0309 -0.0717
18074TIP3    H175637   5.975   2.817  11.080 -0.1168 -0.8459  0.5262
18074TIP3    H275638   6.079   2.926  11.090 -0.0814 -0.7932 -0.4526
18075TIP3   OH275639   5.440   6.028   2.636  0.2671 -0.0726 -0.2920
18075TIP3    H175640   5.432   6.079   2.716  1.4262 -0.0710 -0.1791
18075TIP3    H275641   5.350   6.025   2.601 -0.1659  0.2969  0.7615
18076TIP3   OH275642   6.132   5.163   0.600  0.8141 -0.0989  0.4882
18076TIP3    H175643   6.219   5.159   0.561  0.4247 -0.2434 -0.3705
18076TIP3    H275644   6.097   5.074   0.591  0.6293 -0.0759  0.9525
18077TIP3   OH275645   5.888   1.059  17.115 -0.2227  0.2065 -0.3106
18077TIP3    H175646   5.871   1.142  17.160  2.1199  0.3337  0.3888
18077TIP3    H275647   5.967   1.025  17.156 -0.9976 -2.2759 -0.7680
18078TIP3   OH275648   6.662   6.599   2.839  0.3297  0.4327 -0.2818
18078TIP3    H175649   6.610   6.676   2.817 -3.1478 -2.0123 -1.1716
18078TIP3    H275650   6.717   6.584   2.763 -1.7026 -0.0596 -1.6996
18079TIP3   OH275651   6.437   3.110  16.902  0.0432 -0.3323  0.2571
18079TIP3    H175652   6.432   3.014  16.902  0.1480 -0.3385  0.0545
18079TIP3    H275653   6.357   3.138  16.856  0.5598 -0.3542 -0.6565
18080TIP3   OH275654   3.170   2.109   3.609  0.5669 -0.2000 -0.1344
18080TIP3    H175655   3.107   2.045   3.642  0.9267  0.8232  2.7299
18080TIP3    H275656   3.149   2.119   3.516 -1.3388 -2.3074  0.0320
18081TIP3   OH275657   5.391   0.775   4.628  0.5890  0.0056  0.4229
18081TIP3    H175658   5.325   0.837   4.657  0.3371 -0.5259  1.0073
18081TIP3    H275659   5.471   0.827   4.618 -0.1936  0.8785 -1.4213
18082TIP3   OH275660   4.827   3.264   3.749  0.2599 -0.2708 -0.1831
18082TIP3    H175661   4.916   3.232   3.738  0.1037 -0.2196 -1.7476
18082TIP3    H275662   4.832   3.327   3.821  0.8673 -2.6288  1.8778
18083TIP3   OH275663   5.679   5.621  12.790 -0.0764 -0.4157  0.6731
18083TIP3    H175664   5.696   5.549  12.851  0.6761 -1.5838 -0.8816
18083TIP3    H275665   5.647   5.577  12.711 -0.3315  1.0351 -0.0340
18084TIP3   OH275666   1.644   4.190  13.689  0.6811  0.4370 -0.0453
18084TIP3    H175667   1.609   4.157  13.772  1.0227 -0.7717 -0.3656
18084TIP3    H275668   1.720   4.242  13.714 -1.0791  2.7447  0.6236
18085TIP3   OH275669   1.255   6.326  11.951 -0.1929 -0.0963 -0.0245
18085TIP3    H175670   1.242   6.383  12.027 -0.2453  0.6511 -0.5961
18085TIP3    H275671   1.200   6.364  11.883  1.1462  0.2133 -0.9512
18086TIP3   OH275672   0.448   3.730   5.510  0.1749 -0.3717  0.4739
18086TIP3    H175673   0.540   3.731   5.483  0.3066  1.2936  0.9066
18086TIP3    H275674   0.450   3.754   5.603 -0.6725 -0.6930  0.5757
18087TIP3   OH275675   6.360   2.910  11.612  0.0595  0.2421 -0.3279
18087TIP3    H175676   6.280   2.860  11.623  0.3415 -0.3150 -0.8020
18087TIP3    H275677   6.362   2.933  11.520 -0.4550  1.7960  0.0323
18088TIP3   OH275678   1.125   4.567  16.110  0.0441  0.3525  0.0042
18088TIP3    H175679   1.166   4.604  16.189  4.6801 -0.2337 -1.9515
18088TIP3    H275680   1.171   4.609  16.038 -2.4521 -0.9377 -2.4179
18089TIP3   OH275681   2.072   1.383   6.455 -0.4783 -0.0479  0.2398
18089TIP3    H175682   2.143   1.370   6.518  0.0601  0.4470 -0.2692
18089TIP3    H275683   2.003   1.426   6.506 -0.2671 -0.1644  0.6297
18090TIP3   OH275684   3.856   0.155   3.888 -0.6604  0.0964  0.3479
18090TIP3    H175685   3.846   0.141   3.794  0.4595  0.5596  0.1464
18090TIP3    H275686   3.767   0.158   3.922 -1.1657  2.5680 -1.0969
18091TIP3   OH275687   5.137   6.239   4.080 -0.1329 -0.1155 -0.2982
18091TIP3    H175688   5.214   6.187   4.103 -0.7639 -0.4920  1.0094
18091TIP3    H275689   5.154   6.269   3.991  1.5715 -0.1065  0.0158
18092TIP3   OH275690   2.972   1.316  11.234  0.6359 -0.2092 -0.2744
18092TIP3    H175691   2.960   1.400  11.190 -0.8276  0.3171  1.0717
18092TIP3    H275692   2.884   1.283  11.250  1.1124 -0.6665  1.6814
18093TIP3   OH275693   1.084   0.434   2.995  0.4520  0.2871  0.5185
18093TIP3    H175694   1.116   0.434   3.086  1.1472 -0.4393  0.2719
18093TIP3    H275695   1.144   0.377   2.948 -0.8035 -0.5631 -0.0945
18094TIP3   OH275696   0.677   3.252  15.463 -0.5671  0.1347  0.0961
18094TIP3    H175697   0.629   3.178  15.499  0.5255  0.1990  1.7408
18094TIP3    H275698   0.616   3.294  15.403 -1.5190 -1.5335 -0.1215
18095TIP3   OH275699   2.927   2.390   4.847  0.2562  0.0734 -0.2328
18095TIP3    H175700   3.017   2.415   4.866 -0.2128  0.1696  2.0440
18095TIP3    H275701   2.933   2.300   4.815  1.0542 -0.3244  1.0224
18096TIP3   OH275702   3.121   1.047  16.113  0.1128  0.2873 -0.3390
18096TIP3    H175703   3.092   1.052  16.022 -0.6597 -0.0858 -0.1209
18096TIP3    H275704   3.157   1.134  16.132 -0.3191  0.5715 -0.8064
18097TIP3   OH275705   5.163   5.523   3.437  0.3840 -0.0430 -0.2164
18097TIP3    H175706   5.094   5.489   3.380  1.2242 -0.2976 -1.1111
18097TIP3    H275707   5.118   5.554   3.515 -0.8546  0.8326 -1.2771
18098TIP3   OH275708   3.478   3.948  17.229  0.5177 -0.9467  0.2065
18098TIP3    H175709   3.492   4.026  17.282  2.6554 -1.2321  0.0919
18098TIP3    H275710   3.415   3.975  17.162  0.6662  0.4476  0.6167
18099TIP3   OH275711   5.611   6.755   0.621 -0.1450 -0.4724  0.2667
18099TIP3    H175712   5.615   6.671   0.575  0.2048 -0.6269  0.5840
18099TIP3    H275713   5.520   6.784   0.610  0.3640  0.3943 -2.1492
18100TIP3   OH275714   5.097   4.894  13.921 -0.2039  0.4784 -0.2709
18100TIP3    H175715   5.186   4.901  13.887 -0.2960 -0.8864 -0.8294
18100TIP3    H275716   5.049   4.966  13.881  0.7666  1.5118  0.4150
18101TIP3   OH275717   4.804   5.228  10.765 -0.3087  0.0884 -0.1951
18101TIP3    H175718   4.815   5.288  10.692 -1.6542 -0.2119 -0.6458
18101TIP3    H275719   4.741   5.271  10.823 -0.6958 -0.5443 -0.1428
18102TIP3   OH275720   1.468   1.890  16.591  0.7390 -0.1668  0.5908
18102TIP3    H175721   1.434   1.956  16.652  0.9645  0.8364 -0.3352
18102TIP3    H275722   1.558   1.875  16.619  0.8889  0.4010  0.4321
18103TIP3   OH275723   0.035   6.293  11.450 -0.0998 -0.2299 -0.1071
18103TIP3    H175724  -0.059   6.289  11.434  0.0826 -2.9720 -0.8024
18103TIP3    H275725   0.071   6.335  11.372 -0.6706  0.3623 -0.0590
18104TIP3   OH275726   2.562   5.604  11.708  0.3520 -0.5908 -0.8874
18104TIP3    H175727   2.597   5.522  11.743 -3.1430 -1.8751 -0.2526
18104TIP3    H275728   2.522   5.580  11.624  2.1742  1.1135 -2.2986
18105TIP3   OH275729   3.694   3.205   6.209  0.5718  0.1345 -0.1941
18105TIP3    H175730   3.760   3.190   6.141 -0.7307  0.6813 -1.6326
18105TIP3    H275731   3.742   3.245   6.281  1.8051  0.4794 -1.1871
18106TIP3   OH275732   2.865   0.675   4.865 -0.1040  0.0232  0.0806
18106TIP3    H175733   2.852   0.731   4.942  0.3534  0.7779 -0.3886
18106TIP3    H275734   2.819   0.720   4.795 -0.9550 -0.9278  0.0201
18107TIP3   OH275735   0.712   2.605   2.760  0.2740 -0.3940  0.5496
18107TIP3    H175736   0.678   2.694   2.751  3.4210  0.8961  0.6407
18107TIP3    H275737   0.660   2.552   2.699 -1.3758  1.5684  0.2233
18108TIP3   OH275738   1.813   1.913  15.567  0.1239  0.3561  0.0693
18108TIP3    H175739   1.862   1.995  15.560  0.5596  0.0897 -0.0550
18108TIP3    H275740   1.881   1.846  15.578 -0.1368 -0.1697 -1.3383
18109TIP3   OH275741   0.845   3.346  12.973 -0.1854 -0.2373 -0.2230
18109TIP3    H175742   0.937   3.342  12.998 -0.0488 -1.6557 -0.9364
18109TIP3    H275743   0.844   3.404  12.896 -0.1962  1.5670  1.1061
18110TIP3   OH275744   1.566   4.530   5.063 -0.5619  0.0702 -0.3040
18110TIP3    H175745   1.628   4.564   5.128 -0.3694  2.0712 -1.4981
18110TIP3    H275746   1.481   4.535   5.107 -0.2669  0.1071  0.2760
18111TIP3   OH275747   4.867   3.261   1.138 -0.8290  0.4700 -0.2794
18111TIP3    H175748   4.845   3.176   1.176 -0.3862  0.1265 -0.7833
18111TIP3    H275749   4.799   3.320   1.169 -2.6124 -0.6209 -1.9841
18112TIP3   OH275750   5.182   3.813   1.736 -0.1983  0.2477  0.0336
18112TIP3    H175751   5.203   3.906   1.723  0.0332  0.1051 -0.6170
18112TIP3    H275752   5.107   3.813   1.795 -1.6969  0.9051 -1.8670
18113TIP3   OH275753   5.904   6.064  15.071  0.6539  0.6378 -0.0608
18113TIP3    H175754   5.982   6.107  15.106  1.5487  0.6339 -1.9372
18113TIP3    H275755   5.932   5.973  15.057  0.1581  0.5143 -0.2426
18114TIP3   OH275756   1.216   4.764   3.955  0.3996  0.5223 -0.4803
18114TIP3    H175757   1.275   4.701   3.997  0.6138  0.5122 -0.7949
18114TIP3    H275758   1.131   4.721   3.953  0.4109  0.4855 -0.1386
18115TIP3   OH275759   6.208   4.627   4.154  0.4761  0.4580  0.7640
18115TIP3    H175760   6.255   4.567   4.096 -0.5280  0.9092 -0.5492
18115TIP3    H275761   6.117   4.595   4.154 -0.0255  1.8171  0.2197
18116TIP3   OH275762   0.267   0.420   4.693  0.6251 -0.1625  0.4505
18116TIP3    H175763   0.239   0.333   4.718  1.2243  0.0964  2.0795
18116TIP3    H275764   0.289   0.464   4.776  0.2876  1.5439 -0.3295
18117TIP3   OH275765   0.486   1.333   2.505  0.3349  0.2156 -0.2538
18117TIP3    H175766   0.490   1.385   2.584 -3.2727  0.0341  0.1425
18117TIP3    H275767   0.516   1.246   2.532 -0.4170  0.2774  0.7900
18118TIP3   OH275768   1.530   4.060  10.898  0.3044 -0.0295  0.6897
18118TIP3    H175769   1.509   4.013  10.818  0.2773  0.5874  0.3325
18118TIP3    H275770   1.607   4.015  10.933  0.2018 -0.4135  0.4233
18119TIP3   OH275771   2.087   2.227  12.193 -0.0086 -0.0296  0.3800
18119TIP3    H175772   2.125   2.197  12.275 -0.5394 -0.8766  0.3134
18119TIP3    H275773   2.162   2.239  12.135  0.3040 -0.0811  0.7677
18120TIP3   OH275774   4.357   5.218  12.041 -0.3633  0.1426 -0.1999
18120TIP3    H175775   4.388   5.245  11.954  2.8010 -1.1571  0.4756
18120TIP3    H275776   4.383   5.290  12.098 -0.8840  0.1912 -0.0212
18121TIP3   OH275777   4.804   0.746   5.615  0.3008  0.1924 -0.6274
18121TIP3    H175778   4.880   0.710   5.568  0.4023 -0.2942 -0.0898
18121TIP3    H275779   4.835   0.832   5.647  1.4639 -1.0416  1.7130
18122TIP3   OH275780   2.964   5.019   5.909  0.5276  0.1741 -0.3062
18122TIP3    H175781   2.984   5.005   6.002  1.2023 -0.8060 -0.5876
18122TIP3    H275782   3.003   4.943   5.865 -1.6228 -0.4591 -1.1601
18123TIP3   OH275783   4.682   0.513  12.249 -0.2525  0.5196  0.9407
18123TIP3    H175784   4.733   0.492  12.328 -0.3511 -0.0143  0.8678
18123TIP3    H275785   4.711   0.601  12.225  1.0737  0.0002  0.5607
18124TIP3   OH275786   1.081   1.067  16.538 -0.9112 -0.2745  0.5981
18124TIP3    H175787   1.102   1.117  16.459  0.0742  1.5068  1.9426
18124TIP3    H275788   0.989   1.085  16.554 -1.2051 -0.9153 -0.3173
18125TIP3   OH275789   2.214   1.708   2.952 -0.1985  0.5736  0.2857
18125TIP3    H175790   2.276   1.690   3.023  1.5865  0.7339 -1.2039
18125TIP3    H275791   2.128   1.697   2.993  0.7821 -2.0310  1.8081
18126TIP3   OH275792   2.944   4.142   5.429 -0.2460 -0.1412 -0.1544
18126TIP3    H175793   2.999   4.087   5.373  0.8600  1.9541 -1.1758
18126TIP3    H275794   2.867   4.160   5.375 -0.7326 -0.8680  0.2806
18127TIP3   OH275795   0.206   5.764  16.216 -0.7575 -0.0557  0.5623
18127TIP3    H175796   0.241   5.772  16.305  0.3285 -1.4049  0.2672
18127TIP3    H275797   0.139   5.832  16.210  1.0772  1.9002  1.5059
18128TIP3   OH275798   0.033   5.498  14.971  0.1793 -0.5228 -0.6591
18128TIP3    H175799   0.113   5.448  14.984  0.3550 -0.3156 -0.9678
18128TIP3    H275800   0.050   5.583  15.013 -0.3276 -0.9236  0.3829
18129TIP3   OH275801   5.027   4.986  16.283 -0.1164  0.0365 -0.6196
18129TIP3    H175802   4.945   5.034  16.299 -0.2064  0.5429 -2.4521
18129TIP3    H275803   5.094   5.039  16.327 -0.3366  1.4245 -1.9044
18130TIP3   OH275804   1.864   4.734  16.874 -0.1337 -0.3714 -0.3430
18130TIP3    H175805   1.813   4.786  16.812 -2.2531 -0.5379  1.2296
18130TIP3    H275806   1.846   4.643  16.851  0.9820 -0.4345 -0.9985
18131TIP3   OH275807   1.985   3.945  11.372  0.2147  0.2516  1.0399
18131TIP3    H175808   1.933   3.907  11.443 -0.2697 -0.7616  0.1554
18131TIP3    H275809   1.964   3.892  11.295 -1.6247  3.2168 -0.5967
18132TIP3   OH275810   2.404   2.948   0.254  0.2358 -0.0120  0.0009
18132TIP3    H175811   2.496   2.935   0.279  0.0382 -0.4415  0.5045
18132TIP3    H275812   2.355   2.934   0.335 -0.3610 -0.8332 -0.4957
18133TIP3   OH275813   2.096   0.749   0.265 -0.2572 -0.7269  0.4128
18133TIP3    H175814   2.111   0.805   0.341  1.4019 -1.3573  0.5815
18133TIP3    H275815   2.115   0.804   0.190 -0.0381 -0.6453  0.5282
18134TIP3   OH275816   1.663   4.710   2.991  0.0093 -0.6394  0.4776
18134TIP3    H175817   1.595   4.651   2.960 -1.1489  2.0554 -2.4507
18134TIP3    H275818   1.615   4.782   3.032  1.2127 -0.2294  1.1800
18135TIP3   OH275819   6.014   3.392  15.365  0.1128  0.1654 -0.4092
18135TIP3    H175820   5.979   3.304  15.369  0.2529  0.1179 -0.1867
18135TIP3    H275821   5.975   3.437  15.440 -0.9528  0.6657 -1.2498
18136TIP3   OH275822   5.116   0.981   4.450  0.3690  0.3001 -0.5036
18136TIP3    H175823   5.184   0.927   4.410 -1.8145 -1.3024 -2.1718
18136TIP3    H275824   5.059   0.919   4.495  0.6782  1.7385  1.9463
18137TIP3   OH275825   1.511   4.452   4.298 -0.7737  0.3247  0.4048
18137TIP3    H175826   1.578   4.386   4.278 -1.0647 -0.1101  0.8552
18137TIP3    H275827   1.460   4.413   4.369 -0.1930  1.5396  1.5200
18138TIP3   OH275828   4.585   1.596   0.608 -0.5017 -0.2488  0.4286
18138TIP3    H175829   4.586   1.531   0.678 -1.5181  1.1852  1.8087
18138TIP3    H275830   4.500   1.585   0.566  0.0936 -1.0868 -0.5985
18139TIP3   OH275831   6.520   3.031   4.093 -0.0023  0.2353  0.3393
18139TIP3    H175832   6.542   2.994   4.179 -0.6195  2.0104  1.2826
18139TIP3    H275833   6.602   3.031   4.045  1.0717  2.2342  2.0987
18140TIP3   OH275834   5.486   0.391  12.774  0.3319  0.5745 -0.0182
18140TIP3    H175835   5.571   0.352  12.797  0.6462  1.4979  0.3839
18140TIP3    H275836   5.430   0.374  12.849  0.6836  1.5379  0.4702
18141TIP3   OH275837   1.854   1.370  15.164  0.4568 -0.1181 -0.1423
18141TIP3    H175838   1.763   1.375  15.193  0.2453 -1.4195 -0.5373
18141TIP3    H275839   1.891   1.455  15.187 -1.0734  0.7382 -0.7571
18142TIP3   OH275840   2.751   4.702  14.760 -0.5826  0.0622  0.4704
18142TIP3    H175841   2.670   4.700  14.810 -0.0224  3.5132  1.7080
18142TIP3    H275842   2.820   4.686  14.825 -0.0350  1.5792  0.2811
18143TIP3   OH275843   2.171   1.413   0.192 -0.1460  0.6417 -0.3787
18143TIP3    H175844   2.189   1.376   0.279 -1.2116  2.2449  0.5458
18143TIP3    H275845   2.186   1.507   0.202  0.7665  0.7233 -2.2371
18144TIP3   OH275846   2.029   2.690   2.743  0.5168  0.2473 -0.2196
18144TIP3    H175847   2.056   2.693   2.835  3.6985 -4.2287 -0.8488
18144TIP3    H275848   2.107   2.713   2.694 -0.7591  1.1627 -1.8722
18145TIP3   OH275849   2.336   3.678   3.674 -0.3390  0.8539  0.5833
18145TIP3    H175850   2.271   3.630   3.725 -0.3427 -0.8885 -1.0092
18145TIP3    H275851   2.331   3.768   3.706 -2.5167  0.4284  1.4757
18146TIP3   OH275852   1.007   3.536  11.541 -0.2024 -0.1693  0.1698
18146TIP3    H175853   1.021   3.516  11.633  0.2089 -2.5873 -0.3666
18146TIP3    H275854   1.044   3.460  11.495 -4.9414 -1.5056 -1.7562
18147TIP3   OH275855   0.161   3.273  11.943  0.4255 -0.5286 -0.7714
18147TIP3    H175856   0.184   3.247  11.854  1.8557  0.8521 -0.8333
18147TIP3    H275857   0.244   3.302  11.982  0.2493 -3.1646  1.7549
18148TIP3   OH275858   0.637   1.737   6.242 -0.0722  0.1385 -0.8232
18148TIP3    H175859   0.663   1.720   6.151  0.0320 -0.0197 -0.7646
18148TIP3    H275860   0.565   1.799   6.235 -1.5612 -1.5746 -1.1070
18149TIP3   OH275861   6.245   3.324  15.620 -0.2728 -0.4686 -0.8549
18149TIP3    H175862   6.245   3.328  15.715 -0.3950 -0.3020 -0.8594
18149TIP3    H275863   6.213   3.236  15.599 -0.5671 -0.3892 -0.7433
18150TIP3   OH275864   4.405   3.672   2.043  0.9528  0.1763  0.0185
18150TIP3    H175865   4.475   3.709   2.096  1.5487 -0.9573  0.0199
18150TIP3    H275866   4.448   3.613   1.982 -0.1145 -1.5161  0.8700
18151TIP3   OH275867   3.426   0.283   2.147  0.3993 -0.5206  0.1657
18151TIP3    H175868   3.347   0.253   2.102  0.3984 -0.0892 -0.1283
18151TIP3    H275869   3.394   0.350   2.208  0.8258  1.4359 -1.6969
18152TIP3   OH275870   3.377   2.978   1.156 -0.4762  0.3170  0.3508
18152TIP3    H175871   3.419   3.057   1.123  1.1767 -0.3146  0.8432
18152TIP3    H275872   3.399   2.911   1.091 -1.3045  0.1275  0.2668
18153TIP3   OH275873   3.667   3.553   2.558  0.4745  0.4569  0.3323
18153TIP3    H175874   3.746   3.590   2.518  0.9702 -0.7815  0.1371
18153TIP3    H275875   3.700   3.497   2.628 -0.1924 -0.8334 -0.3823
18154TIP3   OH275876   0.650   3.179   1.068 -0.0537  0.6226 -1.0424
18154TIP3    H175877   0.661   3.271   1.043  1.3389  0.1987 -2.1004
18154TIP3    H275878   0.693   3.171   1.153 -0.8035  1.1127 -0.6241
18155TIP3   OH275879   3.156   6.346   4.841  0.2743  0.3034  0.3824
18155TIP3    H175880   3.215   6.421   4.842  0.6982  0.0292 -1.2380
18155TIP3    H275881   3.153   6.320   4.748 -1.1970 -0.6205  0.6806
18156TIP3   OH275882   0.416   3.809  12.684  0.2825  0.2983 -0.5622
18156TIP3    H175883   0.352   3.881  12.683 -1.2536 -1.0415 -1.1831
18156TIP3    H275884   0.409   3.772  12.772  0.1750  0.1209 -0.6461
18157TIP3   OH275885   3.533   2.087  15.369 -0.1554 -0.3418  0.1231
18157TIP3    H175886   3.562   2.065  15.281 -0.3272 -1.7102  0.4011
18157TIP3    H275887   3.452   2.037  15.381  0.2399 -0.7079  1.3082
18158TIP3   OH275888   5.308   5.245   1.558  0.2051  0.1476  0.9972
18158TIP3    H175889   5.311   5.161   1.512 -1.2228 -0.1447  1.4142
18158TIP3    H275890   5.395   5.254   1.598  0.2240 -1.3339  1.3034
18159TIP3   OH275891   1.162   4.680   3.112  0.3407  0.0199  0.4851
18159TIP3    H175892   1.109   4.602   3.095 -0.4689  0.7661 -0.5522
18159TIP3    H275893   1.202   4.665   3.197  0.0912 -1.4683  0.3448
18160TIP3   OH275894   2.235   2.453   0.615  0.4949 -0.4696  0.3285
18160TIP3    H175895   2.322   2.492   0.618  0.0613  0.7054 -1.2288
18160TIP3    H275896   2.205   2.453   0.706  2.1587 -0.9997  0.8913
18161TIP3   OH275897   2.069   2.749  10.495 -0.2634  0.6706 -0.2553
18161TIP3    H175898   2.146   2.805  10.484  1.1365 -1.0089  0.7277
18161TIP3    H275899   2.005   2.805  10.539  0.8630  1.7161  0.0789
18162TIP3   OH275900   2.144   4.769  13.484  0.3459 -0.3216 -0.1067
18162TIP3    H175901   2.074   4.786  13.421 -0.8636 -0.3378  1.2191
18162TIP3    H275902   2.132   4.837  13.551  1.9046 -0.0173 -0.1217
18163TIP3   OH275903   3.653   3.439  16.123  0.0937 -0.1334 -0.7085
18163TIP3    H175904   3.674   3.431  16.216 -2.6350  0.8752  0.0592
18163TIP3    H275905   3.655   3.350  16.089 -1.7630 -0.8710  1.0322
18164TIP3   OH275906   0.094   3.519  14.442  0.6159 -0.2182 -0.1282
18164TIP3    H175907   0.156   3.479  14.503  2.0251  1.2363 -0.5856
18164TIP3    H275908   0.045   3.582  14.496  0.1305 -0.7386  0.0417
18165TIP3   OH275909   4.439   3.015  11.450  0.0587 -0.5197  0.1532
18165TIP3    H175910   4.456   2.986  11.540 -1.2611  0.7856  0.8416
18165TIP3    H275911   4.378   3.088  11.459  0.5630  0.1778 -1.7617
18166TIP3   OH275912   5.175   3.632  15.577 -0.6569 -0.9991 -0.3800
18166TIP3    H175913   5.213   3.697  15.636 -0.0496 -1.0184 -0.7376
18166TIP3    H275914   5.163   3.554  15.632 -0.8336 -0.7707 -0.0927
18167TIP3   OH275915   1.060   6.256   5.644  0.1624 -0.1226 -0.5819
18167TIP3    H175916   0.990   6.318   5.624  0.2017  0.7886  1.8830
18167TIP3    H275917   1.028   6.208   5.721  2.0576  0.0348  0.3387
18168TIP3   OH275918   2.823   3.603   2.328 -0.2006 -0.4602 -0.0607
18168TIP3    H175919   2.863   3.686   2.356  0.8558 -0.5450 -1.2764
18168TIP3    H275920   2.767   3.628   2.254 -0.0195 -0.8130 -0.3128
18169TIP3   OH275921   6.212   6.143   1.062  0.5664 -0.0420 -0.0324
18169TIP3    H175922   6.238   6.088   0.987  1.4896 -1.2358  1.1254
18169TIP3    H275923   6.118   6.128   1.071  0.1195  1.3793 -1.9441
18170TIP3   OH275924   5.414   1.132   3.615 -0.7245 -0.6015  0.0974
18170TIP3    H175925   5.468   1.073   3.667 -0.4682 -1.5518 -1.2337
18170TIP3    H275926   5.408   1.091   3.529 -2.0989  0.3789 -0.2998
18171TIP3   OH275927   3.793   4.874  16.418  0.4198 -0.5505  0.0404
18171TIP3    H175928   3.888   4.867  16.409  0.5759  1.4604 -0.2297
18171TIP3    H275929   3.776   4.864  16.512  0.9317 -0.6940  0.1146
18172TIP3   OH275930   5.699   6.127  15.233  0.0162 -0.3742  0.8643
18172TIP3    H175931   5.774   6.112  15.176 -0.0566  0.4840  0.5390
18172TIP3    H275932   5.638   6.057  15.213 -0.1146  0.0643 -0.2917
18173TIP3   OH275933   3.523   1.415   0.049  0.4053  0.5174 -0.3087
18173TIP3    H175934   3.483   1.497   0.020  0.0029  0.4688  0.1176
18173TIP3    H275935   3.540   1.368  -0.032 -1.4399  0.0470 -0.4371
18174TIP3   OH275936   4.462   1.180   2.527 -0.3103  0.0636 -0.5465
18174TIP3    H175937   4.511   1.135   2.459 -0.6569 -1.8529  0.4514
18174TIP3    H275938   4.477   1.273   2.509  1.1443 -0.4394 -2.0857
18175TIP3   OH275939   1.891   4.058   3.316  0.9362  0.5005 -0.4066
18175TIP3    H175940   1.900   3.968   3.282 -0.1249  0.1486  0.2276
18175TIP3    H275941   1.923   4.113   3.245  1.1574 -0.3601 -0.9917
18176TIP3   OH275942   2.932   0.276  16.635  0.3347 -0.5612  0.6303
18176TIP3    H175943   2.990   0.240  16.701  0.2409  1.7825  2.0526
18176TIP3    H275944   2.928   0.370  16.655 -1.7913 -0.2454 -1.0702
18177TIP3   OH275945   5.887   5.281  10.756  0.0456 -0.5283  0.0360
18177TIP3    H175946   5.954   5.350  10.750 -0.9723  0.3249 -1.9596
18177TIP3    H275947   5.929   5.203  10.721 -0.4059  0.3547 -2.6268
18178TIP3   OH275948   6.629   0.959  16.902 -0.3692 -0.2811 -0.3325
18178TIP3    H175949   6.656   0.913  16.981 -1.6941  3.0478  2.1783
18178TIP3    H275950   6.537   0.935  16.891 -1.0200  1.5073  0.8948
18179TIP3   OH275951   6.786   4.795   5.667  0.6912 -0.2701 -0.0240
18179TIP3    H175952   6.828   4.861   5.724  1.0240  1.1272 -1.8462
18179TIP3    H275953   6.696   4.827   5.657 -0.0969 -1.8534  1.7196
18180TIP3   OH275954   2.163   5.831  16.405  0.0895  0.4383  0.4628
18180TIP3    H175955   2.167   5.752  16.351 -1.8429 -0.2268  1.2481
18180TIP3    H275956   2.190   5.801  16.492 -0.8687  0.5797  0.8149
18181TIP3   OH275957   1.939   6.586   4.126 -0.4140  0.4815  0.2608
18181TIP3    H175958   1.926   6.672   4.085  0.9349  0.3716 -0.4138
18181TIP3    H275959   1.973   6.606   4.213  0.7627  0.6104 -0.2269
18182TIP3   OH275960   3.827   0.817   4.383 -0.4424 -0.4891 -0.0238
18182TIP3    H175961   3.883   0.893   4.369 -0.3385 -0.9020 -1.9981
18182TIP3    H275962   3.738   0.850   4.373 -0.3683 -0.7795 -1.7318
18183TIP3   OH275963   0.237   3.923  13.521 -0.0510 -0.6125 -0.0675
18183TIP3    H175964   0.185   3.870  13.461 -0.5968  0.9168 -0.9933
18183TIP3    H275965   0.191   4.007  13.523  2.1229  0.6198 -0.5385
18184TIP3   OH275966   1.821   0.731   2.253  0.4304  0.1593 -0.1182
18184TIP3    H175967   1.874   0.774   2.319  0.9607 -0.0375 -0.4061
18184TIP3    H275968   1.873   0.655   2.226  0.1227  0.1083 -0.5901
18185TIP3   OH275969   5.090   6.574  15.677 -0.6563 -0.3524  0.1568
18185TIP3    H175970   5.013   6.549  15.729 -2.4481  0.2131 -2.1295
18185TIP3    H275971   5.148   6.617  15.740 -1.9613 -1.2303  2.0444
18186TIP3   OH275972   1.248   3.669  14.510  0.4824  0.0586  0.1382
18186TIP3    H175973   1.250   3.616  14.430  0.1712 -0.6015  0.5600
18186TIP3    H275974   1.155   3.678  14.531  0.5391  0.6713  0.1418
18187TIP3   OH275975   3.844   4.777  15.722 -0.8243 -0.1991 -0.2263
18187TIP3    H175976   3.774   4.824  15.679 -0.5786  0.3785  0.0038
18187TIP3    H275977   3.814   4.765  15.812 -0.1270  1.0785  0.1809
18188TIP3   OH275978   3.728   6.610  10.750 -0.1688 -0.6734 -0.5434
18188TIP3    H175979   3.739   6.699  10.716 -0.0742  0.1315  1.5008
18188TIP3    H275980   3.649   6.578  10.707  0.3557  0.0231 -2.0645
18189TIP3   OH275981   5.342   0.273  11.812  0.3760  0.2321  0.2259
18189TIP3    H175982   5.399   0.264  11.736  1.3154 -0.7163  1.0323
18189TIP3    H275983   5.301   0.187  11.822  2.4517 -0.5270  2.5054
18190TIP3   OH275984   6.594   3.794   1.712 -0.5951 -0.1206  0.7100
18190TIP3    H175985   6.650   3.862   1.675  0.1323  1.0986  3.9108
18190TIP3    H275986   6.650   3.717   1.718 -0.8423 -0.4604 -1.0469
18191TIP3   OH275987   5.475   2.076   5.171 -0.4561 -0.0469 -0.1099
18191TIP3    H175988   5.434   2.158   5.144 -1.5833 -0.2300  0.9727
18191TIP3    H275989   5.444   2.011   5.108  0.0368  0.2639 -0.6692
18192TIP3   OH275990   2.824   3.427   6.723  0.1743  0.3642  0.2810
18192TIP3    H175991   2.906   3.430   6.771  0.7497  0.4286 -0.6850
18192TIP3    H275992   2.793   3.337   6.734  1.3741 -0.2211 -0.9649
18193TIP3   OH275993   4.757   2.444  11.020 -0.7617  0.3203 -0.7866
18193TIP3    H175994   4.728   2.486  10.939 -0.6792 -0.5858 -1.3003
18193TIP3    H275995   4.845   2.478  11.036 -2.3581  3.7140  1.2216
18194TIP3   OH275996   1.663   5.745  15.940  0.1485 -0.0639  0.2325
18194TIP3    H175997   1.593   5.808  15.923  1.4425  1.8580  1.7469
18194TIP3    H275998   1.649   5.718  16.031  1.6021  0.6897  0.6980
18195TIP3   OH275999   0.413   6.255   4.332 -0.0819  0.0312  0.0736
18195TIP3    H176000   0.468   6.189   4.375 -0.7465 -0.1196  0.7017
18195TIP3    H276001   0.396   6.320   4.400 -0.0743  0.4501 -0.3269
18196TIP3   OH276002   2.708   0.781  14.190 -0.0341  0.5184  0.6651
18196TIP3    H176003   2.685   0.821  14.106  0.9995  0.2411  0.2366
18196TIP3    H276004   2.625   0.754  14.228 -0.7796  3.1777  1.0199
18197TIP3   OH276005   4.215   4.741  13.878 -0.5586 -0.3548 -0.2722
18197TIP3    H176006   4.181   4.694  13.955  0.0589  0.1745  0.3329
18197TIP3    H276007   4.310   4.738  13.889 -0.5006  0.5619 -0.5114
18198TIP3   OH276008   3.805   5.867   0.661 -0.1292 -0.5103 -0.2912
18198TIP3    H176009   3.763   5.788   0.698 -0.3374 -0.8185 -1.1806
18198TIP3    H276010   3.823   5.844   0.570  0.7381  0.1167 -0.2818
18199TIP3   OH276011   0.060   0.693   2.328  0.7143  0.6085 -0.1657
18199TIP3    H176012   0.085   0.605   2.300 -0.6762  0.1309  0.0234
18199TIP3    H276013   0.108   0.707   2.410 -2.2096 -1.6788  2.0797
18200TIP3   OH276014   5.416   0.110  11.555 -0.4383  0.0583 -0.2535
18200TIP3    H176015   5.459   0.175  11.500 -1.4752 -0.5533 -1.8403
18200TIP3    H276016   5.323   0.121  11.535 -0.7572 -0.7466  0.7709
18201TIP3   OH276017   3.582   3.129   7.013  0.3724 -0.3009 -0.6539
18201TIP3    H176018   3.530   3.111   6.935  0.0096  0.5755 -0.6206
18201TIP3    H276019   3.643   3.197   6.987  1.1913 -1.0017 -0.5575
18202TIP3   OH276020   1.867   3.331  15.363  1.0141  0.6214  0.4180
18202TIP3    H176021   1.866   3.339  15.267 -1.8567 -0.8438  0.2745
18202TIP3    H276022   1.936   3.267  15.380  1.0885  0.3833 -0.6892
18203TIP3   OH276023   0.897   3.940  12.187  0.8385  0.2815  0.1431
18203TIP3    H176024   0.834   4.012  12.184  0.9624  0.4291  1.0206
18203TIP3    H276025   0.857   3.875  12.245  0.9348 -0.1554 -0.2794
18204TIP3   OH276026   0.284   1.035   5.033  0.0008  0.0304  0.1477
18204TIP3    H176027   0.245   1.116   5.064  0.0928 -0.4482  1.5817
18204TIP3    H276028   0.210   0.975   5.022  0.0010  0.1023 -0.2303
18205TIP3   OH276029   5.144   2.521   3.209 -0.0447 -0.1966 -0.3028
18205TIP3    H176030   5.137   2.489   3.299 -1.0566 -0.8469 -0.5968
18205TIP3    H276031   5.068   2.483   3.165  2.4972 -3.0747 -2.3875
18206TIP3   OH276032   4.532   2.713   1.651 -0.4629 -0.6716 -0.0877
18206TIP3    H176033   4.544   2.785   1.589  1.7462  0.5568  1.7042
18206TIP3    H276034   4.589   2.643   1.617  0.4258 -0.1464  0.2946
18207TIP3   OH276035   1.248   2.491   0.037  0.1025  0.4641 -0.3252
18207TIP3    H176036   1.300   2.490   0.117 -1.8889 -1.9679  1.0115
18207TIP3    H276037   1.164   2.528   0.063  0.0117  1.2549 -1.7009
18208TIP3   OH276038   3.441   1.364   1.659  0.3623 -0.0420  0.0072
18208TIP3    H176039   3.382   1.440   1.658  1.3649  0.7401 -1.9677
18208TIP3    H276040   3.479   1.365   1.747 -0.5670  1.0111  0.4108
18209TIP3   OH276041   5.111   2.822   5.255 -0.2670 -0.2602  0.0340
18209TIP3    H176042   5.110   2.902   5.307  1.1034 -0.2041 -0.0109
18209TIP3    H276043   5.022   2.789   5.260 -0.5165  0.5630  1.1440
18210TIP3   OH276044   2.976   1.124  13.940  0.4177 -0.0662  0.5385
18210TIP3    H176045   3.060   1.146  13.898  0.5139 -0.6604  0.4205
18210TIP3    H276046   3.000   1.101  14.030  0.4329 -0.6613  0.3834
18211TIP3   OH276047   1.028   1.495   1.087 -0.6132 -0.1524  0.2011
18211TIP3    H176048   0.972   1.417   1.082 -1.0890  0.1101  1.2903
18211TIP3    H276049   1.101   1.475   1.029 -1.6007 -0.7042 -0.8721
18212TIP3   OH276050   2.523   1.273  16.048  0.1472 -0.1145  0.2155
18212TIP3    H176051   2.527   1.278  15.952 -0.9585  0.4358  0.1762
18212TIP3    H276052   2.595   1.216  16.073  2.1777  1.9616 -0.7570
18213TIP3   OH276053   4.266   6.613   3.751  0.3980 -0.1251  0.1681
18213TIP3    H176054   4.190   6.582   3.802  1.2064  0.0599  1.5076
18213TIP3    H276055   4.292   6.694   3.794  1.3842 -0.2064 -0.2789
18214TIP3   OH276056   1.167   4.585  12.797  0.2796 -0.9136 -0.0524
18214TIP3    H176057   1.125   4.512  12.842 -0.4485 -0.7465 -0.4512
18214TIP3    H276058   1.190   4.551  12.711 -0.4535 -0.5422 -0.3933
18215TIP3   OH276059   0.833   3.549  13.588  0.3448 -0.0692  0.1079
18215TIP3    H176060   0.838   3.587  13.676  2.5928  0.2799 -0.1504
18215TIP3    H276061   0.749   3.504  13.587 -1.5657  3.2615  1.1021
18216TIP3   OH276062   5.285   2.433  13.557  0.1967  0.5087  0.5899
18216TIP3    H176063   5.321   2.379  13.627  0.2516  0.5507  0.5935
18216TIP3    H276064   5.343   2.417  13.482  1.1700  1.8059  1.0509
18217TIP3   OH276065   4.191   0.478  11.721 -0.4803 -0.8753 -0.6092
18217TIP3    H176066   4.148   0.429  11.651 -3.4787 -1.8403  1.8194
18217TIP3    H276067   4.228   0.410  11.778 -0.4963 -0.1662  0.2452
18218TIP3   OH276068   4.051   4.316  16.267 -0.2545  0.5979 -0.5282
18218TIP3    H176069   4.078   4.238  16.315  2.3743  2.0050  0.3586
18218TIP3    H276070   3.966   4.339  16.304  0.6056  0.2355  1.7479
18219TIP3   OH276071   0.880   1.360   2.998  0.0029  0.0201 -0.2516
18219TIP3    H176072   0.858   1.360   3.092  1.9901 -2.0899  0.2280
18219TIP3    H276073   0.819   1.297   2.959 -0.1063  0.1022 -0.2148
18220TIP3   OH276074   3.204   0.896   3.814 -0.0073 -0.5464  0.0075
18220TIP3    H176075   3.297   0.918   3.818 -0.0600 -0.1960 -0.5921
18220TIP3    H276076   3.162   0.958   3.875 -0.0120  0.2505 -0.7880
18221TIP3   OH276077   4.974   2.512  15.961  0.0714  0.0788  0.6345
18221TIP3    H176078   5.069   2.525  15.967  0.0180  1.2172 -0.7310
18221TIP3    H276079   4.944   2.511  16.052  1.3721 -0.1040  1.0667
18222TIP3   OH276080   5.005   3.369  10.869 -0.0723  0.1317 -0.5581
18222TIP3    H176081   4.944   3.442  10.870  1.0397  1.0754 -1.2070
18222TIP3    H276082   4.962   3.302  10.816 -0.7419  0.6083 -0.6201
18223TIP3   OH276083   2.064   0.121   4.236 -0.2544 -0.0838 -0.0042
18223TIP3    H176084   2.120   0.043   4.233 -1.0338 -0.6639  0.2502
18223TIP3    H276085   2.020   0.115   4.321 -0.7301  0.3440 -0.2162
18224TIP3   OH276086   0.140   2.144   3.034 -0.1043  0.5341  0.6151
18224TIP3    H176087   0.204   2.203   3.075 -0.5894  0.9673  0.7616
18224TIP3    H276088   0.056   2.191   3.042 -0.2564  0.4810 -0.5754
18225TIP3   OH276089   1.609   0.189   3.250 -0.3017 -0.3547 -0.2735
18225TIP3    H176090   1.597   0.216   3.159 -0.5051  0.9333  0.1299
18225TIP3    H276091   1.550   0.114   3.261 -2.1320  1.0440 -0.5120
18226TIP3   OH276092   6.519   2.855   1.772 -0.3577  0.0289 -0.0711
18226TIP3    H176093   6.523   2.760   1.786  0.3023 -0.1620 -1.4892
18226TIP3    H276094   6.426   2.874   1.767 -0.4734 -0.7161 -0.8486
18227TIP3   OH276095   3.434   0.777  15.424 -0.1696  0.4466 -0.7463
18227TIP3    H176096   3.356   0.832  15.416 -0.7349 -0.4011 -1.1649
18227TIP3    H276097   3.413   0.698  15.374 -0.2899 -1.1584  1.7189
18228TIP3   OH276098   6.645   5.442  13.339 -0.0552 -0.6421 -0.3908
18228TIP3    H176099   6.587   5.500  13.290  0.1125 -0.3333 -0.2243
18228TIP3    H276100   6.587   5.379  13.380 -0.4633  0.9590  1.5420
18229TIP3   OH276101   0.988   2.411   4.346 -0.0582  0.1791  0.2203
18229TIP3    H176102   1.045   2.419   4.270 -2.1038 -0.5538 -1.4548
18229TIP3    H276103   0.972   2.317   4.354 -1.7548  0.4253  0.0400
18230TIP3   OH276104   2.351   4.754  17.164 -0.2438 -0.4124 -0.2764
18230TIP3    H176105   2.403   4.683  17.125 -0.2172 -1.0797  0.9645
18230TIP3    H276106   2.265   4.747  17.122  0.4961  0.3903 -1.9836
18231TIP3   OH276107   0.625   6.278   0.589 -0.3500  0.2454 -0.4584
18231TIP3    H176108   0.648   6.331   0.665  1.0741 -0.9677 -0.0101
18231TIP3    H276109   0.689   6.304   0.522  0.3428 -0.8571 -0.2431
18232TIP3   OH276110   1.391   0.192  15.385  0.4986  0.0760 -0.4378
18232TIP3    H176111   1.350   0.199  15.471  1.6705  0.4683  0.1026
18232TIP3    H276112   1.353   0.264  15.334 -0.2877 -0.2348 -0.3011
18233TIP3   OH276113   2.378   1.903   2.855  0.0398 -0.4974  0.3533
18233TIP3    H176114   2.463   1.860   2.851  0.1074 -0.5246  1.6329
18233TIP3    H276115   2.326   1.845   2.911 -1.0352 -0.8328 -0.9695
18234TIP3   OH276116   3.388   0.954  11.211 -0.0148 -0.4793  0.6149
18234TIP3    H176117   3.467   0.984  11.256  0.1196 -2.6740  1.9129
18234TIP3    H276118   3.323   1.022  11.229  1.3351  0.9451  0.1977
18235TIP3   OH276119   3.854   6.492  14.346 -0.3240 -0.3280  0.1621
18235TIP3    H176120   3.870   6.403  14.377 -1.3950 -0.1756  1.1593
18235TIP3    H276121   3.919   6.545  14.391  0.3671 -0.6087 -0.4923
18236TIP3   OH276122   5.977   4.648  17.159 -0.1623 -0.0640  0.3269
18236TIP3    H176123   5.914   4.632  17.229 -0.5397  2.7197  0.6749
18236TIP3    H276124   6.059   4.669  17.204 -0.3107  1.3687 -0.0258
18237TIP3   OH276125   6.779   0.780   4.140 -0.3572  0.4903  0.5097
18237TIP3    H176126   6.755   0.846   4.205  0.4628  0.7825  0.5262
18237TIP3    H276127   6.854   0.735   4.178 -1.3963 -1.0027  0.8479
18238TIP3   OH276128   2.253   5.981   3.803 -0.5237  0.2287  0.6886
18238TIP3    H176129   2.297   5.995   3.719 -3.5083  0.7385 -0.8604
18238TIP3    H276130   2.306   6.029   3.866  0.8388  1.2770 -1.1915
18239TIP3   OH276131   2.245   3.674   4.469  0.3402  0.1200  0.4296
18239TIP3    H176132   2.244   3.622   4.550 -1.5644 -1.2452 -0.4381
18239TIP3    H276133   2.242   3.765   4.500  0.5663 -0.3513  1.9054
18240TIP3   OH276134   2.261   1.714  16.397 -1.0392  0.1230  0.0428
18240TIP3    H176135   2.177   1.673  16.376  0.0031 -1.2299 -1.6205
18240TIP3    H276136   2.315   1.699  16.319  0.8281  0.7480  1.1951
18241TIP3   OH276137   1.433   3.063  14.874  0.3042  0.1162  0.0644
18241TIP3    H176138   1.475   3.148  14.887  0.7403 -0.1139  0.1892
18241TIP3    H276139   1.481   3.004  14.932 -0.1859 -0.1571  0.1922
18242TIP3   OH276140   3.343   4.571  14.938 -0.2895 -0.2309  0.1150
18242TIP3    H176141   3.386   4.657  14.934 -1.1777  0.2346  0.2870
18242TIP3    H276142   3.263   4.582  14.887 -0.2592 -1.0568 -0.1187
18243TIP3   OH276143   5.681   3.551   1.066  0.1890 -0.2145 -0.1740
18243TIP3    H176144   5.591   3.579   1.052 -0.3855 -0.8581  1.9479
18243TIP3    H276145   5.714   3.529   0.979 -2.0697 -1.0208 -0.8578
18244TIP3   OH276146   2.771   0.195  13.180 -0.5288 -0.1437  0.6705
18244TIP3    H176147   2.736   0.210  13.268 -0.8976  3.5128 -0.0145
18244TIP3    H276148   2.700   0.219  13.121 -1.1398 -4.8943 -0.7117
18245TIP3   OH276149   0.105   6.211   4.935  0.8431  0.2779 -0.1029
18245TIP3    H176150   0.121   6.178   4.846 -0.5029  0.6401 -0.4901
18245TIP3    H276151   0.015   6.243   4.933 -0.4260 -2.9027  2.3614
18246TIP3   OH276152   6.772   5.748   4.610  0.5889 -0.1194 -0.8854
18246TIP3    H176153   6.723   5.679   4.654 -0.5940  0.3817 -1.4051
18246TIP3    H276154   6.709   5.789   4.551  0.2487  3.7514  1.9801
18247TIP3   OH276155   1.802   3.157   4.750  0.1314  0.4468 -0.2405
18247TIP3    H176156   1.726   3.149   4.808 -0.4542 -0.2254 -1.0944
18247TIP3    H276157   1.777   3.108   4.671  0.8646  1.4651 -1.1144
18248TIP3   OH276158   5.914   6.060  14.596  0.5345  0.0325 -0.1003
18248TIP3    H176159   5.988   5.999  14.597  1.0715  0.6803  0.7998
18248TIP3    H276160   5.918   6.105  14.681 -0.1868  0.9162 -0.5162
18249TIP3   OH276161   2.926   6.276  14.244 -0.1454  0.6500 -0.0441
18249TIP3    H176162   2.858   6.249  14.183 -1.1406  1.3948  0.7049
18249TIP3    H276163   3.001   6.299  14.189 -0.0114 -1.5191 -0.8018
18250TIP3   OH276164   6.667   3.801  16.294 -0.0866  0.9869 -0.1139
18250TIP3    H176165   6.745   3.778  16.243  1.4902  0.7993  2.2647
18250TIP3    H276166   6.643   3.888  16.263  0.3438  0.5533 -1.7123
18251TIP3   OH276167   4.303   5.054  15.088 -0.6546 -0.3346 -0.2347
18251TIP3    H176168   4.303   5.144  15.121  0.8478 -0.8677  1.2817
18251TIP3    H276169   4.324   5.001  15.164  3.0713 -1.5840 -2.0116
18252TIP3   OH276170   4.766   5.189   0.576  0.4067  0.1989 -0.0652
18252TIP3    H176171   4.726   5.226   0.655 -0.1381 -0.0020 -0.2388
18252TIP3    H276172   4.700   5.203   0.508 -1.2888 -4.0180  0.5448
18253TIP3   OH276173   4.149   5.240   1.471 -0.5789  0.3636  0.3583
18253TIP3    H176174   4.172   5.321   1.426 -0.9068 -0.2542 -0.9542
18253TIP3    H276175   4.203   5.240   1.550  1.9159  0.2337 -1.3056
18254TIP3   OH276176   4.344   6.421   2.114  0.3767  0.0054 -0.7116
18254TIP3    H176177   4.254   6.446   2.094 -0.1653 -1.4367 -0.1450
18254TIP3    H276178   4.385   6.407   2.029  0.5647  2.3567 -1.0175
18255TIP3   OH276179   0.388   1.892  10.727  0.1564  0.3998  0.3147
18255TIP3    H176180   0.378   1.982  10.697 -0.2147  0.0177 -0.7298
18255TIP3    H276181   0.468   1.892  10.779  0.2159  1.3045  0.2222
18256TIP3   OH276182   1.729   4.444   1.452 -0.1256 -0.1816  0.2502
18256TIP3    H176183   1.642   4.460   1.416 -0.2607  0.0284  0.6693
18256TIP3    H276184   1.788   4.489   1.392 -0.2641 -0.7908 -0.3406
18257TIP3   OH276185   5.484   1.572   4.730 -0.1621 -0.1372 -0.5369
18257TIP3    H176186   5.516   1.552   4.642 -0.7844 -0.7724 -0.6285
18257TIP3    H276187   5.404   1.519   4.739 -1.7304  2.1218 -0.6861
18258TIP3   OH276188   1.562   3.521   4.018  0.1832 -0.0412 -0.4664
18258TIP3    H176189   1.651   3.521   4.054 -0.7686 -0.8682  1.9519
18258TIP3    H276190   1.552   3.434   3.979 -0.4790 -0.9416  1.6533
18259TIP3   OH276191   5.085   2.631   3.714  0.8573  0.2012  0.1893
18259TIP3    H176192   5.065   2.686   3.790  0.8590  1.1367 -0.4793
18259TIP3    H276193   5.138   2.560   3.749 -0.9343 -0.5703  1.4480
18260TIP3   OH276194   5.812   4.606   4.918 -0.1786  0.0263 -0.3984
18260TIP3    H176195   5.730   4.585   4.962  0.1251 -0.3280  0.0165
18260TIP3    H276196   5.792   4.599   4.825  0.3472 -4.0875 -0.2935
18261TIP3   OH276197   6.215   4.094   3.214 -1.0838 -0.3951 -0.4076
18261TIP3    H176198   6.171   4.041   3.147 -1.4343 -1.1462  0.4166
18261TIP3    H276199   6.212   4.041   3.293 -0.2443  0.2935  0.0942
18262TIP3   OH276200   4.423   3.308  15.782 -0.5947  0.8516  0.7030
18262TIP3    H176201   4.487   3.312  15.853 -2.7150  0.0818  2.7403
18262TIP3    H276202   4.343   3.342  15.821 -1.6652  0.9061 -1.5044
18263TIP3   OH276203   6.239   0.012  14.985  0.8841 -0.6082 -0.3826
18263TIP3    H176204   6.240   0.053  15.071  2.5709  2.2195 -1.6908
18263TIP3    H276205   6.276   0.077  14.926 -0.0122 -2.5615 -3.2437
18264TIP3   OH276206   5.279   4.866  15.429 -0.3613  0.1956 -0.1968
18264TIP3    H176207   5.186   4.872  15.406 -0.3667  0.3351 -0.1384
18264TIP3    H276208   5.313   4.796  15.374 -0.7463 -0.6364  0.6116
18265TIP3   OH276209   0.928   2.769   5.283  0.4017 -0.2543  0.1114
18265TIP3    H176210   0.998   2.803   5.226  0.7408 -0.6098  0.3191
18265TIP3    H276211   0.912   2.680   5.251  0.5397 -0.4268  0.5244
18266TIP3   OH276212   3.704   1.974  16.888 -0.4127 -0.2108 -0.2974
18266TIP3    H176213   3.669   1.974  16.800 -1.4917 -2.6373  0.0965
18266TIP3    H276214   3.705   2.067  16.914 -3.2477  0.2452 -1.6139
18267TIP3   OH276215   1.692   4.852  12.216  0.1313 -0.1743  0.3270
18267TIP3    H176216   1.709   4.777  12.273  0.5190  0.2533  0.7639
18267TIP3    H276217   1.745   4.923  12.251  1.4192 -0.2684 -1.3470
18268TIP3   OH276218   4.499   1.178   4.697  0.6380 -0.3105 -0.4542
18268TIP3    H176219   4.508   1.256   4.642  0.6576 -1.5050 -2.1876
18268TIP3    H276220   4.418   1.136   4.666 -0.4118  0.0121  1.7617
18269TIP3   OH276221   3.493   1.277  13.826 -0.2434  0.0203 -0.1661
18269TIP3    H176222   3.553   1.338  13.783 -1.7756  1.0516 -0.8622
18269TIP3    H276223   3.535   1.259  13.911 -0.4624  3.2140  0.6974
18270TIP3   OH276224   3.641   0.780   0.422  0.2165  0.4884 -0.1346
18270TIP3    H176225   3.667   0.840   0.493  1.5629  1.7695 -1.6840
18270TIP3    H276226   3.618   0.699   0.468  0.5800  1.4421  1.8198
18271TIP3   OH276227   2.208   0.878   4.004 -0.4522 -0.2901 -0.6083
18271TIP3    H176228   2.139   0.863   3.939 -0.6693  0.0426 -0.4550
18271TIP3    H276229   2.187   0.964   4.041  2.0217  1.5165 -3.1147
18272TIP3   OH276230   5.638   4.850  13.531 -0.2212 -0.2633 -0.0377
18272TIP3    H176231   5.666   4.768  13.492  4.2054  0.9437  0.2612
18272TIP3    H276232   5.640   4.913  13.459 -1.0735  0.1103  0.2576
18273TIP3   OH276233   6.787   1.711   1.464 -0.3920  0.0764  0.6341
18273TIP3    H176234   6.828   1.700   1.379  1.9191  2.6678  1.3385
18273TIP3    H276235   6.816   1.636   1.515  2.1583  0.9649  0.5655
18274TIP3   OH276236   2.915   5.691   2.077  0.2345 -0.2317 -0.3709
18274TIP3    H176237   2.984   5.715   2.016  1.6388  1.0204  1.6676
18274TIP3    H276238   2.874   5.774   2.101 -0.1099 -0.6862  0.6177
18275TIP3   OH276239   6.307   1.251   2.409  0.2391 -0.5243  0.0302
18275TIP3    H176240   6.266   1.309   2.473  0.1510  0.0184 -0.5061
18275TIP3    H276241   6.352   1.184   2.461  2.8662  1.7109  0.7701
18276TIP3   OH276242   0.500   5.573  16.826 -0.6157  0.2268  0.1909
18276TIP3    H176243   0.521   5.493  16.874 -2.1325 -0.4314 -0.2202
18276TIP3    H276244   0.405   5.571  16.817 -0.8424  2.9193  1.6158
18277TIP3   OH276245   0.666   4.394  13.265 -0.1556  0.0491 -0.5452
18277TIP3    H176246   0.586   4.442  13.286  0.2817  0.0749  1.1720
18277TIP3    H276247   0.674   4.329  13.335  0.1153 -1.4700 -1.9670
18278TIP3   OH276248   5.373   3.383  12.637  0.0504  0.2158  0.4262
18278TIP3    H176249   5.404   3.313  12.694 -0.6622 -0.7347 -0.3408
18278TIP3    H276250   5.436   3.454  12.650  0.4151 -0.3253  1.6929
18279TIP3   OH276251   0.037   2.577  11.965  0.0275  0.3325 -0.5898
18279TIP3    H176252   0.043   2.594  11.871  0.6178 -0.4418 -0.6912
18279TIP3    H276253   0.104   2.634  12.003  0.7040 -0.3477 -0.7591
18280TIP3   OH276254   0.513   3.710   4.210  0.7158  0.1896 -0.2348
18280TIP3    H176255   0.509   3.803   4.187  0.8249  0.5713  1.2565
18280TIP3    H276256   0.534   3.709   4.303  1.0313 -1.3430 -0.3120
18281TIP3   OH276257   6.268   2.030   0.630  0.0366  0.5093  0.4438
18281TIP3    H176258   6.282   2.087   0.554  1.0645  0.3642  0.5230
18281TIP3    H276259   6.173   2.029   0.641 -0.0552  1.4631 -0.1327
18282TIP3   OH276260   2.627   6.076   5.732 -0.2264 -0.1149  0.0282
18282TIP3    H176261   2.620   6.079   5.828 -1.1669  1.2282 -0.0704
18282TIP3    H276262   2.549   6.028   5.704  0.4702 -1.2251 -0.0239
18283TIP3   OH276263   4.923   5.176   4.631 -0.4227  0.3608 -0.5599
18283TIP3    H176264   4.991   5.240   4.610 -0.5141  0.4083 -0.7196
18283TIP3    H276265   4.855   5.192   4.565 -0.9491  0.8670  0.0947
18284TIP3   OH276266   1.722   1.570  12.282 -0.9411 -0.0151  0.1022
18284TIP3    H176267   1.648   1.520  12.246  0.2479 -1.6408 -0.1218
18284TIP3    H276268   1.786   1.574  12.211 -0.8855  1.5758  0.2248
18285TIP3   OH276269   3.121   5.939  15.793  0.3196  0.4526  0.1406
18285TIP3    H176270   3.114   5.845  15.776 -0.1292  0.4000  0.6020
18285TIP3    H276271   3.038   5.961  15.836  1.0316  0.7791  1.3549
18286TIP3   OH276272   2.031   0.170  16.189 -0.1626  0.0670  0.1552
18286TIP3    H176273   2.075   0.169  16.104  0.4296  1.1940  0.4453
18286TIP3    H276274   2.052   0.085  16.227  0.2649 -0.1105 -0.4652
18287TIP3   OH276275   1.956   0.200   5.574 -0.6832 -0.2995 -0.0489
18287TIP3    H176276   2.016   0.196   5.499  0.0295  0.9003  0.4429
18287TIP3    H276277   1.994   0.140   5.638  0.9085  1.6747  0.8962
18288TIP3   OH276278   2.382   4.924  16.268 -0.1906 -0.1520  0.4060
18288TIP3    H176279   2.420   4.960  16.188 -2.3047  1.6428  0.1498
18288TIP3    H276280   2.320   4.991  16.297 -0.0053 -1.0978  3.1612
18289TIP3   OH276281   3.239   3.050  13.093  0.2141  0.0557  0.2503
18289TIP3    H176282   3.178   3.022  13.161  0.2175  0.4818  0.4333
18289TIP3    H276283   3.313   2.990  13.101  0.7202  0.8102  1.3837
18290TIP3   OH276284   1.988   0.351  12.033 -0.2975  0.1455  0.3370
18290TIP3    H176285   2.013   0.263  12.003 -0.7409  0.1432 -0.0256
18290TIP3    H276286   1.999   0.406  11.956  1.2040  0.6490  0.8890
18291TIP3   OH276287   4.019   4.103   4.831  0.7214 -0.2282 -0.3170
18291TIP3    H176288   4.099   4.119   4.781  2.4034  1.3490  2.7465
18291TIP3    H276289   3.979   4.190   4.840  0.7541 -0.3944  1.5420
18292TIP3   OH276290   2.758   0.062  10.704 -0.0178 -0.2791 -0.2365
18292TIP3    H176291   2.672   0.029  10.677  0.0178  0.7468 -1.6695
18292TIP3    H276292   2.738   0.131  10.768 -0.1510 -1.8403  1.4316
18293TIP3   OH276293   2.152   6.522   2.844 -0.4310  0.1095 -0.1841
18293TIP3    H176294   2.175   6.442   2.892  0.3401  0.7215  0.4933
18293TIP3    H276295   2.177   6.593   2.903 -0.3881  0.8652 -1.0958
18294TIP3   OH276296   0.952   0.946  14.554 -0.3062  0.5236  0.3655
18294TIP3    H176297   0.937   0.922  14.463 -1.1092 -0.1782  0.6843
18294TIP3    H276298   1.037   0.991  14.552 -0.1129  0.1432 -0.6591
18295TIP3   OH276299   4.669   4.443   1.541 -0.3518  0.6067  0.3612
18295TIP3    H176300   4.704   4.368   1.494 -0.7688  0.7816 -0.2389
18295TIP3    H276301   4.691   4.518   1.485 -0.6211  0.8415  0.5685
18296TIP3   OH276302   2.054   2.259  12.541 -0.1869  0.4758 -0.1298
18296TIP3    H176303   1.981   2.301  12.587 -1.8832 -1.7088 -0.6929
18296TIP3    H276304   2.021   2.245  12.452  1.7846  1.5256 -1.0386
18297TIP3   OH276305   6.612   1.739   2.549 -0.4210 -0.5244 -0.0414
18297TIP3    H176306   6.634   1.738   2.642  0.4850  0.8251 -0.2282
18297TIP3    H276307   6.528   1.785   2.545  0.1232  0.4809 -0.0023
18298TIP3   OH276308   6.211   1.978   5.390 -0.4483  0.5498 -0.1463
18298TIP3    H176309   6.122   2.011   5.377 -0.5628 -0.2199 -1.4547
18298TIP3    H276310   6.264   2.057   5.401 -1.1345  1.0608 -0.4203
18299TIP3   OH276311   1.226   1.618  13.351 -0.4919 -0.1297 -0.5821
18299TIP3    H176312   1.212   1.685  13.285 -1.1996 -0.3410 -0.6575
18299TIP3    H276313   1.320   1.599  13.348  0.1611  2.5818  1.1319
18300TIP3   OH276314   5.279   4.522   4.653  0.3434 -0.1095 -0.5624
18300TIP3    H176315   5.236   4.442   4.686  0.2667 -0.8406 -2.3613
18300TIP3    H276316   5.278   4.582   4.727 -2.2363 -0.7394 -0.0286
18301TIP3   OH276317   5.304   3.138   5.008 -0.4562 -0.7381 -0.1226
18301TIP3    H176318   5.358   3.129   4.929  1.4815  0.9148  0.9593
18301TIP3    H276319   5.222   3.176   4.977 -0.5594 -2.0875 -1.6215
18302TIP3   OH276320   0.294   6.404   0.878  0.3444 -0.1584  0.2079
18302TIP3    H176321   0.207   6.366   0.864  0.4697  0.0239 -1.1932
18302TIP3    H276322   0.348   6.330   0.905  0.0243 -0.5062 -0.0831
18303TIP3   OH276323   4.286   3.425   6.166 -0.1479 -1.1240 -0.0172
18303TIP3    H176324   4.198   3.458   6.147  0.1060 -0.0199  0.6991
18303TIP3    H276325   4.271   3.350   6.223 -0.6766 -1.6863 -0.8662
18304TIP3   OH276326   3.927   3.866   3.584  0.5400 -0.2255  0.1921
18304TIP3    H176327   3.925   3.789   3.527  2.7423  1.0093 -1.6820
18304TIP3    H276328   3.983   3.839   3.657 -0.9724 -1.2981  0.9683
18305TIP3   OH276329   0.582   3.977  10.950 -0.1293 -0.2389 -0.5561
18305TIP3    H176330   0.560   3.913  10.883  0.7998  2.2974 -3.4190
18305TIP3    H276331   0.677   3.974  10.956 -0.2114 -0.4731  0.6764
18306TIP3   OH276332   2.596   0.390   4.637  0.4051  0.4677 -0.5013
18306TIP3    H176333   2.570   0.303   4.665  0.6330  0.3760 -0.5735
18306TIP3    H276334   2.568   0.395   4.545 -0.5567  0.8549 -0.1911
18307TIP3   OH276335   4.365   3.054   0.740  0.4119  0.5190  0.1504
18307TIP3    H176336   4.451   3.063   0.781  1.0576  1.5363 -1.3949
18307TIP3    H276337   4.383   3.013   0.655 -0.6411  0.6201 -0.1277
18308TIP3   OH276338   4.562   5.890  15.393  0.2880  0.1842 -0.3463
18308TIP3    H176339   4.619   5.912  15.466  1.2788 -0.1989 -0.9989
18308TIP3    H276340   4.614   5.831  15.338 -1.7375 -2.5585  0.5626
18309TIP3   OH276341   3.772   3.824  11.821 -0.7390 -0.3102  0.5188
18309TIP3    H176342   3.790   3.823  11.915  0.9864 -2.2447  0.2136
18309TIP3    H276343   3.785   3.915  11.795 -0.3683  0.0685  1.9980
18310TIP3   OH276344   4.000   0.376  12.452  0.1236  0.5522 -0.4179
18310TIP3    H176345   4.062   0.322  12.501 -0.4143 -0.5229 -0.8871
18310TIP3    H276346   4.047   0.402  12.373 -0.1495 -0.6326 -0.9885
18311TIP3   OH276347   5.653   0.203  11.830 -0.3993  0.3007 -0.2160
18311TIP3    H176348   5.740   0.241  11.824  0.8051 -2.3174  0.3166
18311TIP3    H276349   5.611   0.250  11.902  0.2746  2.1068 -0.9858
18312TIP3   OH276350   2.332   4.877  12.997 -0.2186  0.7439 -0.2693
18312TIP3    H176351   2.370   4.905  12.914 -1.5771  0.5662 -0.9588
18312TIP3    H276352   2.317   4.783  12.985 -0.4290  0.7215  0.1830
18313TIP3   OH276353   6.610   1.827  15.690  0.3006 -0.5536  1.2058
18313TIP3    H176354   6.593   1.799  15.780  3.3095 -2.2645  1.2982
18313TIP3    H276355   6.557   1.768  15.636  0.9775 -1.6287  1.7185
18314TIP3   OH276356   2.753   5.495  12.768  0.3101  0.2890 -0.3118
18314TIP3    H176357   2.821   5.438  12.730  0.1499  0.3110 -0.6314
18314TIP3    H276358   2.677   5.438  12.776  1.0352 -0.3977  2.2398
18315TIP3   OH276359   4.935   1.011   0.447  0.3229  0.0478 -0.3777
18315TIP3    H176360   5.007   0.998   0.384  0.3523  1.6570 -0.6774
18315TIP3    H276361   4.859   1.028   0.392  0.2893  1.1715  0.0145
18316TIP3   OH276362   1.938   4.935   3.289  0.0062  0.1332  0.1563
18316TIP3    H176363   1.897   4.864   3.338  0.7007  0.2256  0.8897
18316TIP3    H276364   1.995   4.978   3.353 -0.1134  1.1038 -0.3819
18317TIP3   OH276365   2.947   3.653   0.629  0.6657  0.1633  0.1989
18317TIP3    H176366   2.951   3.567   0.671  0.4070  0.3479  0.6151
18317TIP3    H276367   3.004   3.709   0.683  0.3072  0.4096  0.3276
18318TIP3   OH276368   4.565   1.841   1.932  0.0790  0.6085  0.7062
18318TIP3    H176369   4.515   1.909   1.887 -1.1166  0.3744  1.6515
18318TIP3    H276370   4.625   1.888   1.989 -0.6533  0.8763  1.2601
18319TIP3   OH276371   2.242   2.042  11.888  0.3133  0.0967 -0.6484
18319TIP3    H176372   2.328   2.005  11.869  0.8129  0.1465  1.4475
18319TIP3    H276373   2.258   2.107  11.957 -1.3561  0.2943 -0.4207
18320TIP3   OH276374   6.664   3.241  12.942 -0.0018  0.2642 -0.2926
18320TIP3    H176375   6.574   3.257  12.971  0.9609  2.3405  1.7681
18320TIP3    H276376   6.689   3.161  12.987 -0.9118 -0.5199 -1.1498
18321TIP3   OH276377   3.382   5.594  11.099 -0.0481 -0.3986  0.3314
18321TIP3    H176378   3.346   5.683  11.098 -1.2991 -0.8893  0.6916
18321TIP3    H276379   3.469   5.603  11.060 -0.7253  0.7400 -0.9522
18322TIP3   OH276380   0.820   2.431   1.388 -0.0939  0.3025  0.2242
18322TIP3    H176381   0.814   2.429   1.293  1.9307  0.0973  0.0866
18322TIP3    H276382   0.900   2.479   1.406 -1.6863  2.4525  1.8964
18323TIP3   OH276383   5.961   1.873  15.868 -0.6530  0.0514  0.2590
18323TIP3    H176384   6.004   1.958  15.879 -2.5610  1.1317 -0.4060
18323TIP3    H276385   5.952   1.839  15.957  0.2998  0.4638  0.5170
18324TIP3   OH276386   6.562   3.374  16.013 -0.2618 -0.0533 -0.1240
18324TIP3    H176387   6.620   3.400  16.086  0.0816 -2.6267  0.5688
18324TIP3    H276388   6.618   3.380  15.936  0.7279 -1.7357  0.4376
18325TIP3   OH276389   4.783   4.313   3.932 -0.1080  0.3307 -0.2101
18325TIP3    H176390   4.764   4.249   3.863  1.0779  0.9687 -1.1370
18325TIP3    H276391   4.710   4.303   3.994  0.6262 -2.6771  0.2255
18326TIP3   OH276392   1.533   1.197  11.051 -0.0824  0.2441  0.1492
18326TIP3    H176393   1.449   1.235  11.077  0.3647 -0.1820  2.2929
18326TIP3    H276394   1.565   1.255  10.981 -2.0274  0.5402 -0.5257
18327TIP3   OH276395   1.384   2.859  12.687  0.0827  0.2091 -0.5009
18327TIP3    H176396   1.298   2.885  12.721 -0.2673 -1.7709  0.1565
18327TIP3    H276397   1.375   2.869  12.592 -0.2898  1.7337 -0.3158
18328TIP3   OH276398   2.256   2.711  11.192 -0.5122 -0.0235  0.3361
18328TIP3    H176399   2.224   2.665  11.114  0.5634 -0.7706  0.3295
18328TIP3    H276400   2.303   2.787  11.158 -0.6139  0.0192  0.2889
18329TIP3   OH276401   6.187   0.472  11.745 -0.1418  0.7152 -0.0855
18329TIP3    H176402   6.227   0.533  11.683 -1.5125 -1.6198 -3.3816
18329TIP3    H276403   6.094   0.494  11.745 -0.1667  0.6602  1.1249
18330TIP3   OH276404   5.381   4.253  13.845  0.1458  0.1889 -0.1120
18330TIP3    H176405   5.354   4.312  13.775 -1.2581 -1.0202 -0.6320
18330TIP3    H276406   5.341   4.290  13.924 -0.3371  0.2045 -0.3594
18331TIP3   OH276407   1.264   0.827   0.523 -0.3919 -0.4292  0.4023
18331TIP3    H176408   1.313   0.844   0.442  1.0303 -1.5539  1.0049
18331TIP3    H276409   1.229   0.738   0.512 -1.0497 -0.1984  0.6007
18332TIP3   OH276410   0.477   3.433  11.473  0.3001 -0.1651  0.0433
18332TIP3    H176411   0.394   3.421  11.425 -0.4518 -3.7466  1.9956
18332TIP3    H276412   0.450   3.466  11.559  0.9675 -0.4909  0.3797
18333TIP3   OH276413   0.776   3.960   6.510  0.4870 -0.0120  0.4439
18333TIP3    H176414   0.703   3.915   6.466 -0.7243  2.8957 -0.6915
18333TIP3    H276415   0.854   3.933   6.462 -0.1474 -1.2316  0.0827
18334TIP3   OH276416   6.161   0.442  14.481 -0.0890  0.5347  0.4712
18334TIP3    H176417   6.106   0.428  14.404 -0.4289  2.1828  0.4116
18334TIP3    H276418   6.206   0.358  14.493 -1.0329 -0.1644 -0.7161
18335TIP3   OH276419   5.257   6.551  10.701  0.2689  0.4690 -0.1456
18335TIP3    H176420   5.210   6.492  10.643  1.8653 -0.3919 -0.5786
18335TIP3    H276421   5.303   6.612  10.642 -2.1872  2.8659  0.2898
18336TIP3   OH276422   1.204   5.216  15.008 -0.2436 -0.5853  0.3714
18336TIP3    H176423   1.204   5.308  15.032  1.5805 -0.6659  0.7426
18336TIP3    H276424   1.112   5.191  15.009 -0.5695  0.5921  2.7553
18337TIP3   OH276425   0.588   3.173   1.799 -0.2329 -0.3112 -0.1319
18337TIP3    H176426   0.554   3.194   1.886 -1.6930  0.9750 -0.9803
18337TIP3    H276427   0.579   3.078   1.792  0.1372 -0.4542  1.2121
18338TIP3   OH276428   6.328   5.861  13.289  0.7635  0.0042 -0.1657
18338TIP3    H176429   6.421   5.882  13.292  0.4536  1.4007 -0.0189
18338TIP3    H276430   6.304   5.868  13.197  0.7266 -0.0506 -0.1604
18339TIP3   OH276431   4.572   6.316  17.140  0.2127 -0.1849  0.3476
18339TIP3    H176432   4.613   6.368  17.071  0.5938  0.4298  1.0295
18339TIP3    H276433   4.489   6.360  17.158  1.3236  1.2088  2.1375
18340TIP3   OH276434   1.713   1.600   4.471 -0.1417 -0.2889 -0.6345
18340TIP3    H176435   1.717   1.602   4.567  1.1861 -0.3393 -0.6730
18340TIP3    H276436   1.711   1.692   4.446  0.8345 -0.2511 -0.5915
18341TIP3   OH276437   5.022   3.916  12.390  0.4176  0.0153 -0.2418
18341TIP3    H176438   4.989   3.827  12.401  0.0950  0.1624 -0.0015
18341TIP3    H276439   5.064   3.916  12.304 -1.7711  0.2959 -1.3636
18342TIP3   OH276440   2.647   2.021  12.676  0.8887  0.4810  0.3395
18342TIP3    H176441   2.621   1.929  12.683  0.7234  0.5923  1.2644
18342TIP3    H276442   2.611   2.062  12.755  0.3870  1.4831 -0.3996
18343TIP3   OH276443   6.713   4.988  13.368 -0.1812 -0.0334  0.1698
18343TIP3    H176444   6.705   5.026  13.280 -0.7922 -0.3620  0.0798
18343TIP3    H276445   6.718   5.063  13.427  2.1171  0.2203 -0.2929
18344TIP3   OH276446   2.941   0.047  14.999  0.2244 -0.3710 -0.1609
18344TIP3    H176447   2.877   0.099  14.950  0.3868  1.0577  1.0787
18344TIP3    H276448   2.969  -0.021  14.938 -0.6916  0.4480 -1.5247
18345TIP3   OH276449   3.005   5.787  14.251  0.0078 -0.0123 -0.3628
18345TIP3    H176450   2.983   5.706  14.205 -2.2115  0.8112 -0.8230
18345TIP3    H276451   3.099   5.796  14.241 -0.0564 -1.3211 -2.3408
18346TIP3   OH276452   4.569   6.000  10.973 -0.2242  0.4644 -0.7656
18346TIP3    H176453   4.634   6.021  10.906 -0.8091 -1.9060 -2.1552
18346TIP3    H276454   4.487   5.990  10.925 -0.8670 -0.2584  0.4406
18347TIP3   OH276455   6.097   2.541  11.151 -0.4309 -0.2621  0.2711
18347TIP3    H176456   6.115   2.453  11.118  1.2071 -0.6948  2.2816
18347TIP3    H276457   6.183   2.582  11.160 -1.0304  0.7877  1.4321
18348TIP3   OH276458   3.121   4.976   4.025 -1.2129  0.5838 -0.1609
18348TIP3    H176459   3.083   4.888   4.029 -0.4842  0.2863  0.3278
18348TIP3    H276460   3.065   5.029   4.082  0.6212 -0.4458  2.7665
18349TIP3   OH276461   5.698   5.912   1.251  0.3715 -0.1393 -0.5595
18349TIP3    H176462   5.683   5.990   1.198 -1.2280 -0.2861 -0.3565
18349TIP3    H276463   5.744   5.944   1.328  0.8431  0.4077 -1.0667
18350TIP3   OH276464   5.287   6.163  14.970 -0.5536 -0.2087 -0.0537
18350TIP3    H176465   5.222   6.216  15.016 -1.0223 -1.6368  0.9600
18350TIP3    H276466   5.243   6.137  14.889 -0.9025 -0.3924  0.1952
18351TIP3   OH276467   5.010   1.495  16.099  0.7982  0.1579  0.3045
18351TIP3    H176468   5.052   1.571  16.140  0.4339  1.2877 -1.3469
18351TIP3    H276469   5.053   1.487  16.014 -1.0403  0.2089 -0.6582
18352TIP3   OH276470   3.026   4.307  13.785  0.5063  0.1161  0.2422
18352TIP3    H176471   2.960   4.338  13.847  1.4424  1.9847  0.3369
18352TIP3    H276472   3.077   4.385  13.763  1.0182 -0.7802 -1.8714
18353TIP3   OH276473   4.369   5.265  12.929 -0.0788  0.1144  0.2622
18353TIP3    H176474   4.362   5.194  12.993 -1.4933  0.3077  0.3382
18353TIP3    H276475   4.401   5.222  12.850  0.5958 -0.3190  0.7554
18354TIP3   OH276476   1.638   1.877  16.973  0.4912  0.2079 -0.2093
18354TIP3    H176477   1.623   1.815  17.044  0.4042 -1.5285 -1.7038
18354TIP3    H276478   1.556   1.879  16.925  1.4953 -1.0044 -2.0386
18355TIP3   OH276479   5.589   4.946  13.047 -0.1866  0.0618 -0.3163
18355TIP3    H176480   5.658   5.012  13.032 -1.6226  2.0129  1.4048
18355TIP3    H276481   5.624   4.890  13.116 -0.3494  1.1360  0.6587
18356TIP3   OH276482   6.479   1.618  13.109 -0.2878 -0.7211  0.7558
18356TIP3    H176483   6.562   1.601  13.064  0.0991  0.3088  1.0767
18356TIP3    H276484   6.450   1.531  13.137 -0.0735 -1.2666 -0.6686
18357TIP3   OH276485   1.464   0.170  16.777 -0.0264  0.0790  0.2166
18357TIP3    H176486   1.500   0.165  16.866 -0.4514  0.9012  0.4345
18357TIP3    H276487   1.525   0.227  16.731  0.3039 -0.5055 -0.0845
18358TIP3   OH276488   1.142   2.309   1.909  0.0803 -0.3406  0.2467
18358TIP3    H176489   1.052   2.330   1.933  0.2613  0.1929  0.4713
18358TIP3    H276490   1.176   2.260   1.985 -0.0630 -0.6742  0.0986
18359TIP3   OH276491   4.523   6.011   3.561  0.4136 -0.0469 -0.2274
18359TIP3    H176492   4.538   6.106   3.564 -0.4369  0.2213 -2.6845
18359TIP3    H276493   4.555   5.978   3.645  2.1635  2.2136  0.0376
18360TIP3   OH276494   1.540   4.171  13.279 -0.0764  0.2655  0.1050
18360TIP3    H176495   1.458   4.125  13.296  0.3037 -0.3708  0.2176
18360TIP3    H276496   1.524   4.219  13.198 -0.5916  0.2184  0.1802
18361TIP3   OH276497   3.374   3.406   2.849 -0.1759 -0.0212  0.2596
18361TIP3    H176498   3.447   3.360   2.890  1.7061  1.4608 -1.3205
18361TIP3    H276499   3.404   3.422   2.759 -2.5207  0.4730 -0.4529
18362TIP3   OH276500   3.338   2.687  14.807 -0.0115  0.3143  0.0949
18362TIP3    H176501   3.413   2.650  14.854 -0.2446  0.9662  0.9992
18362TIP3    H276502   3.283   2.726  14.876 -0.2438  1.4912 -0.7388
18363TIP3   OH276503   2.304   4.075  13.702 -0.3825  0.7494  0.3429
18363TIP3    H176504   2.209   4.075  13.691 -0.2126  2.0645 -1.2324
18363TIP3    H276505   2.321   3.995  13.753 -2.2433  0.0813 -0.0087
18364TIP3   OH276506   4.735   5.767   6.069 -0.3473 -0.5538 -0.2372
18364TIP3    H176507   4.783   5.824   6.128 -1.5931  0.4148 -0.1262
18364TIP3    H276508   4.737   5.811   5.985 -1.0134 -0.5230 -0.2386
18365TIP3   OH276509   5.274   3.058   2.956 -0.7302  0.0584  0.1145
18365TIP3    H176510   5.304   3.025   2.871 -1.0801 -0.6445  0.2638
18365TIP3    H276511   5.180   3.037   2.958 -1.4190  2.8029 -0.6197
18366TIP3   OH276512   5.813   4.285   3.738 -0.3934 -0.4512 -0.0242
18366TIP3    H176513   5.803   4.240   3.655 -0.5376 -1.5492  0.5848
18366TIP3    H276514   5.894   4.252   3.775 -1.2361 -1.3204  1.0991
18367TIP3   OH276515   1.991   4.149  15.904 -0.1326 -0.3141 -0.3787
18367TIP3    H176516   2.069   4.096  15.885 -0.0465 -0.0292 -0.8134
18367TIP3    H276517   2.021   4.212  15.970  0.3703  0.6735 -1.5221
18368TIP3   OH276518   2.225   4.680  15.916  0.4982 -0.0617  0.6485
18368TIP3    H176519   2.257   4.604  15.963  0.2198 -0.3823  0.3289
18368TIP3    H276520   2.208   4.746  15.984 -1.3261 -1.0298  1.1727
18369TIP3   OH276521   2.491   5.285  15.918 -0.3595  0.1489 -0.3254
18369TIP3    H176522   2.517   5.263  15.828 -1.4444 -0.2211 -0.5643
18369TIP3    H276523   2.488   5.380  15.919  0.3955  0.1793 -0.4599
18370TIP3   OH276524   0.788   1.822   0.057 -0.3735  0.1658 -0.0641
18370TIP3    H176525   0.721   1.754   0.059 -1.0836  0.8803  1.0849
18370TIP3    H276526   0.744   1.899   0.021 -0.0164  0.4756  0.1554
18371TIP3   OH276527   5.913   4.504  12.018  0.1101 -0.1347 -0.3366
18371TIP3    H176528   5.934   4.503  11.925 -2.3768 -1.1163 -0.9091
18371TIP3    H276529   5.851   4.576  12.028 -2.0871 -2.0176 -0.0287
18372TIP3   OH276530   0.001   3.874   0.270  0.0050 -0.6897  0.3283
18372TIP3    H176531   0.087   3.909   0.246 -0.6697  0.7364 -0.0960
18372TIP3    H276532   0.000   3.875   0.366 -0.0835  0.7143  0.3235
18373TIP3   OH276533   3.957   0.726  13.814 -0.4613 -0.8280  0.4900
18373TIP3    H176534   3.934   0.649  13.762 -1.9743 -0.5672  0.7654
18373TIP3    H276535   4.027   0.768  13.765  0.9221 -2.7900  0.7194
18374TIP3   OH276536   1.369   5.087   0.950  0.1331 -0.1434  0.4292
18374TIP3    H176537   1.320   5.165   0.974  0.0780 -0.0262 -0.0698
18374TIP3    H276538   1.310   5.037   0.894 -0.1028 -0.8917  1.3305
18375TIP3   OH276539   3.962   5.646   4.441  0.4320  0.7888  0.2010
18375TIP3    H176540   4.005   5.623   4.359  1.4844  0.1839  0.9123
18375TIP3    H276541   4.034   5.660   4.503 -0.3836 -1.9444  1.8677
18376TIP3   OH276542   3.194   0.468  15.182  0.3958  0.1674 -0.4001
18376TIP3    H176543   3.240   0.437  15.104  0.7524  0.4888 -0.3178
18376TIP3    H276544   3.262   0.510  15.235  0.0615  0.3941 -0.1489
18377TIP3   OH276545   3.791   3.155   3.692  0.1747 -0.9300  0.5156
18377TIP3    H176546   3.807   3.248   3.707  0.3251 -0.6177 -1.4048
18377TIP3    H276547   3.817   3.113   3.773  3.3238  0.3575  0.2715
18378TIP3   OH276548   6.666   2.209  16.728  0.7543  0.7434 -0.0592
18378TIP3    H176549   6.745   2.211  16.673  0.9261  0.4427  0.1778
18378TIP3    H276550   6.631   2.298  16.722  1.7289  1.1821  0.7200
18379TIP3   OH276551   2.274   0.958  15.365  0.3457 -0.5331  0.7624
18379TIP3    H176552   2.204   0.902  15.333 -0.7444  1.0638  0.2824
18379TIP3    H276553   2.237   1.046  15.363  2.2688  0.3021  0.7565
18380TIP3   OH276554   0.511   1.041  13.577 -0.2669 -0.5526  0.6906
18380TIP3    H176555   0.489   1.134  13.579 -0.4294 -0.5138 -1.7705
18380TIP3    H276556   0.604   1.040  13.555 -0.5273 -0.9966 -0.3893
18381TIP3   OH276557   3.595   1.150   4.577 -0.2154 -0.0718 -0.1168
18381TIP3    H176558   3.677   1.176   4.620  0.5119 -1.5195 -0.6126
18381TIP3    H276559   3.526   1.177   4.638  0.6644  0.5316  0.6197
18382TIP3   OH276560   5.743   5.532   4.934 -0.1834 -0.6374 -0.1636
18382TIP3    H176561   5.688   5.465   4.975 -1.1572  0.7110  0.7948
18382TIP3    H276562   5.831   5.514   4.967 -0.4203 -1.4508  0.0524
18383TIP3   OH276563   4.806   3.617  13.436  0.4537 -0.3048  0.3946
18383TIP3    H176564   4.837   3.640  13.524  2.4790  0.6786 -0.5467
18383TIP3    H276565   4.711   3.627  13.441  0.3570 -1.9993  2.9600
18384TIP3   OH276566   3.245   4.385   2.602 -0.5959  0.6966 -0.7815
18384TIP3    H176567   3.165   4.378   2.654  0.1316 -1.9068  0.0691
18384TIP3    H276568   3.246   4.305   2.549  1.3737  0.7378 -0.8543
18385TIP3   OH276569   4.902   4.852  16.772 -0.4129 -0.6044  0.6425
18385TIP3    H176570   4.838   4.909  16.729  0.6448 -0.3252 -0.6003
18385TIP3    H276571   4.891   4.870  16.865 -0.0705  1.6968  0.2821
18386TIP3   OH276572   5.064   5.400   6.143  0.1539 -0.1157  0.2572
18386TIP3    H176573   5.055   5.491   6.172 -1.0110  0.4660 -1.8135
18386TIP3    H276574   5.113   5.357   6.213  0.3662  2.0074  1.4530
18387TIP3   OH276575   0.155   3.459  15.448 -0.0709 -0.6438  0.0033
18387TIP3    H176576   0.213   3.461  15.524  2.9353 -0.4916 -2.1787
18387TIP3    H276577   0.127   3.367  15.441 -0.6449 -0.5795  1.4860
18388TIP3   OH276578   6.767   3.510  14.949  0.3408  0.2280  0.3616
18388TIP3    H176579   6.859   3.520  14.972  0.6221  1.8239 -1.3580
18388TIP3    H276580   6.719   3.530  15.030  1.5212 -2.5350  1.8067
18389TIP3   OH276581   1.463   1.741  15.065 -0.4803  0.0264  0.3669
18389TIP3    H176582   1.410   1.759  14.987 -0.4467 -2.8129 -0.3414
18389TIP3    H276583   1.416   1.784  15.136 -1.8103  0.5778 -0.8304
18390TIP3   OH276584   4.183   3.112  14.743  0.3193 -0.2710 -0.2291
18390TIP3    H176585   4.258   3.169  14.730 -1.2584  1.8931 -0.0580
18390TIP3    H276586   4.192   3.081  14.833 -0.0999  1.6882  0.5197
18391TIP3   OH276587   4.407   4.043   1.814  0.3938  0.0485 -0.2276
18391TIP3    H176588   4.450   4.024   1.730 -0.4584 -0.2624 -0.5966
18391TIP3    H276589   4.315   4.052   1.791  0.0734 -0.6702  0.7832
18392TIP3   OH276590   2.337   3.529   4.696 -0.0760 -0.2329  0.1721
18392TIP3    H176591   2.412   3.471   4.710 -0.0764 -0.3436 -0.2797
18392TIP3    H276592   2.265   3.469   4.673  0.1003 -0.0041 -1.0226
18393TIP3   OH276593   1.407   4.748  15.245 -0.2798 -0.5371 -0.1138
18393TIP3    H176594   1.335   4.692  15.275 -1.0562  0.5189 -0.0035
18393TIP3    H276595   1.374   4.787  15.164  0.5515 -0.8186 -0.5883
18394TIP3   OH276596   6.655   6.243  14.893  0.5059  1.0692 -0.5578
18394TIP3    H176597   6.737   6.213  14.854  0.8400  1.3730 -0.1009
18394TIP3    H276598   6.680   6.320  14.945  0.2234  0.2042  0.8990
18395TIP3   OH276599   1.666   3.810   1.239  0.0842  0.6515 -0.4734
18395TIP3    H176600   1.640   3.807   1.147 -0.1915  1.1271 -0.4127
18395TIP3    H276601   1.610   3.746   1.283 -0.4688  1.1410 -0.4682
18396TIP3   OH276602   4.984   2.111   2.724 -0.2923  0.0479 -0.2061
18396TIP3    H176603   4.893   2.081   2.717 -0.3848  0.2465  0.1034
18396TIP3    H276604   5.010   2.084   2.812  0.2617 -0.8551 -0.6396
18397TIP3   OH276605   3.227   3.057  11.476  0.3642 -0.1822 -0.0449
18397TIP3    H176606   3.134   3.075  11.488 -0.0020 -1.5214 -0.7671
18397TIP3    H276607   3.239   3.058  11.381  1.5512  2.1701  0.0923
18398TIP3   OH276608   2.055   0.196   3.829  0.1263  0.3755  0.4990
18398TIP3    H176609   2.121   0.172   3.895  0.2132 -0.7712  0.0120
18398TIP3    H276610   2.089   0.161   3.747 -1.9210 -1.8198  0.5342
18399TIP3   OH276611   6.212   1.529  15.328 -0.1954  0.0197 -0.0503
18399TIP3    H176612   6.192   1.610  15.374 -0.5132 -0.0740 -0.0240
18399TIP3    H276613   6.270   1.555  15.257 -0.4696  0.2980 -0.1726
18400TIP3   OH276614   4.771   4.073  13.892  0.4559  0.0407 -0.3866
18400TIP3    H176615   4.678   4.092  13.899  0.1586 -0.5986 -2.1928
18400TIP3    H276616   4.806   4.146  13.841  0.8369  0.0090 -0.1702
18401TIP3   OH276617   5.224   0.386  16.184 -0.0571 -0.4822 -0.3168
18401TIP3    H176618   5.288   0.377  16.255 -1.0196 -0.2458  0.5855
18401TIP3    H276619   5.206   0.296  16.157 -0.8960 -0.6801  0.8396
18402TIP3   OH276620   3.120   6.409  12.493  0.3716 -0.1145  0.4295
18402TIP3    H176621   3.047   6.376  12.440 -0.0582 -1.2213  1.6837
18402TIP3    H276622   3.163   6.331  12.526  0.4524  0.5570  1.9504
18403TIP3   OH276623   2.043   0.847  11.375 -0.5285 -0.6773 -0.2306
18403TIP3    H176624   1.999   0.762  11.378  1.0841 -1.5548 -0.8819
18403TIP3    H276625   1.995   0.902  11.438 -0.8325 -2.4205  1.0762
18404TIP3   OH276626   2.429   3.557  16.064 -0.3444 -0.4484 -0.7876
18404TIP3    H176627   2.400   3.606  16.141  0.8263  0.3370 -0.8380
18404TIP3    H276628   2.499   3.610  16.026 -0.2431 -1.3089 -1.8439
18405TIP3   OH276629   0.345   0.431  14.754  0.0910  0.3641  0.1784
18405TIP3    H176630   0.338   0.520  14.790 -0.3798 -0.4990  2.2788
18405TIP3    H276631   0.311   0.374  14.824 -0.0742 -1.4290 -1.3335
18406TIP3   OH276632   0.634   5.060  13.406 -0.4174 -0.1648  0.6840
18406TIP3    H176633   0.635   5.073  13.501 -2.5815  0.8981  0.5996
18406TIP3    H276634   0.617   5.147  13.370 -3.8582 -1.2363 -0.4518
18407TIP3   OH276635   3.332   6.293   2.526 -0.8517 -0.6544 -0.4106
18407TIP3    H176636   3.274   6.219   2.543  1.2511 -1.6140  3.0977
18407TIP3    H276637   3.369   6.315   2.611  1.5189  1.9839 -2.0190
18408TIP3   OH276638   5.255   0.916  11.559 -0.4817  0.4724  0.1428
18408TIP3    H176639   5.316   0.891  11.629  0.2334  0.5824 -0.4289
18408TIP3    H276640   5.244   1.011  11.569  0.5183  0.6782 -0.5792
18409TIP3   OH276641   4.027   0.270  15.609 -0.2223  0.0639  0.1359
18409TIP3    H176642   3.953   0.303  15.659 -0.4253 -0.5086  0.2187
18409TIP3    H276643   4.001   0.181  15.583  0.3299 -0.0494 -0.0440
18410TIP3   OH276644   1.898   1.733   0.253  0.1782 -0.4947 -0.7195
18410TIP3    H176645   1.938   1.661   0.303  0.0899 -1.2861 -1.7623
18410TIP3    H276646   1.959   1.806   0.262  0.6906 -0.9662 -0.3396
18411TIP3   OH276647   1.980   6.291   3.550 -0.2502 -0.5150 -0.3433
18411TIP3    H176648   1.899   6.329   3.515 -0.1407  2.1380  2.1220
18411TIP3    H276649   2.050   6.340   3.508 -0.0111 -0.6036 -0.0521
18412TIP3   OH276650   5.895   4.633  14.343 -0.1191 -0.5686 -0.2425
18412TIP3    H176651   5.833   4.571  14.381  0.0250  0.5022  1.7857
18412TIP3    H276652   5.855   4.659  14.260 -1.5653 -1.1585  0.2498
18413TIP3   OH276653   1.668   2.527  11.701 -0.4371  0.1411 -0.8822
18413TIP3    H176654   1.579   2.548  11.730 -0.8376  0.2319 -2.1313
18413TIP3    H276655   1.668   2.432  11.689 -0.1443  0.0483 -0.2008
18414TIP3   OH276656   2.382   1.675   5.349  0.6182 -0.4346  0.4265
18414TIP3    H176657   2.301   1.713   5.315  1.6199  0.9749 -0.4236
18414TIP3    H276658   2.355   1.627   5.428 -1.1549 -0.6397 -0.2813
18415TIP3   OH276659   5.670   2.214  13.732 -0.0274  0.1274 -0.0942
18415TIP3    H176660   5.696   2.126  13.759  1.1070  0.7396  0.8479
18415TIP3    H276661   5.577   2.220  13.755 -0.5224 -1.3558 -1.5893
18416TIP3   OH276662   6.065   5.700   1.965 -0.0659  0.2344  0.0160
18416TIP3    H176663   6.000   5.660   2.022 -1.2669  2.1053  0.0119
18416TIP3    H276664   6.072   5.641   1.890 -1.4107 -0.2255  0.2528
18417TIP3   OH276665   2.747   5.401   5.787  0.2426 -0.3601 -0.7063
18417TIP3    H176666   2.754   5.349   5.707 -0.3693  1.1131 -1.7425
18417TIP3    H276667   2.660   5.382   5.821 -0.0083  0.0467 -1.1229
18418TIP3   OH276668   5.571   0.478   4.002  0.4466  0.6192  0.2930
18418TIP3    H176669   5.483   0.484   3.964  0.2096  0.9495  0.8802
18418TIP3    H276670   5.578   0.388   4.032 -0.5234  1.1327  2.1821
18419TIP3   OH276671   6.110   0.831  15.943 -0.4339 -0.4206  0.3482
18419TIP3    H176672   6.028   0.784  15.956 -0.2152 -0.8894  0.0403
18419TIP3    H276673   6.162   0.810  16.020  0.0557 -1.5071 -0.2730
18420TIP3   OH276674   1.013   4.157   0.635  0.4048 -0.1863 -0.2796
18420TIP3    H176675   0.949   4.228   0.637 -1.5841 -1.9369  0.0303
18420TIP3    H276676   0.973   4.091   0.578  2.2164 -1.0707 -0.5416
18421TIP3   OH276677   1.517   0.519  15.036 -0.1359 -0.2312 -0.4870
18421TIP3    H176678   1.550   0.430  15.036 -0.1366 -0.2505  1.4880
18421TIP3    H276679   1.546   0.555  14.952  0.7627 -1.7475 -0.8482
18422TIP3   OH276680   6.717   4.065   3.594  0.0705 -0.2813  0.0035
18422TIP3    H176681   6.741   3.997   3.657  2.0040  0.3143 -0.0554
18422TIP3    H276682   6.740   4.029   3.509  0.7915  0.3104 -0.0554
18423TIP3   OH276683   0.572   0.694  11.962  0.4766 -0.3220 -0.4041
18423TIP3    H176684   0.617   0.609  11.964  1.5104  0.2216 -0.4028
18423TIP3    H276685   0.567   0.721  12.054  1.5807  0.3558 -0.5309
18424TIP3   OH276686   5.948   6.060  11.081  0.0294  0.4082  0.1806
18424TIP3    H176687   6.019   5.996  11.090  1.4896  1.7450 -1.5987
18424TIP3    H276688   5.879   6.027  11.139  0.5618 -3.0277 -1.0391
18425TIP3   OH276689   0.733   3.469   1.363  0.3612  0.2632  0.2933
18425TIP3    H176690   0.811   3.516   1.392 -0.3640  1.0040  1.0725
18425TIP3    H276691   0.765   3.382   1.338  1.4237  0.5582  0.6176
18426TIP3   OH276692   1.215   4.546  16.369  0.3253 -0.4379  0.0332
18426TIP3    H176693   1.259   4.461  16.358 -1.8349 -1.2379 -2.9633
18426TIP3    H276694   1.141   4.526  16.426 -0.1093 -0.5377 -0.5682
18427TIP3   OH276695   5.368   1.662  11.839  0.1625 -0.8719  0.3558
18427TIP3    H176696   5.273   1.677  11.839  0.3597  0.4554  1.4077
18427TIP3    H276697   5.399   1.706  11.760  0.1525  0.3915  1.0538
18428TIP3   OH276698   2.725   0.084   3.144 -0.0988  0.5582  0.4442
18428TIP3    H176699   2.658   0.117   3.204 -0.2018  1.9759 -0.4090
18428TIP3    H276700   2.729   0.150   3.075 -0.0381 -1.0787 -1.1562
18429TIP3   OH276701   6.780   4.256   5.275  0.4806  0.0875 -0.2106
18429TIP3    H176702   6.807   4.169   5.246  1.9807  1.4406 -3.1357
18429TIP3    H276703   6.690   4.245   5.306  0.6445 -2.4657 -0.5614
18430TIP3   OH276704   1.711   5.315   5.043  0.0168  0.7644  0.1722
18430TIP3    H176705   1.802   5.288   5.035 -0.1622 -0.0078  0.6973
18430TIP3    H276706   1.712   5.384   5.110 -0.0769 -0.8459  1.8984
18431TIP3   OH276707   5.459   2.684   0.489  0.5797  0.6140  0.4157
18431TIP3    H176708   5.486   2.740   0.562  1.5439 -1.3101  1.5488
18431TIP3    H276709   5.533   2.686   0.428  0.1066  1.5632 -0.1352
18432TIP3   OH276710   1.052   4.485   5.098 -0.0608  0.1077  0.3849
18432TIP3    H176711   1.056   4.580   5.087 -0.0332 -0.0827 -1.3783
18432TIP3    H276712   1.108   4.450   5.029 -0.1620 -1.1988  0.9476
18433TIP3   OH276713   2.242   0.241   1.271  0.2151  0.2804 -0.1539
18433TIP3    H176714   2.220   0.151   1.296  2.1429  0.1720  1.2985
18433TIP3    H276715   2.333   0.252   1.300  0.3409  2.3646 -1.2582
18434TIP3   OH276716   6.047   3.617  16.346 -0.9756 -0.1374 -0.0253
18434TIP3    H176717   6.129   3.639  16.301 -0.8392 -0.4308  0.0793
18434TIP3    H276718   5.986   3.687  16.321 -0.2221  0.9958  1.1958
18435TIP3   OH276719   0.622   5.788  16.367  0.3314  0.3453 -0.2738
18435TIP3    H176720   0.717   5.792  16.378  0.2871  0.4060  0.0819
18435TIP3    H276721   0.609   5.766  16.274  0.6602  2.7446 -0.9175
18436TIP3   OH276722   6.449   3.497   3.093  0.6932 -0.5784  0.7158
18436TIP3    H176723   6.510   3.466   3.159  0.2550 -2.9046  0.0787
18436TIP3    H276724   6.384   3.427   3.085 -2.0096  1.7601  1.2785
18437TIP3   OH276725   3.666   3.749   6.576  0.3786 -0.3300  0.2269
18437TIP3    H176726   3.748   3.781   6.616  1.0393 -0.2163 -1.1689
18437TIP3    H276727   3.683   3.753   6.481 -1.1151 -0.6741 -0.0643
18438TIP3   OH276728   0.161   5.340   0.092 -0.1188  0.1773  0.0815
18438TIP3    H176729   0.093   5.406   0.106 -0.3494 -0.6155  3.0869
18438TIP3    H276730   0.231   5.387   0.046 -1.5711  1.6824 -0.6531
18439TIP3   OH276731   3.827   4.355   4.048 -0.2268 -0.2703 -0.0825
18439TIP3    H176732   3.810   4.303   3.970 -0.2689 -0.1805 -0.1335
18439TIP3    H276733   3.742   4.394   4.070 -0.0154  0.4420 -0.5284
18440TIP3   OH276734   5.603   2.224  15.833  0.2514 -0.5048 -0.1588
18440TIP3    H176735   5.631   2.259  15.918 -0.4639 -0.9278  0.2560
18440TIP3    H276736   5.674   2.166  15.806  0.5482 -0.2589  0.0800
18441TIP3   OH276737   4.006   3.388  13.376  0.5705 -0.1643 -0.0254
18441TIP3    H176738   4.043   3.444  13.444  0.7592  1.6264 -1.5622
18441TIP3    H276739   3.971   3.312  13.423 -0.9387  1.8862  2.2439
18442TIP3   OH276740   5.038   3.458  11.832 -0.0760 -0.4470  0.0631
18442TIP3    H176741   4.981   3.414  11.769  1.7724 -1.3108 -1.0376
18442TIP3    H276742   5.115   3.483  11.781  0.1830  1.4396  1.3436
18443TIP3   OH276743   2.741   1.388   1.627 -0.4255 -0.3112  0.4382
18443TIP3    H176744   2.808   1.455   1.633 -0.8728  0.1448  0.3328
18443TIP3    H276745   2.662   1.429   1.662 -0.2277 -1.4204  2.3092
18444TIP3   OH276746   6.237   0.512  16.948  0.0505 -0.9853 -0.6461
18444TIP3    H176747   6.225   0.468  17.032 -0.5143  1.3522  0.5328
18444TIP3    H276748   6.148   0.528  16.916  0.2182  0.3576 -0.4760
18445TIP3   OH276749   0.360   1.316  11.210  0.3478  0.4080  0.4122
18445TIP3    H176750   0.277   1.341  11.169 -0.4590 -0.2941  1.6083
18445TIP3    H276751   0.399   1.253  11.150  0.8656  2.0404 -1.0216
18446TIP3   OH276752   5.180   3.566  10.908 -0.0680  0.0316  0.1153
18446TIP3    H176753   5.093   3.526  10.899  0.4364 -0.5570 -2.8360
18446TIP3    H276754   5.224   3.545  10.825  2.2917  1.7494  0.8916
18447TIP3   OH276755   2.269   3.543   6.159  0.2946  0.1315 -0.4692
18447TIP3    H176756   2.349   3.582   6.123 -0.2070  0.2398 -1.4943
18447TIP3    H276757   2.297   3.498   6.238  1.1136  1.4641  0.0060
18448TIP3   OH276758   5.964   1.352  16.683 -0.2034  0.2312 -0.0941
18448TIP3    H176759   6.019   1.317  16.753  0.6872 -1.6276 -1.6798
18448TIP3    H276760   6.015   1.424  16.645  0.6429 -0.7148 -0.7777
18449TIP3   OH276761   0.871   3.887  13.727  0.0993 -0.1340  0.4554
18449TIP3    H176762   0.934   3.892  13.655 -0.8881  1.1372 -0.3544
18449TIP3    H276763   0.887   3.801  13.767  2.1734  0.0660  0.1365
18450TIP3   OH276764   4.068   3.596   3.903 -0.3033 -0.1549 -0.0495
18450TIP3    H176765   4.062   3.681   3.860 -2.8033 -0.4001 -0.3016
18450TIP3    H276766   4.069   3.616   3.997 -2.7196  0.1638 -0.0368
18451TIP3   OH276767   5.378   1.662  14.610 -1.2716  0.7507  0.0268
18451TIP3    H176768   5.380   1.725  14.682  0.7011  1.9553 -1.0595
18451TIP3    H276769   5.453   1.605  14.625 -2.4103 -0.6868  0.3904
18452TIP3   OH276770   4.078   5.412  10.965 -0.2365  0.4070  0.1562
18452TIP3    H176771   3.993   5.456  10.958 -0.8095 -0.5792  0.7741
18452TIP3    H276772   4.125   5.461  11.032 -0.5689  0.5646  0.2781
18453TIP3   OH276773   2.799   5.936   2.147 -0.6103  0.3832 -0.0399
18453TIP3    H176774   2.889   5.946   2.116 -0.0250  0.3368  1.5926
18453TIP3    H276775   2.745   5.951   2.069  0.7475  1.8249 -0.7391
18454TIP3   OH276776   4.762   0.415   7.027  0.1047 -0.2235 -0.3231
18454TIP3    H176777   4.814   0.472   6.970 -1.3744  2.0568  0.5552
18454TIP3    H276778   4.694   0.379   6.971 -1.1057  1.7015 -0.1139
18455TIP3   OH276779   5.985   2.727  16.910  0.2805 -0.4738 -0.0226
18455TIP3    H176780   5.953   2.767  16.829  0.3507  1.5871  0.9162
18455TIP3    H276781   5.921   2.659  16.930 -0.9253  0.4379 -0.6883
18456TIP3   OH276782   2.410   6.415   3.281  0.4932 -0.1841 -0.4746
18456TIP3    H176783   2.435   6.342   3.223  1.1429  0.0823 -0.5387
18456TIP3    H276784   2.494   6.447   3.315  0.2653  1.0565 -1.0836
18457TIP3   OH276785   0.179   6.026   3.445 -0.4568  0.4712 -0.0474
18457TIP3    H176786   0.221   5.961   3.388  0.0464  0.3088  0.5070
18457TIP3    H276787   0.243   6.097   3.451 -1.4727  1.5554 -1.5955
18458TIP3   OH276788   3.104   2.472   2.199 -0.4441 -0.2597  0.4768
18458TIP3    H176789   3.026   2.526   2.215 -0.6558 -0.2743 -0.4851
18458TIP3    H276790   3.169   2.534   2.167 -0.7752 -0.6239 -0.8992
18459TIP3   OH276791   1.204   3.924  14.790  0.2575 -0.1159  0.2226
18459TIP3    H176792   1.225   3.836  14.821 -1.3076 -0.9780 -1.0352
18459TIP3    H276793   1.256   3.934  14.710  1.3071  0.5667  0.9774
18460TIP3   OH276794   5.356   1.220   5.461  0.1626 -0.1749  0.2256
18460TIP3    H176795   5.284   1.182   5.512  0.7797 -0.0624  1.1996
18460TIP3    H276796   5.398   1.145   5.419 -0.7777 -0.2010 -0.7078
18461TIP3   OH276797   3.756   5.978   4.254 -0.3920  0.1500 -0.5415
18461TIP3    H176798   3.804   5.973   4.336 -0.6827  1.2893 -0.2986
18461TIP3    H276799   3.717   5.891   4.244 -1.6114  0.4527  1.2939
18462TIP3   OH276800   6.371   1.090  15.178  0.6124 -0.3299 -0.5952
18462TIP3    H176801   6.424   1.169  15.184 -2.1796  1.5692  0.1396
18462TIP3    H276802   6.401   1.036  15.251  0.9881  1.0569  0.3060
18463TIP3   OH276803   2.774   6.009  14.349  0.1299  0.2380  0.4974
18463TIP3    H176804   2.850   6.057  14.381  0.1810  0.6815 -0.2715
18463TIP3    H276805   2.810   5.933  14.303  0.0964  0.2049  0.5266
18464TIP3   OH276806   2.205   2.759   4.422  0.4075  0.0351 -0.2963
18464TIP3    H176807   2.142   2.742   4.352 -0.9360 -0.5286  1.0268
18464TIP3    H276808   2.270   2.689   4.413 -1.5012 -1.9930  0.9781
18465TIP3   OH276809   3.052   6.061  11.780 -0.2472  0.4895 -0.1688
18465TIP3    H176810   3.068   6.014  11.862 -0.6206  0.2857 -0.2105
18465TIP3    H276811   3.136   6.059  11.735  0.5699  2.5440  1.1883
18466TIP3   OH276812   3.928   4.778  16.001 -0.2983 -0.2436  0.0464
18466TIP3    H176813   3.879   4.760  16.081  0.2048 -2.5419 -0.1174
18466TIP3    H276814   3.996   4.711  15.999  0.4045  0.4885 -1.7187
18467TIP3   OH276815   0.749   0.345  12.969 -0.5961  0.0495 -0.1500
18467TIP3    H176816   0.786   0.291  12.899  1.6921 -0.8940  1.7124
18467TIP3    H276817   0.683   0.290  13.010  1.0945 -1.0445  1.1607
18468TIP3   OH276818   1.384   1.215  13.638  0.0967 -0.0505 -0.0587
18468TIP3    H176819   1.472   1.190  13.667 -0.3565 -1.4959  0.1078
18468TIP3    H276820   1.389   1.214  13.543  0.7226  1.5660 -0.0538
18469TIP3   OH276821   3.018   6.245  10.424  0.3590 -0.1045  0.0975
18469TIP3    H176822   2.974   6.235  10.508  0.9474  0.7633  0.5141
18469TIP3    H276823   2.978   6.324  10.386  0.5768 -0.1057 -0.1286
18470TIP3   OH276824   0.274   4.344  12.757 -0.5531  0.0364  0.0671
18470TIP3    H176825   0.211   4.360  12.828  0.6387  0.8947  0.9661
18470TIP3    H276826   0.319   4.428  12.747  0.0480 -0.4094 -0.9486
18471TIP3   OH276827   5.250   2.576  15.802 -0.0356  0.4030  0.2026
18471TIP3    H176828   5.296   2.536  15.876 -0.0073  3.1020  1.7298
18471TIP3    H276829   5.317   2.584  15.734  0.3780 -0.5909  0.4844
18472TIP3   OH276830   3.708   6.616  12.296 -0.0148 -0.3152  0.2513
18472TIP3    H176831   3.613   6.625  12.288  0.2311  1.7263 -0.6029
18472TIP3    H276832   3.727   6.639  12.387 -0.1488  1.1887 -0.0877
18473TIP3   OH276833   1.154   6.180   1.228  0.3545 -0.1314 -0.3610
18473TIP3    H176834   1.144   6.250   1.292  0.4989  0.1710 -0.6638
18473TIP3    H276835   1.248   6.179   1.208  0.2618 -0.0118 -0.8048
18474TIP3   OH276836   4.914   6.444  13.475 -0.5890  0.3800 -0.6404
18474TIP3    H176837   5.000   6.411  13.451 -0.2488  1.7421 -1.3825
18474TIP3    H276838   4.853   6.401  13.415 -0.3855 -0.2787 -0.3785
18475TIP3   OH276839   5.341   5.724   3.400 -0.4660  0.3477 -0.1684
18475TIP3    H176840   5.295   5.641   3.413 -1.1916  0.8745  0.6997
18475TIP3    H276841   5.427   5.711   3.440 -1.1319  0.5185  1.3422
18476TIP3   OH276842   1.020   5.406   1.419 -0.9015 -0.2681 -0.2297
18476TIP3    H176843   0.984   5.392   1.507  0.0507 -0.9433  0.0638
18476TIP3    H276844   1.004   5.499   1.402 -3.3828 -0.6980 -0.4075
18477TIP3   OH276845   5.145   6.140  12.470  0.0055 -0.4343  0.1671
18477TIP3    H176846   5.196   6.063  12.448  0.4925  0.2125 -1.0020
18477TIP3    H276847   5.205   6.196  12.519  0.3520  0.2188 -0.9951
18478TIP3   OH276848   1.358   2.424   1.197 -0.1151  0.0141 -0.6278
18478TIP3    H176849   1.453   2.425   1.210 -0.0373  0.4906 -1.2350
18478TIP3    H276850   1.346   2.449   1.106 -0.8994  1.8088 -0.0556
18479TIP3   OH276851   2.348   3.624   0.420  0.3504 -0.1386 -0.2506
18479TIP3    H176852   2.439   3.645   0.441  0.1849  0.1380  0.2067
18479TIP3    H276853   2.331   3.671   0.338  1.0064 -1.2308 -1.0233
18480TIP3   OH276854   6.350   5.719   3.138  0.1218 -0.4200 -0.1049
18480TIP3    H176855   6.275   5.675   3.178  0.3071 -1.7255 -1.1710
18480TIP3    H276856   6.361   5.677   3.053  1.0646  0.8673 -0.6437
18481TIP3   OH276857   1.562   0.997  13.244  0.3155 -0.1075  0.1046
18481TIP3    H176858   1.628   0.990  13.313  0.2125  0.6806  0.2862
18481TIP3    H276859   1.580   0.924  13.186  0.0824 -1.0837  1.2431
18482TIP3   OH276860   2.014   2.963  14.658  0.3347 -0.0565  0.2713
18482TIP3    H176861   2.010   2.950  14.563  0.6194 -0.5138  0.3225
18482TIP3    H276862   2.102   2.934  14.683  0.9215  1.8114  0.4154
18483TIP3   OH276863   6.117   4.811  11.388 -0.1905  0.5370  0.9019
18483TIP3    H176864   6.118   4.720  11.359  0.1350  0.0527  2.4005
18483TIP3    H276865   6.187   4.853  11.338  0.8977 -0.4696  1.5565
18484TIP3   OH276866   5.616   0.869   0.272  0.2548 -0.1365  0.5704
18484TIP3    H176867   5.524   0.890   0.288  0.4766  1.9393 -0.6425
18484TIP3    H276868   5.627   0.879   0.177  0.9388 -3.8319  0.1723
18485TIP3   OH276869   5.212   6.534   4.491 -0.1572  0.1684  0.2657
18485TIP3    H176870   5.280   6.469   4.478  0.1585 -0.0172  2.6796
18485TIP3    H276871   5.166   6.538   4.407  3.8168  1.4763 -1.9666
18486TIP3   OH276872   2.961   3.529  13.515  0.7123 -0.4847  0.1736
18486TIP3    H176873   3.005   3.473  13.578  2.4760 -0.4102 -0.9530
18486TIP3    H276874   2.967   3.481  13.432 -3.2153 -1.4748  0.3441
18487TIP3   OH276875   2.403   6.191   0.013 -0.4169 -0.4877  0.0158
18487TIP3    H176876   2.400   6.286   0.023  0.4894 -0.4205 -0.3825
18487TIP3    H276877   2.312   6.163   0.027 -0.2895  0.1972  2.5310
18488TIP3   OH276878   0.497   2.515   2.973 -0.1970 -0.3477 -0.0637
18488TIP3    H176879   0.584   2.531   2.938 -0.2933  0.6099  0.1283
18488TIP3    H276880   0.470   2.432   2.933  0.8502 -0.7171 -0.0197
18489TIP3   OH276881   0.500   1.263   0.554 -0.0868 -0.2337 -0.4388
18489TIP3    H176882   0.488   1.169   0.541  0.7640 -0.3782 -0.2386
18489TIP3    H276883   0.575   1.269   0.614 -0.4657  0.5549 -0.0402
18490TIP3   OH276884   3.796   2.761   1.527 -0.4007 -0.3031  0.4563
18490TIP3    H176885   3.702   2.745   1.527 -0.8320  1.9913 -0.6903
18490TIP3    H276886   3.823   2.742   1.437 -0.0407  0.4212  0.4055
18491TIP3   OH276887   2.019   4.559   5.250 -0.1615  0.5420  0.0409
18491TIP3    H176888   2.082   4.624   5.220 -0.7516  1.6534  1.1510
18491TIP3    H276889   2.053   4.476   5.217  1.2623  1.2618 -0.3579
18492TIP3   OH276890   5.989   5.899   2.665  0.0042 -0.2030  0.4245
18492TIP3    H176891   5.912   5.952   2.685 -0.3407 -0.7628  0.5861
18492TIP3    H276892   5.988   5.830   2.732  0.2381 -0.6361 -0.0202
18493TIP3   OH276893   2.075   1.819   2.691 -0.3214  0.3899  0.1419
18493TIP3    H176894   2.146   1.774   2.737  0.5674  0.8785 -0.7292
18493TIP3    H276895   2.119   1.867   2.621 -1.4668  1.1210 -0.0801
18494TIP3   OH276896   1.451   0.719   4.344 -0.2356 -0.2627 -0.6230
18494TIP3    H176897   1.430   0.809   4.369  2.1588 -0.0155  0.6563
18494TIP3    H276898   1.373   0.669   4.368 -1.5888  1.4403 -1.3254
18495TIP3   OH276899   2.485   5.874   0.184  0.2088 -0.0683  0.1018
18495TIP3    H176900   2.578   5.851   0.174  0.1581  0.5190 -1.7711
18495TIP3    H276901   2.445   5.850   0.101 -1.1544  0.5033  0.5893
18496TIP3   OH276902   3.496   2.294   6.592 -0.3501  0.3137  0.1253
18496TIP3    H176903   3.565   2.229   6.607 -2.0269 -1.2070  1.4498
18496TIP3    H276904   3.524   2.371   6.642  2.3163  1.1548 -2.5335
18497TIP3   OH276905   0.560   4.067  14.483  0.3922 -0.3476 -0.6181
18497TIP3    H176906   0.630   4.132  14.493  1.0330 -1.0266 -0.6116
18497TIP3    H276907   0.494   4.111  14.431  1.0940  0.1138 -1.1334
18498TIP3   OH276908   6.179   1.234  13.526 -0.0304  0.2755 -0.2472
18498TIP3    H176909   6.135   1.149  13.523 -1.0389  0.7932 -0.5447
18498TIP3    H276910   6.117   1.294  13.483 -0.7056  1.7748  2.6973
18499TIP3   OH276911   1.107   4.718   4.600 -0.5268 -0.1649  0.2003
18499TIP3    H176912   1.140   4.703   4.688 -0.8865 -0.6795  0.2455
18499TIP3    H276913   1.122   4.812   4.585 -1.3184  0.1146  1.1546
18500TIP3   OH276914   3.956   0.872   3.100 -0.4003  0.2885  0.2220
18500TIP3    H176915   3.903   0.850   3.023 -0.4260 -0.6411  0.4942
18500TIP3    H276916   4.046   0.863   3.070 -0.4104 -0.8211  0.4959
18501TIP3   OH276917   2.583   4.780  16.637  0.3472  0.0400  0.6557
18501TIP3    H176918   2.611   4.751  16.724 -1.0586  0.9879  1.4510
18501TIP3    H276919   2.562   4.873  16.649 -1.0168 -0.1161 -0.3914
18502TIP3   OH276920   1.473   6.659  16.707 -0.6573  0.2424 -0.0587
18502TIP3    H176921   1.535   6.697  16.644  0.2041  0.6367  1.0070
18502TIP3    H276922   1.429   6.735  16.745 -0.3360  0.0675  0.6615
18503TIP3   OH276923   3.864   0.569  12.044  0.1911  0.0550 -0.1038
18503TIP3    H176924   3.938   0.592  11.988  0.8426 -0.8245  0.3621
18503TIP3    H276925   3.792   0.624  12.014  1.0016  0.8240 -0.6599
18504TIP3   OH276926   0.756   0.070   6.609  0.5142  0.1602  0.1268
18504TIP3    H176927   0.738  -0.017   6.575  3.2315  0.3759 -1.9978
18504TIP3    H276928   0.704   0.129   6.554  0.3842  0.0717  0.1538
18505TIP3   OH276929   3.666   4.953  15.582 -0.3877 -0.1762 -0.0728
18505TIP3    H176930   3.676   5.024  15.518  1.6948  0.1270  0.5409
18505TIP3    H276931   3.620   4.992  15.655 -0.4467  0.1889 -0.3058
18506TIP3   OH276932   5.692   1.438  11.596  0.3380  0.1359  0.3847
18506TIP3    H176933   5.657   1.382  11.665  2.4907 -1.4202  0.2522
18506TIP3    H276934   5.691   1.384  11.518  1.0342  0.7861 -0.0790
18507TIP3   OH276935   6.341   0.109  13.455 -0.5648 -0.3049 -0.6432
18507TIP3    H176936   6.350   0.057  13.535 -4.4174  2.5473  1.8094
18507TIP3    H276937   6.273   0.064  13.405 -3.3021  1.7365  1.0990
18508TIP3   OH276938   5.199   4.952  11.128 -0.1027  0.3284 -0.4449
18508TIP3    H176939   5.165   4.952  11.218 -0.4326 -0.1551 -0.5699
18508TIP3    H276940   5.284   4.909  11.134  0.5768  1.6868 -0.1040
18509TIP3   OH276941   4.392   2.235  15.042 -0.2075  0.0724 -0.7120
18509TIP3    H176942   4.468   2.288  15.016  0.3572  0.6666  2.0273
18509TIP3    H276943   4.413   2.206  15.130 -3.3910  0.6064  0.2566
18510TIP3   OH276944   3.347   2.715   2.796 -0.3542 -0.1315  0.5935
18510TIP3    H176945   3.321   2.623   2.803 -0.9609 -0.0214 -0.1453
18510TIP3    H276946   3.354   2.744   2.887 -0.5742 -0.7957  0.8291
18511TIP3   OH276947   2.771   0.086  16.142  0.6078  0.2714 -0.4014
18511TIP3    H176948   2.832   0.079  16.069  1.2809  2.7446 -0.1242
18511TIP3    H276949   2.813   0.148  16.202 -1.2889  0.5494  0.6792
18512TIP3   OH276950   4.246   4.151  17.119  0.6711 -0.4096  0.0765
18512TIP3    H176951   4.308   4.082  17.140  0.4865 -1.0564 -1.4273
18512TIP3    H276952   4.165   4.105  17.097  0.3823  0.2970 -0.3819
18513TIP3   OH276953   4.596   0.586  14.343  0.1682 -0.1222 -0.7582
18513TIP3    H176954   4.683   0.625  14.353 -0.1221  0.3096  0.2321
18513TIP3    H276955   4.554   0.600  14.428 -0.4056 -1.4755 -0.8032
18514TIP3   OH276956   4.350   2.962  14.107  0.6170  0.2828  0.2993
18514TIP3    H176957   4.255   2.974  14.110  0.1007 -2.3815 -2.5866
18514TIP3    H276958   4.366   2.886  14.163  0.8993  0.0319 -0.1196
18515TIP3   OH276959   0.103   1.173  14.387 -0.5415 -0.6526  0.2448
18515TIP3    H176960   0.079   1.082  14.374 -1.7026 -0.3449  0.1684
18515TIP3    H276961   0.022   1.216  14.415  0.2875  0.0929  1.5653
18516TIP3   OH276962   0.679   5.119  11.236  0.1206 -0.3383  0.2285
18516TIP3    H176963   0.628   5.053  11.189 -0.7222 -0.4522  1.2800
18516TIP3    H276964   0.770   5.093  11.224 -0.1817 -1.4297  0.2641
18517TIP3   OH276965   1.747   2.171   2.565 -0.0906  0.0572 -0.1153
18517TIP3    H176966   1.816   2.237   2.570 -0.1044  0.4138 -3.6075
18517TIP3    H276967   1.786   2.100   2.514 -1.4789 -0.8167  0.0105
18518TIP3   OH276968   3.337   5.892   1.797  0.1623 -0.4336  0.5001
18518TIP3    H176969   3.255   5.913   1.842  0.8335  1.3654  0.9317
18518TIP3    H276970   3.396   5.866   1.867  0.5864  0.3496  0.4415
18519TIP3   OH276971   6.656   2.020   5.157  0.4029 -0.1115 -0.0016
18519TIP3    H176972   6.619   1.945   5.112 -0.9219 -0.0994  1.0405
18519TIP3    H276973   6.698   1.983   5.235 -2.0134  0.4040  1.5938
18520TIP3   OH276974   3.159   6.593  10.603 -0.0483  0.0836  0.2104
18520TIP3    H176975   3.089   6.580  10.538 -0.5620 -2.2203  1.1609
18520TIP3    H276976   3.166   6.688  10.612 -0.1824  0.4674 -2.9725
18521TIP3   OH276977   0.284   3.920  16.678 -0.1027 -0.1807 -0.0867
18521TIP3    H176978   0.293   4.016  16.682 -1.4377  0.0891 -2.7862
18521TIP3    H276979   0.372   3.889  16.657  0.0714  0.5368 -0.4419
18522TIP3   OH276980   2.224   3.201   1.970  0.0682  0.3229  0.4814
18522TIP3    H176981   2.237   3.289   1.935  0.1982  0.3426  0.5775
18522TIP3    H276982   2.173   3.213   2.049  1.4673  0.4718  1.3827
18523TIP3   OH276983   0.898   4.054  11.412  0.1008  0.7947  0.2277
18523TIP3    H176984   0.835   4.054  11.484  0.3378 -1.5152  0.4582
18523TIP3    H276985   0.982   4.070  11.455 -0.0498  1.8077  0.1610
18524TIP3   OH276986   5.446   2.815  16.401 -0.6245 -0.1368  0.3306
18524TIP3    H176987   5.470   2.904  16.374  1.2560 -0.4754  0.7580
18524TIP3    H276988   5.524   2.762  16.381 -1.8935 -1.7872 -0.3714
18525TIP3   OH276989   6.711   5.583  12.808  0.0286 -0.4417  0.0977
18525TIP3    H176990   6.701   5.497  12.848 -1.0423 -0.5975 -0.4882
18525TIP3    H276991   6.804   5.589  12.785  0.1004 -1.4415  0.1360
18526TIP3   OH276992   0.544   3.585  11.698  0.2452 -0.6161  0.0553
18526TIP3    H176993   0.597   3.607  11.622 -1.2139  0.2269 -0.7606
18526TIP3    H276994   0.548   3.490  11.705 -0.9287 -0.8647 -2.0982
18527TIP3   OH276995   2.017   5.280   0.332 -0.0447  0.4304 -0.0956
18527TIP3    H176996   1.988   5.339   0.402  1.3525  0.0487  0.8324
18527TIP3    H276997   1.937   5.242   0.297 -0.7260  0.0673  1.8073
18528TIP3   OH276998   4.092   2.893   5.298 -0.1856 -0.2342 -0.3169
18528TIP3    H176999   4.150   2.951   5.346 -1.3669 -0.7368  1.7594
18528TIP3    H277000   4.086   2.932   5.211  0.5156  1.7216  0.4901
18529TIP3   OH277001   2.066   0.101  12.010  0.2971 -0.4736 -0.4740
18529TIP3    H177002   2.024   0.019  12.033  1.3076 -0.5589  1.1324
18529TIP3    H277003   2.114   0.127  12.089 -1.2286  2.4337 -0.4072
18530TIP3   OH277004   4.310   3.841   5.654  0.5419 -0.5899  0.0239
18530TIP3    H177005   4.365   3.919   5.651 -1.3437  0.8077  0.9016
18530TIP3    H277006   4.326   3.803   5.740  1.4045 -1.1228 -0.3739
18531TIP3   OH277007   2.231   5.105  12.480 -0.1917  0.0425  0.7844
18531TIP3    H177008   2.304   5.124  12.421  0.0701  1.9048  1.6714
18531TIP3    H277009   2.162   5.071  12.424  0.2809  1.1908 -0.4975
18532TIP3   OH277010   6.622   0.918   2.571  0.1743 -0.4544 -0.1251
18532TIP3    H177011   6.540   0.951   2.534  0.7526 -0.8604 -1.8196
18532TIP3    H277012   6.689   0.940   2.506  1.4501 -0.0071  1.3017
18533TIP3   OH277013   0.044   2.121  10.615  0.0780 -0.5448  0.0722
18533TIP3    H177014   0.129   2.107  10.572 -1.0314 -0.1769 -2.3649
18533TIP3    H277015   0.065   2.173  10.693  2.0927 -0.4650 -0.4788
18534TIP3   OH277016   4.069   4.567  17.015  0.0363  0.6171  0.7748
18534TIP3    H177017   4.062   4.478  16.981 -1.4612  0.8424  0.4843
18534TIP3    H277018   4.105   4.556  17.103  1.4134 -0.1506  0.1358
18535TIP3   OH277019   4.051   5.999   4.017  0.1660 -0.3824 -0.3367
18535TIP3    H177020   4.129   6.022   4.069  1.6742  0.8341 -3.0134
18535TIP3    H277021   4.061   5.905   4.000  0.1017 -0.6088  0.8147
18536TIP3   OH277022   2.889   6.394  16.713 -0.8473 -0.1524  0.0347
18536TIP3    H177023   2.845   6.316  16.680 -0.2684 -0.2139 -0.6043
18536TIP3    H277024   2.819   6.458  16.724 -1.2870 -0.6687  0.3073
18537TIP3   OH277025   1.862   2.745   3.496 -0.3230  0.1400  0.0154
18537TIP3    H177026   1.952   2.729   3.468  0.0529 -0.2212  1.4073
18537TIP3    H277027   1.870   2.807   3.568 -1.2032  0.2162  0.0478
18538TIP3   OH277028   2.269   5.676   5.320  0.1014 -0.8444  0.2751
18538TIP3    H177029   2.310   5.709   5.241 -2.3576 -4.1907 -2.5537
18538TIP3    H277030   2.292   5.583   5.323 -2.9769 -1.6366  1.3514
18539TIP3   OH277031   4.231   1.254  15.364 -0.0877  0.1783  0.1608
18539TIP3    H177032   4.257   1.282  15.452 -0.4537  0.1255  0.2863
18539TIP3    H277033   4.139   1.229  15.373 -0.1646  0.3038 -0.2661
18540TIP3   OH277034   4.016   6.606   5.401 -0.8233  0.2130 -0.3103
18540TIP3    H177035   3.997   6.524   5.356 -0.7248  0.4490 -0.7925
18540TIP3    H277036   4.072   6.581   5.475  0.2287 -0.0102 -1.1607
18541TIP3   OH277037   3.088   4.585  13.686  0.3385  0.3875  0.6063
18541TIP3    H177038   2.992   4.591  13.686  0.4419  2.1547  2.0675
18541TIP3    H277039   3.114   4.616  13.599 -0.4263 -0.7045 -0.0346
18542TIP3   OH277040   2.976   5.699   2.571 -0.1800  0.0121  0.3029
18542TIP3    H177041   3.061   5.707   2.615 -1.2405  0.7437  2.3414
18542TIP3    H277042   2.923   5.767   2.613 -1.2415  0.7766 -2.2277
18543TIP3   OH277043   3.239   0.084  14.033  0.8667  0.0577  0.1309
18543TIP3    H177044   3.316   0.028  14.030  1.8692  1.3659  0.4822
18543TIP3    H277045   3.239   0.130  13.949  0.1705 -0.3165 -0.0754
18544TIP3   OH277046   3.682   3.414  16.416 -0.0323  0.0084  0.0875
18544TIP3    H177047   3.682   3.486  16.478  0.5345 -0.4151  0.5902
18544TIP3    H277048   3.766   3.370  16.431  0.4271  0.3243 -1.4632
18545TIP3   OH277049   1.871   4.717  11.178  0.6210  0.6735 -0.0319
18545TIP3    H177050   1.841   4.626  11.169  0.8888  0.0323  4.3644
18545TIP3    H277051   1.844   4.759  11.097 -0.6826 -3.0082 -1.6373
18546TIP3   OH277052   2.554   2.441  14.834 -0.4090 -0.0809 -0.1545
18546TIP3    H177053   2.620   2.505  14.860 -0.9127  1.1731 -1.8460
18546TIP3    H277054   2.499   2.430  14.911  0.3269  0.6958  0.4932
18547TIP3   OH277055   1.828   1.606   2.689 -0.4645 -0.0292  0.3085
18547TIP3    H177056   1.885   1.649   2.626 -0.4581 -1.4301 -0.6658
18547TIP3    H277057   1.739   1.624   2.657 -0.4719 -0.4279  0.1001
18548TIP3   OH277058   2.779   4.200   1.608 -0.1846 -0.2158 -0.6331
18548TIP3    H177059   2.873   4.184   1.595 -0.2509 -1.5525  0.5258
18548TIP3    H277060   2.773   4.295   1.616  1.1133 -0.1398 -0.3399
18549TIP3   OH277061   3.237   3.570   4.572  0.3047  0.4617 -0.4046
18549TIP3    H177062   3.183   3.587   4.649  1.0184  0.8411  0.0168
18549TIP3    H277063   3.281   3.653   4.555  1.3882 -0.0815 -0.2487
18550TIP3   OH277064   6.524   6.409  16.590  0.3713 -0.2543  0.6612
18550TIP3    H177065   6.459   6.433  16.655  0.5775 -2.3022  1.6472
18550TIP3    H277066   6.608   6.419  16.635  0.5745 -0.6203  0.3660
18551TIP3   OH277067   6.572   4.831   2.210  0.3846  0.2497  0.5132
18551TIP3    H177068   6.642   4.782   2.254 -0.2174 -0.0438  1.1490
18551TIP3    H277069   6.557   4.906   2.266 -1.6741 -1.0974  1.8042
18552TIP3   OH277070   3.505   0.991  14.059  0.0220  0.1154  0.1542
18552TIP3    H177071   3.455   1.008  13.979  1.8424 -0.4693 -1.1464
18552TIP3    H277072   3.597   0.997  14.032  0.6683  1.0298  2.4669
18553TIP3   OH277073   4.902   6.716  12.681  0.0667 -0.0717 -0.6589
18553TIP3    H177074   4.880   6.796  12.727  0.7104  0.4484 -1.2472
18553TIP3    H277075   4.871   6.731  12.591  1.6566  0.1709 -1.1807
18554TIP3   OH277076   1.394   1.353  10.657 -0.0112  1.0090  0.1368
18554TIP3    H177077   1.319   1.319  10.608  0.4088 -0.0341  0.2113
18554TIP3    H277078   1.464   1.290  10.641  1.2075  2.5743 -0.8635
18555TIP3   OH277079   6.491   4.332  15.183 -0.6978  0.2314 -0.9527
18555TIP3    H177080   6.572   4.350  15.231 -1.2452  0.7266 -0.1936
18555TIP3    H277081   6.478   4.409  15.128 -0.6438  0.1501 -1.0783
18556TIP3   OH277082   3.249   0.628  12.377 -0.3339  0.3949 -0.0021
18556TIP3    H177083   3.214   0.603  12.291 -1.0224  2.3738 -0.3212
18556TIP3    H277084   3.279   0.545  12.415  1.1084 -0.3767 -2.6481
18557TIP3   OH277085   6.253   4.331  10.788  0.5866 -0.1951  0.1824
18557TIP3    H177086   6.203   4.406  10.756  0.7714  0.2287  0.8799
18557TIP3    H277087   6.341   4.365  10.801  0.1413  0.0954  2.7457
18558TIP3   OH277088   3.633   1.042   4.018  0.1360  0.0431 -0.1745
18558TIP3    H177089   3.612   0.957   3.981 -0.4929 -0.1928  0.7190
18558TIP3    H277090   3.649   1.098   3.942  0.1760 -0.7746 -0.7670
18559TIP3   OH277091   5.911   2.288   0.595 -0.8540  0.0897  0.0234
18559TIP3    H177092   5.935   2.334   0.515  1.1479 -1.5021 -0.3202
18559TIP3    H277093   5.819   2.263   0.581 -1.3740  2.2485 -0.5776
18560TIP3   OH277094   0.733   1.803   5.880  0.2763  0.5990 -0.2028
18560TIP3    H177095   0.810   1.819   5.826  0.1987  1.7403  0.0174
18560TIP3    H277096   0.710   1.712   5.862  0.9628  0.6110 -1.1809
18561TIP3   OH277097   2.826   0.709   2.475 -0.2781  0.2138 -0.3373
18561TIP3    H177098   2.867   0.788   2.441 -3.0766  1.1814 -1.6024
18561TIP3    H277099   2.813   0.653   2.398 -1.1344 -0.1492  0.0598
18562TIP3   OH277100   0.866   3.710  15.337  0.6974 -0.2779 -0.2451
18562TIP3    H177101   0.930   3.720  15.408 -0.5546  1.6030  0.6883
18562TIP3    H277102   0.817   3.632  15.360  1.1473 -0.4136  0.2847
18563TIP3   OH277103   2.484   4.953   0.685  0.0216 -0.2158  0.5009
18563TIP3    H177104   2.487   5.000   0.602 -1.9461  0.4772  0.7924
18563TIP3    H277105   2.437   4.872   0.666  3.2982 -2.1059  0.0296
18564TIP3   OH277106   6.645   3.815  15.042  0.2521  0.2292 -0.2530
18564TIP3    H177107   6.703   3.876  15.086  1.8813 -0.5288 -1.2962
18564TIP3    H277108   6.651   3.838  14.949 -0.1629 -0.6418 -0.5042
18565TIP3   OH277109   4.401   2.807   1.899 -0.2409  0.5099  0.4978
18565TIP3    H177110   4.468   2.777   1.838 -1.7600 -1.1076 -0.4435
18565TIP3    H277111   4.426   2.767   1.983  0.5025  0.7153  0.3781
18566TIP3   OH277112   6.613   5.481   4.636 -0.0804  0.8262 -0.3226
18566TIP3    H177113   6.666   5.459   4.560  1.0268  1.3142  0.3024
18566TIP3    H277114   6.630   5.411   4.699 -0.3852  0.8420 -0.2179
18567TIP3   OH277115   0.158   5.567  12.436  0.3479 -0.1419  0.8103
18567TIP3    H177116   0.158   5.472  12.440 -0.4010 -0.2160 -0.4067
18567TIP3    H277117   0.067   5.590  12.417  0.7171  0.7528  0.0864
18568TIP3   OH277118   5.684   4.965   4.037 -0.4235  0.4921 -0.6535
18568TIP3    H177119   5.627   4.894   4.067 -0.7071  0.6459 -0.8235
18568TIP3    H277120   5.771   4.925   4.034  0.0438  1.1240  2.6614
18569TIP3   OH277121   6.243   3.643   2.834  0.3016 -0.4553  0.0249
18569TIP3    H177122   6.337   3.628   2.849  0.2690 -2.4767 -1.5626
18569TIP3    H277123   6.239   3.727   2.788  1.2710  0.0635  0.8820
18570TIP3   OH277124   3.937   4.031   3.964  0.0983 -0.1568  0.1170
18570TIP3    H177125   3.947   4.108   3.908  1.3181  0.9950  1.8618
18570TIP3    H277126   3.842   4.019   3.972 -0.1184  1.6278  0.4109
18571TIP3   OH277127   4.008   5.722   4.025 -0.5430 -0.4592 -0.6113
18571TIP3    H177128   4.013   5.665   3.948 -0.1192 -1.4382  0.1293
18571TIP3    H277129   4.011   5.662   4.099  0.9039  0.5786  0.2048
18572TIP3   OH277130   2.952   5.964   4.004  0.3643  0.2048  0.6441
18572TIP3    H177131   2.980   6.041   4.053  1.0532  0.3707 -0.0040
18572TIP3    H277132   2.994   5.891   4.049 -0.2950  0.1996  1.2620
18573TIP3   OH277133   6.006   6.581  14.505 -0.7789 -0.2376  0.1024
18573TIP3    H177134   5.990   6.487  14.497 -0.7454 -0.1212 -1.5652
18573TIP3    H277135   5.987   6.616  14.418 -0.0367  1.1888  0.4924
18574TIP3   OH277136   6.487   6.687   6.126  0.0380 -0.5084  0.3236
18574TIP3    H177137   6.501   6.593   6.127  2.1709 -0.2547 -2.2480
18574TIP3    H277138   6.474   6.709   6.034 -1.6511  1.5603  1.0133
18575TIP3   OH277139   1.724   1.822  14.692 -0.4797 -0.0582  0.0204
18575TIP3    H177140   1.728   1.787  14.603 -0.0843  0.7647 -0.2913
18575TIP3    H277141   1.808   1.867  14.704 -0.0735 -1.0739  1.1943
18576TIP3   OH277142   2.795   1.252   3.471  1.2349 -0.0801 -0.4682
18576TIP3    H177143   2.805   1.303   3.391  0.2121 -0.3344 -0.7590
18576TIP3    H277144   2.883   1.222   3.492  1.9411  2.1891 -0.0521
18577TIP3   OH277145   0.727   6.154  11.446 -0.1707 -0.4941  0.1223
18577TIP3    H177146   0.755   6.244  11.429 -0.9476 -0.5572 -1.5699
18577TIP3    H277147   0.639   6.163  11.483 -1.5479 -0.6431 -2.9596
18578TIP3   OH277148   6.675   0.978  10.838  0.2310 -0.1743  0.0072
18578TIP3    H177149   6.746   0.913  10.842 -1.1350 -1.7146 -0.3943
18578TIP3    H277150   6.720   1.062  10.837  2.1132 -1.1593 -1.4031
18579TIP3   OH277151   4.901   5.608   2.472  0.2916  0.5836 -0.6601
18579TIP3    H177152   4.872   5.667   2.403  0.6906 -1.1837 -2.3939
18579TIP3    H277153   4.838   5.620   2.543 -0.5516  1.8990 -1.6155
18580TIP3   OH277154   5.176   1.399  10.981  0.1664  0.2287 -0.4628
18580TIP3    H177155   5.174   1.311  10.942  0.5269 -1.3223  2.8492
18580TIP3    H277156   5.259   1.403  11.027 -0.4842  1.7506  0.6118
18581TIP3   OH277157   0.802   5.187   2.109  0.2293 -0.4621  0.3949
18581TIP3    H177158   0.756   5.265   2.079 -1.1072 -1.1973  0.4848
18581TIP3    H277159   0.777   5.119   2.047 -1.7060 -1.7475  2.5049
18582TIP3   OH277160   1.854   4.801   2.169  0.6351 -0.1968 -0.6092
18582TIP3    H177161   1.857   4.764   2.081 -0.1478 -1.3731 -0.1449
18582TIP3    H277162   1.805   4.883   2.159 -2.7393 -2.1456 -0.6434
18583TIP3   OH277163   6.422   5.809   2.418  0.2095  0.0081 -0.5128
18583TIP3    H177164   6.496   5.811   2.357  0.6449  0.4482  0.0247
18583TIP3    H277165   6.399   5.901   2.431  1.0256 -0.0022  1.0748
18584TIP3   OH277166   6.401   3.006  16.116 -0.2452  0.4697 -0.8849
18584TIP3    H177167   6.443   3.048  16.040 -0.7940  1.0368 -0.8781
18584TIP3    H277168   6.408   3.070  16.186  0.3715 -0.1064 -0.4168
18585TIP3   OH277169   6.506   3.039   0.369  0.3382  0.2289 -0.0060
18585TIP3    H177170   6.488   3.131   0.386  0.3950  0.2823 -0.2266
18585TIP3    H277171   6.471   2.992   0.444 -0.1270  0.3876 -0.1269
18586TIP3   OH277172   0.550   2.226  16.229  0.1425 -0.5407  0.2162
18586TIP3    H177173   0.617   2.160  16.212 -1.6891 -2.2968 -0.3455
18586TIP3    H277174   0.599   2.308  16.237  2.2701 -1.6309 -1.0856
18587TIP3   OH277175   5.169   1.275  12.825 -0.0034 -0.6076  0.2357
18587TIP3    H177176   5.122   1.215  12.767  0.8088 -0.2605 -0.7906
18587TIP3    H277177   5.237   1.221  12.865  0.3426 -0.5180 -0.2281
18588TIP3   OH277178   2.478   1.072  13.077 -0.0745  0.3569  0.2361
18588TIP3    H177179   2.569   1.082  13.049 -0.1774  0.4268 -0.0737
18588TIP3    H277180   2.483   1.059  13.172  0.2643  0.2693  0.2070
18589TIP3   OH277181   6.317   3.521   1.788 -0.1608 -0.0396 -0.0298
18589TIP3    H177182   6.265   3.601   1.774 -0.3384 -0.0051  0.8257
18589TIP3    H277183   6.398   3.537   1.741 -1.6166 -0.8103 -2.9293
18590TIP3   OH277184   6.718   4.385  15.532 -0.0764 -0.2415 -0.5269
18590TIP3    H177185   6.633   4.343  15.542 -0.2091  0.0065 -0.6181
18590TIP3    H277186   6.774   4.342  15.597 -0.1348 -0.7651 -0.8179
18591TIP3   OH277187   5.061   0.996   3.401 -0.3087  0.1052  0.6456
18591TIP3    H177188   5.155   1.017   3.396 -0.5751  1.0699 -0.4789
18591TIP3    H277189   5.031   1.043   3.479  0.1678 -0.3220  1.0899
18592TIP3   OH277190   0.460   5.441   4.750  0.2216  0.2686  0.1031
18592TIP3    H177191   0.484   5.372   4.688 -0.3560 -0.8888  1.1418
18592TIP3    H277192   0.409   5.396   4.818  0.4623  1.5844  1.1879
18593TIP3   OH277193   4.919   4.758  15.803 -0.2690 -0.3959 -0.0060
18593TIP3    H177194   4.969   4.790  15.878 -2.8968 -0.4484  1.8444
18593TIP3    H277195   4.964   4.678  15.776 -0.1823 -1.2536  2.5414
18594TIP3   OH277196   5.560   2.617   6.410  0.1117  0.6994  0.4321
18594TIP3    H177197   5.477   2.571   6.398  0.2834  0.2889  0.7977
18594TIP3    H277198   5.562   2.641   6.503  1.5340 -1.5300  1.0222
18595TIP3   OH277199   2.669   6.370   1.257  0.1979  0.0402  0.7848
18595TIP3    H177200   2.756   6.333   1.245 -0.1637  0.1705 -2.6093
18595TIP3    H277201   2.610   6.294   1.256 -0.0268  0.2269 -0.3700
18596TIP3   OH277202   6.473   6.053  15.004  0.1916  0.1070 -0.8448
18596TIP3    H177203   6.529   6.112  14.954  3.0810 -0.1711  1.8925
18596TIP3    H277204   6.504   6.060  15.094 -2.3137 -2.2776  0.3081
18597TIP3   OH277205   0.212   2.994   0.987  0.2064  0.4107 -0.6451
18597TIP3    H177206   0.262   3.068   1.022 -1.1001  1.5826 -1.2049
18597TIP3    H277207   0.267   2.960   0.916  1.4529 -0.0470  0.5195
18598TIP3   OH277208   1.612   3.202  11.857 -0.9418  0.0829  0.4150
18598TIP3    H177209   1.696   3.164  11.881 -0.8625 -0.9353 -1.4194
18598TIP3    H277210   1.634   3.280  11.805 -1.1217 -0.6539 -0.7781
18599TIP3   OH277211   3.499   0.700  13.121 -0.0562  0.0497  0.2152
18599TIP3    H177212   3.562   0.643  13.164 -0.8149 -0.4773  0.6468
18599TIP3    H277213   3.516   0.689  13.028  1.0982  0.6255  0.3459
18600TIP3   OH277214   2.520   5.272   2.863 -0.1940  0.2645 -0.2114
18600TIP3    H177215   2.524   5.190   2.814  0.4429  0.1210  0.0758
18600TIP3    H277216   2.577   5.332   2.814 -0.2345  0.3763 -0.1218
18601TIP3   OH277217   3.563   4.178  15.914  0.2819 -0.3699 -0.2364
18601TIP3    H177218   3.469   4.173  15.899  0.2546 -1.2946  0.2122
18601TIP3    H277219   3.595   4.089  15.894  0.8939 -0.3620  0.6924
18602TIP3   OH277220   2.151   4.866  12.280 -0.2961 -0.1169 -0.3261
18602TIP3    H177221   2.070   4.838  12.237  0.2599 -1.5915 -0.4106
18602TIP3    H277222   2.219   4.812  12.241  0.6909  0.8532  0.0326
18603TIP3   OH277223   1.993   3.784  14.614  0.5014 -0.6864  0.5923
18603TIP3    H177224   1.903   3.795  14.642  0.4223 -0.0063  0.0912
18603TIP3    H277225   2.001   3.691  14.594  0.0993 -0.8720  1.2581
18604TIP3   OH277226   6.474   6.558  15.329 -0.0127  0.0456  0.0986
18604TIP3    H177227   6.398   6.521  15.373  1.8374 -4.2854 -0.0457
18604TIP3    H277228   6.487   6.643  15.370 -4.9482  0.9808 -0.0254
18605TIP3   OH277229   1.144   6.205  13.124 -0.0505 -0.5917 -0.3172
18605TIP3    H177230   1.147   6.301  13.124 -2.5429 -0.4704  1.2827
18605TIP3    H277231   1.051   6.184  13.134  0.5044 -3.1707 -0.3185
18606TIP3   OH277232   4.986   0.282   3.340 -0.0231  0.7405 -0.7626
18606TIP3    H177233   4.995   0.239   3.256 -0.0742 -0.8098  0.0116
18606TIP3    H277234   5.037   0.229   3.401  0.5961  2.2300  0.0615
18607TIP3   OH277235   2.492   5.014  15.272 -0.2073 -0.0089 -0.4019
18607TIP3    H177236   2.416   5.054  15.231  0.0228 -1.2794 -2.0774
18607TIP3    H277237   2.459   4.934  15.312  0.0235  0.0703 -0.0471
18608TIP3   OH277238   2.057   0.456  10.639  0.2193  0.1270 -0.2728
18608TIP3    H177239   2.115   0.513  10.587  1.3657 -0.6671  0.1092
18608TIP3    H277240   2.069   0.369  10.601  0.2057 -0.2538  0.5954
18609TIP3   OH277241   4.837   5.957  16.081  0.0478 -0.0193 -0.1516
18609TIP3    H177242   4.893   5.880  16.080  0.6971  0.4655 -1.6048
18609TIP3    H277243   4.896   6.031  16.065 -0.7900  0.6389 -0.2547
18610TIP3   OH277244   5.481   5.817  13.746 -0.3852  0.3497  0.0186
18610TIP3    H177245   5.518   5.817  13.658 -1.9952  2.1990 -0.6676
18610TIP3    H277246   5.557   5.824  13.804  0.5340  1.0450 -1.2712
18611TIP3   OH277247   1.879   2.481  13.328  0.7381  0.1802 -0.1065
18611TIP3    H177248   1.822   2.466  13.253 -0.5849 -0.0378  0.9210
18611TIP3    H277249   1.852   2.415  13.393  2.8493 -0.5967  0.0252
18612TIP3   OH277250   1.027   2.623   5.801 -0.2522  0.2135 -0.4256
18612TIP3    H177251   1.052   2.583   5.884 -2.0786 -0.5159 -0.2121
18612TIP3    H277252   1.100   2.681   5.780  1.7476 -2.0847  0.0083
18613TIP3   OH277253   1.449   1.542   5.459 -0.4816 -0.5206 -0.0399
18613TIP3    H177254   1.521   1.484   5.486 -0.8265 -0.6543  0.6064
18613TIP3    H277255   1.460   1.620   5.513 -1.0460 -0.6973  0.3326
18614TIP3   OH277256   3.136   2.116   6.893 -0.3594  0.5669  0.0377
18614TIP3    H177257   3.184   2.198   6.887  1.2572 -0.2463  1.4760
18614TIP3    H277258   3.197   2.055   6.934 -1.4485 -1.4331 -1.2574
18615TIP3   OH277259   1.862   0.908  17.141 -0.3497  0.7197  0.0448
18615TIP3    H177260   1.866   0.829  17.195 -1.8262  0.0924 -0.7392
18615TIP3    H277261   1.875   0.980  17.203 -0.7721 -0.0545  1.0494
18616TIP3   OH277262   1.171   3.045  10.868  0.0429  0.4169 -0.0307
18616TIP3    H177263   1.089   3.026  10.823  0.8208  0.7264 -1.6491
18616TIP3    H277264   1.224   2.966  10.855  0.4358  0.6806 -0.0344
18617TIP3   OH277265   6.737   4.532   3.636 -0.2876 -0.1093  0.0722
18617TIP3    H177266   6.720   4.524   3.543 -3.1760  1.2873  0.4368
18617TIP3    H277267   6.700   4.453   3.675  2.5609 -1.5929 -0.1148
18618TIP3   OH277268   4.784   6.596  15.876 -0.0528 -0.7746  0.0946
18618TIP3    H177269   4.699   6.606  15.918 -1.0010  0.3971 -2.0110
18618TIP3    H277270   4.839   6.664  15.915 -0.0608 -1.5683  1.4976
18619TIP3   OH277271   0.329   2.101  15.751 -0.2418 -0.2630  0.2198
18619TIP3    H177272   0.366   2.090  15.664 -0.7023 -0.8324  0.0929
18619TIP3    H277273   0.311   2.195  15.758  4.6020  0.6807  1.6757
18620TIP3   OH277274   5.179   5.293   0.258 -0.0501  0.7047 -0.2323
18620TIP3    H177275   5.141   5.205   0.263  0.2588  0.6581  1.5975
18620TIP3    H277276   5.110   5.351   0.290 -0.3758  1.1770 -1.7640
18621TIP3   OH277277   5.312   5.425   4.078 -0.1740  0.0633  0.0216
18621TIP3    H177278   5.336   5.342   4.037 -1.5373  0.1083 -0.9262
18621TIP3    H277279   5.322   5.490   4.008  0.2959  0.6021  0.5882
18622TIP3   OH277280   1.633   1.636   0.255 -0.2570 -0.1899  0.7078
18622TIP3    H177281   1.654   1.547   0.229  2.2482  0.4902  0.2607
18622TIP3    H277282   1.718   1.676   0.276 -1.0743  2.6946 -1.1324
18623TIP3   OH277283   4.659   3.668  15.722  0.0662  0.3333  0.2390
18623TIP3    H177284   4.622   3.743  15.675 -1.2605 -1.1820 -1.1879
18623TIP3    H277285   4.606   3.661  15.802 -0.2618  0.4986  0.0359
18624TIP3   OH277286   4.419   4.886   2.231  0.4371  0.4173 -0.3160
18624TIP3    H177287   4.504   4.891   2.274  0.4487 -2.3726  0.1293
18624TIP3    H277288   4.359   4.857   2.300 -0.8773  2.3432 -0.6260
18625TIP3   OH277289   3.682   3.073  13.145 -0.3708  0.3372 -0.1799
18625TIP3    H177290   3.760   3.058  13.198  0.7880 -0.0444 -1.9143
18625TIP3    H277291   3.671   3.169  13.145  0.8582  0.4895 -0.9424
18626TIP3   OH277292   2.571   2.115  16.688 -0.1094  0.0970  0.3959
18626TIP3    H177293   2.540   2.037  16.642 -0.5139 -0.7569  2.0674
18626TIP3    H277294   2.644   2.147  16.635 -1.8606  0.3647 -1.9367
18627TIP3   OH277295   1.056   6.768   3.931 -0.1814  0.0843 -0.0389
18627TIP3    H177296   0.977   6.719   3.953 -1.2142  1.3545 -0.8697
18627TIP3    H277297   1.071   6.825   4.007  0.0820 -0.3478  0.2311
18628TIP3   OH277298   4.746   2.858  14.732  0.2004 -0.1084  0.1062
18628TIP3    H177299   4.733   2.950  14.709 -0.1420 -0.2208 -0.1576
18628TIP3    H277300   4.686   2.844  14.805 -0.0619 -0.2339 -0.1315
18629TIP3   OH277301   1.427   1.053   0.308 -0.1699  0.6376 -0.4350
18629TIP3    H177302   1.515   1.077   0.281 -0.1095  1.3294  0.3544
18629TIP3    H277303   1.414   0.965   0.272  1.2736  0.0537  0.4479
18630TIP3   OH277304   0.255   6.478   6.235 -0.2403 -0.1706 -0.2311
18630TIP3    H177305   0.187   6.438   6.181  0.3899  0.1163 -1.2485
18630TIP3    H277306   0.266   6.417   6.308  0.2520 -1.5714 -1.4294
18631TIP3   OH277307   6.190   4.818  17.206  0.5222  0.1875 -0.0367
18631TIP3    H177308   6.248   4.742  17.194 -0.7651 -0.6350 -1.1181
18631TIP3    H277309   6.168   4.846  17.117  0.7202  1.6460  0.3586
18632TIP3   OH277310   2.952   2.415  14.820 -0.2792 -0.5042 -0.0210
18632TIP3    H177311   2.894   2.361  14.767 -0.8633  0.6168 -0.5544
18632TIP3    H277312   3.006   2.462  14.757 -1.6992  1.6393  0.2641
18633TIP3   OH277313   0.757   6.062   2.187  0.8426 -0.6069  1.0486
18633TIP3    H177314   0.790   6.144   2.224  1.5568 -0.9483  1.1693
18633TIP3    H277315   0.735   6.009   2.263  0.6849 -0.6557  0.9706
18634TIP3   OH277316   1.634   1.947   2.738  0.2616  0.1213  0.3046
18634TIP3    H177317   1.712   1.908   2.777  0.3725 -0.3717 -0.3884
18634TIP3    H277318   1.624   1.900   2.654 -0.2336  0.8323 -0.0341
18635TIP3   OH277319   2.481   0.613  15.563 -0.5993 -0.1305  0.1317
18635TIP3    H177320   2.433   0.672  15.622 -0.7097  0.0990 -0.1858
18635TIP3    H277321   2.569   0.652  15.557 -1.3714  1.4300 -2.0436
18636TIP3   OH277322   6.382   3.566   2.406  0.4822  0.2744 -0.3826
18636TIP3    H177323   6.297   3.610   2.399  0.1383 -0.4967 -1.1605
18636TIP3    H277324   6.397   3.528   2.319  2.0765  1.2036 -0.5388
18637TIP3   OH277325   4.183   3.915   5.273  0.2508  0.2273  0.2220
18637TIP3    H177326   4.144   3.849   5.330 -0.5425  1.8488  1.5930
18637TIP3    H277327   4.263   3.873   5.240 -0.2297 -1.4033  1.0554
18638TIP3   OH277328   3.719   3.468  12.852  0.8164 -0.2474 -0.4591
18638TIP3    H177329   3.631   3.431  12.857  1.2784 -1.1166  3.0801
18638TIP3    H277330   3.776   3.393  12.833  1.1750 -0.5082  1.4487
18639TIP3   OH277331   2.919   2.868   2.977  0.1393  0.1203 -0.3456
18639TIP3    H177332   2.988   2.923   3.015  0.2765 -0.2911 -0.0015
18639TIP3    H277333   2.964   2.786   2.955 -0.3638 -0.3687  0.4208
18640TIP3   OH277334   3.367   0.404  10.903  0.4582 -0.0707  0.0247
18640TIP3    H177335   3.397   0.430  10.990 -2.3547 -3.9602  2.3390
18640TIP3    H277336   3.439   0.352  10.867  0.3169 -1.3407  1.5249
18641TIP3   OH277337   6.544   6.045  13.456  0.3450 -0.2132 -0.5384
18641TIP3    H177338   6.562   5.956  13.424  0.1192 -0.1972 -0.7104
18641TIP3    H277339   6.624   6.071  13.500  0.5904 -0.3112 -0.9237
18642TIP3   OH277340   3.027   1.808   6.761 -0.3016 -0.1418 -0.1074
18642TIP3    H177341   3.083   1.773   6.831  0.2829  1.0031  0.0183
18642TIP3    H277342   2.938   1.781   6.785  0.0583 -0.9187  0.3551
18643TIP3   OH277343   6.123   1.377  15.913 -0.0983 -0.5427 -0.5187
18643TIP3    H177344   6.034   1.400  15.885  0.0146 -0.5222 -0.8635
18643TIP3    H277345   6.115   1.288  15.946 -0.7667  0.3743  1.8830
18644TIP3   OH277346   2.172   5.199   2.868  0.1529 -0.1428 -0.2471
18644TIP3    H177347   2.185   5.236   2.780  2.6206 -1.5222 -0.5142
18644TIP3    H277348   2.252   5.221   2.915  0.0906 -1.9272  0.7320
18645TIP3   OH277349   1.686   4.460  13.307  0.5485  0.9307  0.1873
18645TIP3    H177350   1.758   4.465  13.370  1.5530 -0.1542 -0.8599
18645TIP3    H277351   1.651   4.371  13.317 -0.2105  1.2252  0.2142
18646TIP3   OH277352   5.930   4.300   3.059  1.0052  0.3297  0.0425
18646TIP3    H177353   5.953   4.334   2.972  0.5468  0.0095 -0.2057
18646TIP3    H277354   6.007   4.319   3.113  0.5055  2.3555  0.0811
18647TIP3   OH277355   6.369   5.438  11.696 -0.1159  0.3554  0.2364
18647TIP3    H177356   6.347   5.386  11.618  0.7390  1.0036 -0.4422
18647TIP3    H277357   6.353   5.529  11.669 -0.8462  0.5004  1.1657
18648TIP3   OH277358   5.974   4.454  15.626 -0.7345 -0.3754  0.0565
18648TIP3    H177359   6.050   4.498  15.589  0.7440 -1.5705  1.5593
18648TIP3    H277360   5.917   4.435  15.551  0.3020  0.8234 -1.0408
18649TIP3   OH277361   0.002   0.085   1.626  0.2368  0.4758  0.5205
18649TIP3    H177362  -0.057   0.096   1.700  0.0214 -0.5185  0.5049
18649TIP3    H277363  -0.055   0.055   1.554  0.8438 -1.0736  0.6714
18650TIP3   OH277364   0.275   6.730   2.327 -0.0345 -0.2944  0.2432
18650TIP3    H177365   0.298   6.713   2.235  0.3578 -0.2816  0.3383
18650TIP3    H277366   0.245   6.646   2.361 -1.5367  0.0039 -0.2900
18651TIP3   OH277367   2.922   5.261  16.697 -0.5865  0.9524  0.2439
18651TIP3    H177368   3.000   5.240  16.748 -0.5806 -0.9037 -0.4610
18651TIP3    H277369   2.931   5.208  16.617 -0.5287  3.8662 -1.7460
18652TIP3   OH277370   4.574   6.136  11.884 -0.1770 -0.8831  0.4844
18652TIP3    H177371   4.632   6.199  11.927  0.5939 -0.6230 -0.9194
18652TIP3    H277372   4.495   6.186  11.863  0.5012 -0.3175 -0.7814
18653TIP3   OH277373   0.189   4.815   2.062 -0.2351  0.3037  0.3755
18653TIP3    H177374   0.188   4.721   2.079  1.4840  0.3605  0.8127
18653TIP3    H277375   0.204   4.823   1.968  1.9454  0.1689  0.7024
18654TIP3   OH277376   6.199   0.471  12.881  0.3503 -0.4449 -0.9392
18654TIP3    H177377   6.235   0.383  12.867  1.7530 -0.1030  0.4478
18654TIP3    H277378   6.203   0.484  12.975 -0.3215  0.9282 -1.0903
18655TIP3   OH277379   1.000   2.027   5.912  0.1239  0.9336 -0.4510
18655TIP3    H177380   1.004   1.953   5.851 -0.0114  1.6915 -1.3814
18655TIP3    H277381   1.074   2.013   5.971  1.3762  1.1926 -1.9183
18656TIP3   OH277382   2.398   1.873  12.144 -0.1589  0.0961  0.0361
18656TIP3    H177383   2.303   1.859  12.143 -0.0771 -0.4952  0.3726
18656TIP3    H277384   2.424   1.848  12.233  0.3519  0.0133 -0.1385
18657TIP3   OH277385   3.308   6.489   5.758  0.6232  0.1607 -0.2946
18657TIP3    H177386   3.274   6.401   5.771 -2.0023  1.0217 -0.9397
18657TIP3    H277387   3.244   6.546   5.802  1.7132  1.7917 -0.7773
18658TIP3   OH277388   6.124   2.554   3.260 -0.0119  0.0342 -0.3133
18658TIP3    H177389   6.075   2.473   3.250 -1.9313  1.0007  0.9964
18658TIP3    H277390   6.068   2.622   3.221  0.5515  1.0614  0.6203
18659TIP3   OH277391   3.617   4.409  14.805 -0.1722  0.3954  0.2740
18659TIP3    H177392   3.546   4.462  14.841 -2.6188 -1.3292 -1.7579
18659TIP3    H277393   3.578   4.322  14.792  2.6884 -0.9486  0.2337
18660TIP3   OH277394   3.197   2.845  12.232 -0.3018  0.0617 -0.4380
18660TIP3    H177395   3.204   2.771  12.172 -0.7315  0.3718 -0.8732
18660TIP3    H277396   3.263   2.907  12.201  0.2657 -0.2671  0.1104
18661TIP3   OH277397   6.599   5.893   1.110 -0.5196 -0.3117 -0.8179
18661TIP3    H177398   6.527   5.884   1.047 -1.0721  0.8430 -0.3612
18661TIP3    H277399   6.632   5.803   1.121 -1.5492 -0.7775 -1.4250
18662TIP3   OH277400   2.144   1.869   5.755 -0.3198 -0.6532 -0.5181
18662TIP3    H177401   2.076   1.889   5.818 -0.2565  0.7119 -0.8661
18662TIP3    H277402   2.106   1.802   5.698 -1.1624 -0.3225 -0.3500
18663TIP3   OH277403   5.401   1.566   0.527  0.0340 -0.0931 -0.2198
18663TIP3    H177404   5.436   1.481   0.555 -1.3593 -0.1882  1.3527
18663TIP3    H277405   5.478   1.619   0.506  0.9731 -1.2631  0.2242
18664TIP3   OH277406   5.479   4.094  15.777  0.3320 -0.0362 -0.3812
18664TIP3    H177407   5.573   4.089  15.788  0.3797  0.5250 -0.4841
18664TIP3    H277408   5.448   4.139  15.855 -0.0458 -1.7131  0.4598
18665TIP3   OH277409   4.078   3.894   3.254  0.8266 -0.2457 -0.0170
18665TIP3    H177410   4.104   3.940   3.174  1.2847  0.9790  0.8184
18665TIP3    H277411   4.078   3.962   3.321  0.3974 -1.2575  1.0108
18666TIP3   OH277412   2.231   5.144  11.025 -0.2549  0.6861 -0.1414
18666TIP3    H177413   2.244   5.155  10.931  0.4057  0.1683 -0.1137
18666TIP3    H277414   2.145   5.104  11.033 -0.2118  0.5153 -0.5340
18667TIP3   OH277415   5.234   5.323  14.646  0.0717  0.0516 -0.2064
18667TIP3    H177416   5.295   5.382  14.690 -0.3038  0.3985 -0.1416
18667TIP3    H277417   5.281   5.240  14.640 -0.4763 -0.4866  2.3264
18668TIP3   OH277418   2.700   3.261   1.324  0.4394  0.1941  0.6357
18668TIP3    H177419   2.757   3.323   1.370  2.0826 -0.2275 -0.7799
18668TIP3    H277420   2.760   3.197   1.285 -1.0405 -0.6302 -0.3435
18669TIP3   OH277421   3.793   5.165   3.383  0.1480  0.4576  0.0107
18669TIP3    H177422   3.886   5.188   3.387  0.5373 -1.0059 -0.0602
18669TIP3    H277423   3.756   5.224   3.317  0.8861  1.4911  0.5145
18670TIP3   OH277424   1.922   5.055   5.512 -0.2202 -0.4983  0.3252
18670TIP3    H177425   1.988   5.051   5.443 -0.8190 -1.4871 -0.2120
18670TIP3    H277426   1.847   5.098   5.470 -0.3888 -0.5908  0.5321
18671TIP3   OH277427   4.002   6.173  11.011  0.2573 -0.1725 -0.0355
18671TIP3    H177428   4.021   6.260  10.976  1.9237 -0.2061  0.7706
18671TIP3    H277429   4.053   6.113  10.957 -0.4868 -0.6179 -0.2555
18672TIP3   OH277430   6.218   5.322   4.726  0.5857 -0.3324 -0.1057
18672TIP3    H177431   6.258   5.290   4.807  2.1713  1.1970 -0.2418
18672TIP3    H277432   6.125   5.303   4.735  0.3841  1.8385  3.0925
18673TIP3   OH277433   0.875   6.576   2.751 -0.2396  0.5317 -0.2834
18673TIP3    H177434   0.859   6.653   2.806 -0.8356  0.1027  0.1541
18673TIP3    H277435   0.965   6.550   2.772 -0.6317  0.0668  0.8930
18674TIP3   OH277436   2.894   0.239   1.274  0.5040 -0.8164  0.3939
18674TIP3    H177437   2.907   0.144   1.274 -2.8325 -1.3352  1.0758
18674TIP3    H277438   2.870   0.260   1.183  0.4191 -0.7608  0.4288
18675TIP3   OH277439   4.977   0.559  12.668 -0.1640 -0.4170 -0.2552
18675TIP3    H177440   4.883   0.546  12.664 -0.1808 -0.9878  1.3739
18675TIP3    H277441   5.011   0.480  12.711  0.8369  0.5451  0.7928
18676TIP3   OH277442   0.750   4.412  12.789  0.2222  0.0815  0.2800
18676TIP3    H177443   0.672   4.371  12.752 -0.4826  2.1501 -0.6177
18676TIP3    H277444   0.796   4.448  12.713  1.8012 -0.7305  0.8542
18677TIP3   OH277445   2.229   1.173   3.782  0.3280  0.2236 -0.6558
18677TIP3    H177446   2.285   1.246   3.809 -0.1759 -0.0734  1.2777
18677TIP3    H277447   2.143   1.194   3.818  0.4217 -1.8214  0.8627
18678TIP3   OH277448   3.546   5.150   6.128  0.0385 -0.5712  0.1128
18678TIP3    H177449   3.460   5.108   6.116 -0.2673  0.7581 -2.7872
18678TIP3    H277450   3.544   5.182   6.218 -3.2185  0.8658 -0.3785
18679TIP3   OH277451   1.999   2.701   4.251  1.0553  0.4225 -0.2867
18679TIP3    H177452   1.968   2.756   4.178  1.1441  0.1866 -0.5045
18679TIP3    H277453   1.919   2.675   4.296  1.0701  1.3996  0.3087
18680TIP3   OH277454   0.234   0.809   3.865  0.1598 -0.2244 -0.0883
18680TIP3    H177455   0.268   0.887   3.821 -1.3828 -1.1694 -3.0486
18680TIP3    H277456   0.140   0.811   3.848  0.2767 -3.4319 -1.3493
18681TIP3   OH277457   2.859   5.979   3.346 -0.0899  0.1821  0.0157
18681TIP3    H177458   2.804   5.986   3.268 -0.6151  0.6793  0.4242
18681TIP3    H277459   2.811   6.027   3.413  0.9974  0.8909  0.2962
18682TIP3   OH277460   2.060   4.700  16.160  0.5935  0.2208 -0.3980
18682TIP3    H177461   2.079   4.708  16.253 -0.4478 -0.3135 -0.1228
18682TIP3    H277462   2.072   4.607  16.141  3.3902  0.7622 -1.4067
18683TIP3   OH277463   6.639   3.080   3.615 -0.4561  0.0488  0.0103
18683TIP3    H177464   6.694   3.086   3.537 -1.7188  0.3319 -0.8727
18683TIP3    H277465   6.556   3.046   3.583 -0.5329 -1.1647  1.4694
18684TIP3   OH277466   1.917   2.125   5.747  0.0208  0.5606  0.5056
18684TIP3    H177467   1.984   2.179   5.706  0.0601  1.7898  2.1323
18684TIP3    H277468   1.837   2.177   5.740 -0.1841  0.3196  1.0268
18685TIP3   OH277469   6.585   2.477  16.426  0.0860  0.2267  0.1568
18685TIP3    H177470   6.521   2.413  16.458 -0.5194  0.6880 -0.1146
18685TIP3    H277471   6.560   2.558  16.470  0.9452  0.2421  0.6177
18686TIP3   OH277472   6.265   3.776  15.107  0.1479 -0.4424  0.7602
18686TIP3    H177473   6.207   3.746  15.037 -2.6330  0.2182  2.6759
18686TIP3    H277474   6.281   3.868  15.088  1.4495 -0.8790 -0.3289
18687TIP3   OH277475   2.400   2.741   3.343 -0.3014 -0.0769  0.5077
18687TIP3    H177476   2.460   2.707   3.409 -1.2728 -1.9160  0.4967
18687TIP3    H277477   2.445   2.725   3.260  0.0905  0.4682  0.6146
18688TIP3   OH277478   1.122   6.209  15.038  0.4789  0.9093  0.4612
18688TIP3    H177479   1.080   6.242  15.117  0.1594  0.6272  0.4106
18688TIP3    H277480   1.215   6.204  15.060  0.3224  0.3266  0.9952
18689TIP3   OH277481   4.193   3.895   1.285 -0.2566  0.2206 -0.2052
18689TIP3    H177482   4.254   3.826   1.310 -1.3125 -0.8180 -0.4744
18689TIP3    H277483   4.231   3.933   1.206  0.9317  0.7520  0.5928
18690TIP3   OH277484   1.553   3.651   1.944  0.1390 -0.0816 -0.1022
18690TIP3    H177485   1.477   3.609   1.984  0.0123  0.4190  0.1884
18690TIP3    H277486   1.518   3.728   1.900  0.6937  1.0861  1.4544
18691TIP3   OH277487   6.239   2.239   1.251 -0.4936 -0.0772  0.0150
18691TIP3    H177488   6.265   2.213   1.163  1.4362  1.2115  0.1678
18691TIP3    H277489   6.280   2.325   1.264 -2.1128  0.5081  1.5577
18692TIP3   OH277490   1.891   0.808   4.382  0.2729 -0.0473  0.3064
18692TIP3    H177491   1.816   0.782   4.328  0.7931  1.4431 -1.1673
18692TIP3    H277492   1.935   0.726   4.402  0.0065 -0.6474 -1.4615
18693TIP3   OH277493   0.596   0.784   0.188 -0.1937 -0.5745  0.0940
18693TIP3    H177494   0.550   0.715   0.140  0.1998 -0.2433 -0.7700
18693TIP3    H277495   0.558   0.866   0.156 -0.7749 -0.3868  1.2366
18694TIP3   OH277496   5.065   2.568  13.474 -0.1550  0.0645 -0.2823
18694TIP3    H177497   5.095   2.477  13.481  0.7390  0.4088  0.3853
18694TIP3    H277498   5.070   2.601  13.563 -1.0172  0.6070 -0.4363
18695TIP3   OH277499   3.590   0.259   3.955  0.3498 -0.7203 -0.1625
18695TIP3    H177500   3.611   0.326   3.891 -2.5433 -0.4500 -0.9183
18695TIP3    H277501   3.559   0.308   4.031 -0.9837 -1.1412 -0.4177
18696TIP3   OH277502   6.393   1.924  13.687  0.2246 -0.3133  0.4585
18696TIP3    H177503   6.348   1.869  13.751  1.5086 -1.8446  0.0837
18696TIP3    H277504   6.406   1.867  13.611 -1.2490  1.4645 -1.1924
18697TIP3   OH277505   6.397   4.020  15.136  0.0186  0.4272  0.0049
18697TIP3    H177506   6.456   3.946  15.144  1.3866  1.6008  1.1526
18697TIP3    H277507   6.447   4.095  15.170 -1.0868  2.0001 -1.7266
18698TIP3   OH277508   1.538   4.809   1.976  0.0846 -0.2734 -0.1909
18698TIP3    H177509   1.611   4.758   1.942 -0.7910  0.1614 -2.8148
18698TIP3    H277510   1.528   4.779   2.066  2.6977 -1.2056 -0.1660
18699TIP3   OH277511   4.973   5.100  15.002 -0.6527  0.1659  0.2809
18699TIP3    H177512   4.922   5.028  14.966  1.3232 -1.1866  0.0896
18699TIP3    H277513   4.951   5.175  14.947 -0.8895 -0.8781 -1.0650
18700TIP3   OH277514   6.711   3.484   3.804 -0.1040 -0.0173 -0.4422
18700TIP3    H177515   6.668   3.532   3.874  1.6565  1.1703 -0.1419
18700TIP3    H277516   6.783   3.541   3.776 -0.6576 -0.5555 -3.0736
18701TIP3   OH277517   5.771   3.041   1.564  0.0222  0.0559  0.0486
18701TIP3    H177518   5.775   3.017   1.657 -0.2114 -0.2269 -0.0103
18701TIP3    H277519   5.723   3.124   1.563  1.2365  0.7635  0.2955
18702TIP3   OH277520   6.534   6.065  15.922 -0.3130  0.3615  0.7325
18702TIP3    H177521   6.456   6.043  15.974 -0.7817  1.1370  0.3674
18702TIP3    H277522   6.530   6.005  15.847  0.0724 -0.3929  1.3150
18703TIP3   OH277523   1.654   3.685  13.264 -0.2683 -0.1947 -0.0460
18703TIP3    H177524   1.665   3.639  13.347 -1.2882 -5.2907 -2.5218
18703TIP3    H277525   1.559   3.686  13.251 -0.1121  0.5916 -1.1524
18704TIP3   OH277526   2.780   3.333   5.448  0.7613  0.0393 -0.1404
18704TIP3    H177527   2.690   3.303   5.438  0.0963  1.5803  1.1300
18704TIP3    H277528   2.824   3.261   5.493  0.0697 -0.5495 -0.3972
18705TIP3   OH277529   3.628   2.486  14.862 -0.1293  0.5440 -0.8525
18705TIP3    H177530   3.638   2.459  14.770 -0.3514 -0.1789 -0.6693
18705TIP3    H277531   3.717   2.495  14.894 -0.0458 -0.6203 -0.7353
18706TIP3   OH277532   0.188   6.024  12.624 -0.3690  0.4230 -0.3800
18706TIP3    H177533   0.145   6.103  12.590 -1.5935 -0.4087 -0.7815
18706TIP3    H277534   0.120   5.979  12.674  0.0910 -0.7952 -0.8379
18707TIP3   OH277535   6.638   4.874  14.333 -0.0679  0.3152  0.0589
18707TIP3    H177536   6.553   4.899  14.297 -0.1843  1.1007  0.8722
18707TIP3    H277537   6.691   4.954  14.329 -0.4877  0.7780  2.7968
18708TIP3   OH277538   3.488   5.051   4.669 -0.1609 -1.1971  0.3358
18708TIP3    H177539   3.516   5.040   4.760 -2.1889  1.5527  1.3615
18708TIP3    H277540   3.397   5.022   4.668 -0.2578 -0.8773 -0.7378
18709TIP3   OH277541   0.082   6.517  12.207  0.1367 -0.0145 -0.0687
18709TIP3    H177542   0.052   6.545  12.121  1.2715 -0.9323 -0.7817
18709TIP3    H277543   0.113   6.427  12.193 -0.4405 -0.4630  1.4708
18710TIP3   OH277544   6.730   5.166   2.122  0.3019  0.2464 -0.2080
18710TIP3    H177545   6.697   5.104   2.187  0.5820 -0.5919 -0.8593
18710TIP3    H277546   6.693   5.250   2.148 -0.5147 -0.2877  0.3821
18711TIP3   OH277547   6.459   6.218   0.435  0.1828  0.0271  0.2214
18711TIP3    H177548   6.368   6.248   0.434  0.5017  1.0148 -1.7017
18711TIP3    H277549   6.483   6.216   0.527 -1.8023 -0.2757  0.7555
18712TIP3   OH277550   1.821   2.468  16.880 -0.3361  0.3459  0.5184
18712TIP3    H177551   1.908   2.508  16.882  0.6290 -1.7415  2.1943
18712TIP3    H277552   1.761   2.540  16.861  1.5961  2.0842  0.9465
18713TIP3   OH277553   3.107   3.892  11.987 -0.0765  0.1066 -0.1222
18713TIP3    H177554   3.182   3.855  11.940  1.3049 -0.2535  2.2718
18713TIP3    H277555   3.055   3.816  12.011 -0.0815  0.1632  0.0505
18714TIP3   OH277556   4.918   5.458  11.277  0.5191 -0.1072 -0.2963
18714TIP3    H177557   4.979   5.404  11.327  0.9770 -0.3426 -1.0973
18714TIP3    H277558   4.929   5.429  11.187  1.0937  1.6140 -0.8092
18715TIP3   OH277559   6.302   5.911  11.976 -0.3365 -0.3168 -0.0431
18715TIP3    H177560   6.323   5.840  12.036 -1.7477 -0.3516  0.4276
18715TIP3    H277561   6.383   5.927  11.928  0.9415 -0.0328  2.1347
18716TIP3   OH277562   6.725   5.830  16.046 -0.6805 -0.5791  0.5878
18716TIP3    H177563   6.662   5.831  16.118 -0.2108  1.7788  1.0181
18716TIP3    H277564   6.722   5.919  16.011  0.7700 -1.0629 -0.8292
18717TIP3   OH277565   4.803   4.444  14.018 -0.3724  0.3865  0.1624
18717TIP3    H177566   4.806   4.539  14.006 -0.8665  0.8171  3.0497
18717TIP3    H277567   4.885   4.422  14.063 -0.7117 -0.4051  0.4083
18718TIP3   OH277568   3.263   2.573   6.336 -0.4525 -0.1732 -0.2294
18718TIP3    H177569   3.256   2.492   6.387 -0.8713 -0.0317 -0.0662
18718TIP3    H277570   3.357   2.584   6.322 -0.3059  0.0734  0.9686
18719TIP3   OH277571   2.073   2.260  13.887 -0.3487  0.2895  0.0560
18719TIP3    H177572   2.127   2.237  13.812  0.6964  1.4003  0.4582
18719TIP3    H277573   2.045   2.175  13.923  1.7515 -0.3310  0.2879
18720TIP3   OH277574   1.553   5.270   4.330 -0.0840 -0.0529 -0.8010
18720TIP3    H177575   1.461   5.257   4.306 -0.6561 -1.1566  1.7047
18720TIP3    H277576   1.554   5.354   4.375  0.1845  0.1181 -1.1329
18721TIP3   OH277577   5.726   5.845  13.856 -0.1569  0.1776 -0.2999
18721TIP3    H177578   5.793   5.847  13.924 -0.9132 -1.8157  0.5277
18721TIP3    H277579   5.767   5.797  13.784  0.1941  1.1933 -0.7900
18722TIP3   OH277580   0.373   6.447  16.518 -0.4277  0.2416 -0.3305
18722TIP3    H177581   0.387   6.507  16.445  0.7926  0.3974  0.0145
18722TIP3    H277582   0.458   6.404  16.530 -1.8132 -3.0408 -1.8757
18723TIP3   OH277583   5.033   3.922   2.795  0.0116 -0.0868 -0.1144
18723TIP3    H177584   5.101   3.855   2.806 -0.8861 -0.8283  1.1373
18723TIP3    H277585   5.043   3.979   2.871 -2.7512 -2.0635  1.8844
18724TIP3   OH277586   0.311   3.990   5.545 -0.4522  0.1402  0.2444
18724TIP3    H177587   0.380   3.924   5.553 -0.6156 -0.0511  0.0830
18724TIP3    H277588   0.310   4.033   5.630  1.2674  1.5496 -0.4370
18725TIP3   OH277589   4.526   0.502  15.060  0.1523 -0.1046  0.3820
18725TIP3    H177590   4.599   0.535  15.112 -0.1380 -0.4541  1.0256
18725TIP3    H277591   4.448   0.524  15.112 -0.1155 -0.8329  0.2988
18726TIP3   OH277592   3.257   2.585   2.017  0.3550  0.0932 -0.0867
18726TIP3    H177593   3.232   2.623   1.933 -0.4047  1.5472  0.7689
18726TIP3    H277594   3.352   2.598   2.022  0.2264  1.0910 -0.1894
18727TIP3   OH277595   1.779   1.383  11.262 -0.7032 -0.2480  0.3634
18727TIP3    H177596   1.690   1.359  11.287 -0.9956  1.7020  1.3552
18727TIP3    H277597   1.816   1.422  11.341  0.3316  0.8081 -0.6088
18728TIP3   OH277598   1.983   4.735   6.314  0.4052  0.2850  0.0737
18728TIP3    H177599   1.941   4.764   6.395 -0.6444  1.8782 -1.0299
18728TIP3    H277600   2.044   4.806   6.291 -0.5232  0.6163 -1.4248
18729TIP3   OH277601   1.392   3.460  16.304 -0.1382  0.3591 -0.7295
18729TIP3    H177602   1.453   3.438  16.234  3.7408  1.7010  2.0500
18729TIP3    H277603   1.334   3.527  16.266  1.3920  0.5056 -2.8598
18730TIP3   OH277604   5.481   1.256   3.284 -0.5839  0.0810  0.2451
18730TIP3    H177605   5.425   1.285   3.212 -0.3129 -0.7159 -0.2929
18730TIP3    H277606   5.536   1.332   3.304 -0.6752  0.3106 -0.3813
18731TIP3   OH277607   1.018   2.893   4.512  0.6535  0.2076  0.4085
18731TIP3    H177608   1.021   2.895   4.416  1.5499  0.6868  0.4401
18731TIP3    H277609   0.938   2.940   4.535  0.1667 -0.3560 -0.1160
18732TIP3   OH277610   3.048   2.509  13.134  0.1930  0.7087  0.2606
18732TIP3    H177611   3.036   2.552  13.050 -0.2655 -0.5585 -0.3338
18732TIP3    H277612   3.031   2.417  13.117  0.6724  0.3512  1.6182
18733TIP3   OH277613   1.663   5.599  11.825 -0.2223 -0.8555 -0.1276
18733TIP3    H177614   1.642   5.687  11.856 -2.1682 -0.3743 -2.5955
18733TIP3    H277615   1.753   5.584  11.852 -0.0498  1.6771  0.8166
18734TIP3   OH277616   4.233   5.621   1.179  0.6139 -0.2599 -0.0234
18734TIP3    H177617   4.215   5.601   1.088 -0.8376 -0.1209  0.2310
18734TIP3    H277618   4.160   5.675   1.207 -0.4050 -2.5804  1.9978
18735TIP3   OH277619   2.846   0.559   0.928 -0.5792  0.0893  0.3728
18735TIP3    H177620   2.866   0.647   0.960 -0.5174 -0.0896  0.8312
18735TIP3    H277621   2.895   0.552   0.846 -1.2826  0.7965 -0.1150
18736TIP3   OH277622   5.357   0.291  12.542 -0.3278  0.5622  0.8109
18736TIP3    H177623   5.430   0.320  12.596 -2.0035 -0.6186  3.7941
18736TIP3    H277624   5.318   0.372  12.509 -0.1548  1.3937  2.5795
18737TIP3   OH277625   3.025   1.781   1.651 -0.3632 -0.4343 -0.2340
18737TIP3    H177626   3.057   1.714   1.711  0.6596  1.8811  1.9011
18737TIP3    H277627   2.932   1.792   1.673 -0.6716 -1.5117 -0.9688
18738TIP3   OH277628   1.107   6.410  11.700  0.3491 -0.4386 -0.8851
18738TIP3    H177629   1.138   6.440  11.615 -0.8144  0.7093 -0.9027
18738TIP3    H277630   1.055   6.332  11.680 -1.0803  0.6205 -1.3847
18739TIP3   OH277631   5.894   0.912  13.901  0.0971 -0.3817  0.0702
18739TIP3    H177632   5.829   0.849  13.934 -0.2612  0.7502  1.5687
18739TIP3    H277633   5.847   0.995  13.900  1.2284  0.2557  0.1837
18740TIP3   OH277634   6.561   0.926  14.822  0.3808  0.1285 -0.5145
18740TIP3    H177635   6.489   0.987  14.803 -1.7713 -2.4923 -1.1422
18740TIP3    H277636   6.581   0.888  14.736  1.4692 -0.2882 -0.0690
18741TIP3   OH277637   3.422   5.501   1.077 -0.1647 -0.4548  0.2998
18741TIP3    H177638   3.375   5.486   0.996  1.6160 -0.6345 -0.7221
18741TIP3    H277639   3.486   5.569   1.056  0.0816 -0.2390  1.6487
18742TIP3   OH277640   2.767   6.217  14.023 -0.0110 -0.3435  0.0519
18742TIP3    H177641   2.701   6.151  14.003  0.9279 -0.6278 -2.3593
18742TIP3    H277642   2.721   6.301  14.014 -0.4140 -0.5820 -0.1162
18743TIP3   OH277643   0.742   6.107   1.338 -0.1553 -0.0307  0.1454
18743TIP3    H177644   0.690   6.078   1.413 -0.6030 -1.5877 -0.7282
18743TIP3    H277645   0.749   6.202   1.348 -1.1586 -0.0891  1.5368
18744TIP3   OH277646   6.737   0.133  13.740 -0.2307  0.7862 -0.1012
18744TIP3    H177647   6.826   0.131  13.704 -0.4458 -0.7837 -0.5782
18744TIP3    H277648   6.690   0.065  13.692 -1.0578  0.0201  1.7467
18745TIP3   OH277649   0.901   3.587  15.082 -0.1451 -0.6798 -0.8145
18745TIP3    H177650   0.909   3.496  15.110  0.3727 -0.2349  0.5173
18745TIP3    H277651   0.896   3.637  15.163 -1.1171  0.4303 -1.5313
18746TIP3   OH277652   0.043   6.648  15.551 -1.0831 -0.3097  0.0422
18746TIP3    H177653  -0.049   6.637  15.576 -0.8773 -2.5991 -0.0719
18746TIP3    H277654   0.086   6.570  15.586  0.8865  0.8954  0.3554
18747TIP3   OH277655   3.433   4.195  13.219 -0.0136 -0.2629  0.0747
18747TIP3    H177656   3.496   4.141  13.172  0.1330  0.0734 -0.1137
18747TIP3    H277657   3.409   4.264  13.157 -1.6937 -1.2381 -0.3934
18748TIP3   OH277658   0.043   0.289   1.031  0.4992 -0.0510  0.0425
18748TIP3    H177659   0.106   0.347   1.075 -0.3834  0.7151  0.3103
18748TIP3    H277660   0.065   0.295   0.938  0.2397  0.9275  0.0417
18749TIP3   OH277661   0.537   6.064  14.766 -0.2070  0.4529  0.0012
18749TIP3    H177662   0.533   6.062  14.862  0.7154 -1.8942  0.0230
18749TIP3    H277663   0.623   6.101  14.746  0.1388 -0.2939  0.0976
18750TIP3   OH277664   6.501   2.461  16.733 -0.2066 -0.1263  0.4548
18750TIP3    H177665   6.416   2.417  16.740 -0.6675  0.8118  0.9976
18750TIP3    H277666   6.502   2.521  16.808  2.0293 -1.9272  1.9146
18751TIP3   OH277667   1.952   3.848   1.184 -0.5841 -0.2472 -0.5325
18751TIP3    H177668   1.972   3.804   1.102 -0.7514 -0.7041 -0.3310
18751TIP3    H277669   1.858   3.832   1.198 -0.2835 -1.2791  0.3938
18752TIP3   OH277670   3.425   2.532   4.581 -0.0946 -0.5240  0.1432
18752TIP3    H177671   3.366   2.587   4.632 -1.0579 -1.3528 -0.0651
18752TIP3    H277672   3.387   2.531   4.493  0.0543 -1.3028  0.0824
18753TIP3   OH277673   1.414   1.557  11.533  0.2986 -0.0420 -0.3392
18753TIP3    H177674   1.504   1.526  11.524  0.9551  1.9389 -0.6482
18753TIP3    H277675   1.369   1.526  11.454  0.9943  0.0090 -0.7487
18754TIP3   OH277676   2.003   0.870   3.829 -0.0823 -0.4164  0.2327
18754TIP3    H177677   1.948   0.948   3.816 -1.2440 -1.0529  1.1921
18754TIP3    H277678   1.982   0.814   3.754  0.8734  0.2415 -0.5449
18755TIP3   OH277679   2.380   6.627  12.938  0.2468 -0.1646 -0.0646
18755TIP3    H177680   2.370   6.534  12.920 -0.9827 -0.0560  0.0164
18755TIP3    H277681   2.291   6.661  12.942  0.6606  0.8655  0.7123
18756TIP3   OH277682   5.324   5.333   2.637 -0.1911  0.3517 -0.3340
18756TIP3    H177683   5.252   5.328   2.700  0.6896  0.0062  0.6589
18756TIP3    H277684   5.321   5.249   2.591  0.3632 -0.1822  0.5889
18757TIP3   OH277685   6.265   5.972   2.774 -0.3690  0.3021 -0.1641
18757TIP3    H177686   6.266   6.011   2.687  0.3863 -0.2156 -0.3940
18757TIP3    H277687   6.252   5.878   2.758 -1.8692  0.4058  0.3632
18758TIP3   OH277688   6.195   6.634  11.751  0.2556 -0.0575  0.0679
18758TIP3    H177689   6.257   6.705  11.733  0.8671 -0.3793  0.8203
18758TIP3    H277690   6.222   6.564  11.692 -1.0969  0.7291 -1.5291
18759TIP3   OH277691   2.751   6.759   3.571  0.0742 -0.5338 -0.2284
18759TIP3    H177692   2.846   6.761   3.561  0.2342  0.8877  1.2284
18759TIP3    H277693   2.728   6.848   3.599 -1.7799 -0.6484 -1.3093
18760TIP3   OH277694   0.114   4.864   2.959  0.7392 -0.1675  0.2922
18760TIP3    H177695   0.120   4.827   2.871  0.9185 -1.8138  0.9816
18760TIP3    H277696   0.202   4.897   2.977  0.6829  0.2379 -0.1786
18761TIP3   OH277697   2.857   1.581  12.736 -0.0988 -0.2862  0.0366
18761TIP3    H177698   2.952   1.569  12.733 -0.0896 -0.7450  1.5249
18761TIP3    H277699   2.821   1.492  12.728 -0.3844 -0.1379 -0.3109
18762TIP3   OH277700   6.761   1.222  11.684  0.0224 -0.3306  0.3961
18762TIP3    H177701   6.678   1.269  11.696 -0.3362 -1.1190  1.0631
18762TIP3    H277702   6.760   1.195  11.592 -1.3714 -2.0230  0.8806
18763TIP3   OH277703   4.085   0.360   4.372  0.5196  0.5623  0.0286
18763TIP3    H177704   4.023   0.391   4.437  0.7129 -0.6763  0.8315
18763TIP3    H277705   4.156   0.321   4.423  0.6156 -0.5389 -0.9050
18764TIP3   OH277706   6.309   0.751  12.345 -0.6861 -0.1207  0.0350
18764TIP3    H177707   6.278   0.742  12.255  2.1787  2.8458 -1.3046
18764TIP3    H277708   6.392   0.703  12.347  0.9131  2.6099  0.1742
18765TIP3   OH277709   3.564   5.214   5.536  0.5047  0.0843  0.3034
18765TIP3    H177710   3.501   5.200   5.606  0.1332 -2.2987 -0.4698
18765TIP3    H277711   3.553   5.306   5.511 -2.0636 -0.0834  0.7414
18766TIP3   OH277712   2.278   1.141   2.009  0.9369  0.1559  0.1350
18766TIP3    H177713   2.315   1.168   1.925  1.7393 -0.6783  0.2050
18766TIP3    H277714   2.276   1.221   2.061 -0.1977  0.8228 -0.8958
18767TIP3   OH277715   6.118   3.560   0.544  0.1633  0.0238  0.8126
18767TIP3    H177716   6.213   3.566   0.553 -0.0667  1.0572  3.0690
18767TIP3    H277717   6.088   3.534   0.631 -1.7250  1.3007  0.5584
18768TIP3   OH277718   6.006   1.120   3.700 -0.3548  0.5764 -0.2012
18768TIP3    H177719   5.953   1.049   3.664  0.1279  0.1797 -0.1298
18768TIP3    H277720   5.942   1.187   3.725 -0.7848  0.3096 -0.5817
18769TIP3   OH277721   2.453   4.409  12.806 -0.1858 -0.0661 -0.0509
18769TIP3    H177722   2.506   4.351  12.860 -1.2607 -1.3746 -0.3755
18769TIP3    H277723   2.517   4.465  12.762  0.6477  1.4812  3.0528
18770TIP3   OH277724   3.782   2.754  12.610  0.0866 -0.0715  0.1506
18770TIP3    H177725   3.792   2.668  12.570  0.4523 -0.3087  0.7450
18770TIP3    H277726   3.832   2.749  12.691  1.0495  1.0454 -0.3349
18771TIP3   OH277727   4.006   4.526   0.760  0.2596  0.4821  0.3259
18771TIP3    H177728   4.076   4.461   0.753 -1.7330 -1.7023 -0.0050
18771TIP3    H277729   4.015   4.580   0.681  1.1782 -0.2072 -0.0438
18772TIP3   OH277730   3.182   6.719  11.656 -0.2461 -0.4525  0.1330
18772TIP3    H177731   3.239   6.778  11.706 -1.3060  0.8968 -0.1900
18772TIP3    H277732   3.129   6.779  11.603 -0.5163 -1.7788 -1.1040
18773TIP3   OH277733   3.549   0.971   4.878  0.2445  0.2306  0.5836
18773TIP3    H177734   3.505   0.947   4.959  1.7220 -0.3552  1.2385
18773TIP3    H277735   3.619   1.031   4.905  0.2912  0.6128 -0.3412
18774TIP3   OH277736   6.383   0.620  15.190  0.4299 -0.3519  0.0981
18774TIP3    H177737   6.413   0.702  15.152 -0.8667 -0.9586 -2.3653
18774TIP3    H277738   6.364   0.641  15.281  1.8065  1.6399 -0.0477
18775TIP3   OH277739   0.746   1.711   2.039 -0.0915 -0.9744  0.2897
18775TIP3    H177740   0.664   1.682   2.081  0.6066 -2.7862  0.4699
18775TIP3    H277741   0.799   1.745   2.111  0.1341 -1.7737  0.5066
18776TIP3   OH277742   6.340   2.476  11.791  0.5212  0.1736 -0.1306
18776TIP3    H177743   6.425   2.520  11.792  0.8544 -0.5010  1.1902
18776TIP3    H277744   6.352   2.403  11.730  0.5794  0.6642 -0.7184
18777TIP3   OH277745   5.491   6.272   3.260 -0.1707  0.2540 -0.1926
18777TIP3    H177746   5.520   6.193   3.305 -0.2362 -0.4221 -1.2961
18777TIP3    H277747   5.400   6.285   3.287  0.2358  0.7021  0.9944
18778TIP3   OH277748   2.483   1.607  15.262  0.0272 -0.1039 -0.1680
18778TIP3    H177749   2.520   1.693  15.285 -0.6777  0.3655 -0.7548
18778TIP3    H277750   2.556   1.546  15.273 -0.0668  0.1991  2.5580
18779TIP3   OH277751   0.636   1.702  16.619  0.6173 -0.2096 -0.0574
18779TIP3    H177752   0.652   1.622  16.568 -2.2485  0.7066 -2.5358
18779TIP3    H277753   0.586   1.672  16.696 -0.2738 -0.8580 -0.8730
18780TIP3   OH277754   2.231   5.329   4.221 -0.3643 -0.1176 -0.0375
18780TIP3    H177755   2.163   5.394   4.203 -2.2253 -1.8720  0.4896
18780TIP3    H277756   2.211   5.256   4.163  1.5635 -0.3403 -0.4503
18781TIP3   OH277757   2.662   5.842  12.540  0.2951  0.3203  0.1263
18781TIP3    H177758   2.679   5.870  12.630 -1.0713 -0.8729  0.7780
18781TIP3    H277759   2.581   5.792  12.546 -0.4737  1.2865 -1.9857
18782TIP3   OH277760   0.958   6.587   4.725  0.4185  0.4123  0.6796
18782TIP3    H177761   1.018   6.660   4.738 -0.1516  0.8451  0.9052
18782TIP3    H277762   0.873   6.628   4.710 -0.1116 -0.2034  1.8892
18783TIP3   OH277763   3.277   1.081   6.581  0.4575  0.1501  0.2780
18783TIP3    H177764   3.217   1.119   6.516 -0.1290 -0.8822  0.1988
18783TIP3    H277765   3.263   1.132   6.660 -3.1888 -2.3047  1.3499
18784TIP3   OH277766   2.567   3.102   4.850  0.7928 -0.6242  0.5147
18784TIP3    H177767   2.597   3.012   4.851  1.5567 -0.4214 -1.7120
18784TIP3    H277768   2.490   3.103   4.907  0.7786 -2.6730  0.5363
18785TIP3   OH277769   5.760   6.567   4.595 -0.0738 -0.4560 -0.3889
18785TIP3    H177770   5.685   6.529   4.642  0.3003 -1.0563 -0.2823
18785TIP3    H277771   5.720   6.626   4.532 -0.7111 -1.8119 -1.2688
18786TIP3   OH277772   0.640   1.365  12.922  0.3257 -0.3699 -0.2647
18786TIP3    H177773   0.581   1.308  12.971  0.5637  0.1218  0.6082
18786TIP3    H277774   0.706   1.306  12.885 -1.2216 -1.0354 -2.0212
18787TIP3   OH277775   5.270   2.617   4.707 -0.5987  0.4626  0.8752
18787TIP3    H177776   5.243   2.709   4.700 -1.1549  0.4220  2.4785
18787TIP3    H277777   5.348   2.620   4.763  0.1371  0.0913 -0.1220
18788TIP3   OH277778   1.411   1.457   0.057  0.0954  0.3742 -0.0582
18788TIP3    H177779   1.467   1.463   0.135  1.7213  0.8149 -1.2450
18788TIP3    H277780   1.458   1.506  -0.010 -1.5669  0.4584 -1.1822
18789TIP3   OH277781   5.205   2.438   5.954 -0.4622  0.1860  0.2514
18789TIP3    H177782   5.215   2.399   5.867 -1.7321 -0.1712  0.2619
18789TIP3    H277783   5.126   2.397   5.990 -1.5355  2.3676  0.4661
18790TIP3   OH277784   5.277   0.537  13.432 -0.0494 -0.2850 -0.5654
18790TIP3    H177785   5.239   0.457  13.469  1.6043 -1.0700 -0.5167
18790TIP3    H277786   5.334   0.570  13.501 -0.6588  0.9051 -0.6223
18791TIP3   OH277787   5.704   0.366   5.569  0.6138 -0.3407 -0.1153
18791TIP3    H177788   5.716   0.459   5.552  1.3666 -0.5900 -0.9838
18791TIP3    H277789   5.711   0.359   5.665  0.6056  0.4785 -0.0463
18792TIP3   OH277790   6.743   3.309  13.751 -0.1065  0.5541  0.1312
18792TIP3    H177791   6.732   3.391  13.799 -1.3974  0.0335  0.7539
18792TIP3    H277792   6.680   3.315  13.679  1.4324  1.0931 -1.1861
18793TIP3   OH277793   1.178   5.597  16.446 -0.2230  0.5276  0.6761
18793TIP3    H177794   1.163   5.599  16.351 -1.3973 -0.0562  0.8464
18793TIP3    H277795   1.263   5.640  16.457  0.4401 -0.3580 -0.7521
18794TIP3   OH277796   2.020   6.634  14.307  0.1013 -0.2043  0.1291
18794TIP3    H177797   2.091   6.598  14.360  0.2431 -1.8118 -1.1255
18794TIP3    H277798   2.004   6.568  14.241 -2.2091  0.4085  0.0573
18795TIP3   OH277799   5.007   5.186  14.105  0.1717  0.8559 -0.6814
18795TIP3    H177800   5.020   5.232  14.188  1.1154  2.1598 -1.5260
18795TIP3    H277801   4.945   5.116  14.125  2.9107 -1.0009  1.9293
18796TIP3   OH277802   3.242   3.505   0.065  0.4304  0.8398 -0.1218
18796TIP3    H177803   3.326   3.519   0.109 -0.2063 -0.5688  1.6032
18796TIP3    H277804   3.225   3.411   0.075 -0.9834  0.9695 -1.1510
18797TIP3   OH277805   5.235   4.454  14.381  0.0823  0.4530  1.0491
18797TIP3    H177806   5.200   4.365  14.378 -0.1791  0.4283  3.7147
18797TIP3    H277807   5.222   4.488  14.292  2.3610 -2.9652 -0.6912
18798TIP3   OH277808   0.727   5.470  15.698  0.1063  0.2627  0.2297
18798TIP3    H177809   0.714   5.458  15.604 -0.3131  1.3863  0.1375
18798TIP3    H277810   0.679   5.550  15.719  1.0031  0.5504  1.2209
18799TIP3   OH277811   5.477   6.718   3.971 -0.6881 -0.2369 -0.4048
18799TIP3    H177812   5.460   6.732   4.064 -1.3904  1.7065 -0.8046
18799TIP3    H277813   5.398   6.675   3.938 -0.5392 -0.6996 -0.1631
18800TIP3   OH277814   1.940   4.288  11.834 -0.1970 -0.0711 -0.3405
18800TIP3    H177815   1.880   4.216  11.816 -1.7665  1.1841 -0.1670
18800TIP3    H277816   1.901   4.335  11.907 -0.1256  1.9844 -1.5795
18801TIP3   OH277817   6.439   5.501  13.168  0.7085  0.2094  0.2668
18801TIP3    H177818   6.427   5.477  13.076  1.4298 -0.0084  0.2246
18801TIP3    H277819   6.354   5.534  13.196  0.1747 -0.7754 -0.1651
18802TIP3   OH277820   6.647   1.630   3.708 -0.4234 -0.0714  0.4840
18802TIP3    H177821   6.735   1.631   3.671 -1.4076  1.5778 -1.9279
18802TIP3    H277822   6.595   1.580   3.645 -1.2646 -0.9202  1.8261
18803TIP3   OH277823   4.901   6.074  13.062  0.2067  0.1166 -0.0649
18803TIP3    H177824   4.961   6.006  13.092  0.2270  0.0502 -0.2615
18803TIP3    H277825   4.898   6.065  12.967  0.3327  0.4918 -0.1064
18804TIP3   OH277826   3.045   2.548   3.564  0.1086  0.1525 -0.5273
18804TIP3    H177827   2.988   2.475   3.538  0.8665 -0.9414  0.7956
18804TIP3    H277828   3.128   2.530   3.520  0.4746 -0.1133  0.2508
18805TIP3   OH277829   3.219   6.618   2.133 -0.0776 -0.2496 -0.0612
18805TIP3    H177830   3.159   6.650   2.201  0.0180  0.9340 -0.5212
18805TIP3    H277831   3.275   6.555   2.178  0.0135  0.5599  0.9677
18806TIP3   OH277832   0.498   4.693   4.703 -0.4824 -0.1835 -0.7397
18806TIP3    H177833   0.450   4.625   4.656  0.3467 -0.4451 -1.2264
18806TIP3    H277834   0.575   4.647   4.739  0.1305  0.5124 -1.1425
18807TIP3   OH277835   3.793   0.944  12.168  0.1493  0.0489 -0.0340
18807TIP3    H177836   3.830   0.922  12.253  0.2552  0.1232 -0.0617
18807TIP3    H277837   3.787   1.039  12.168 -2.0228 -0.0730  0.7958
18808TIP3   OH277838   5.988   4.273  13.751 -0.0309 -0.3432  0.2240
18808TIP3    H177839   6.074   4.237  13.771 -0.2333 -0.9341  0.0666
18808TIP3    H277840   5.962   4.320  13.831  0.5675  0.1056  0.1579
18809TIP3   OH277841   0.995   3.565  14.824  0.6547 -0.3624  0.2255
18809TIP3    H177842   0.958   3.540  14.909  0.4939 -1.4703 -0.1681
18809TIP3    H277843   0.929   3.624  14.786 -0.2794 -1.5681 -0.0571
18810TIP3   OH277844   1.420   3.030  13.408 -0.1928 -0.4032 -0.0443
18810TIP3    H177845   1.352   2.968  13.435  0.4657 -1.3579 -0.5609
18810TIP3    H277846   1.494   3.011  13.465 -0.4355  0.8301  0.7113
18811TIP3   OH277847   3.789   2.887   4.298 -0.5446 -0.0417  0.0343
18811TIP3    H177848   3.743   2.968   4.319 -2.5587 -0.6711 -1.7225
18811TIP3    H277849   3.824   2.901   4.210  0.4317 -0.5142  0.3429
18812TIP3   OH277850   1.813   0.614  13.426 -0.1439  0.1842 -0.1881
18812TIP3    H177851   1.877   0.637  13.359 -1.9957 -0.4877 -2.2538
18812TIP3    H277852   1.798   0.520  13.414  0.2717 -0.1747  1.8703
18813TIP3   OH277853   5.980   6.769   4.423 -0.0282 -0.3750  0.2528
18813TIP3    H177854   5.934   6.765   4.507 -0.8210  1.9561 -0.0360
18813TIP3    H277855   5.916   6.805   4.362  1.7240  1.7495 -0.4382
18814TIP3   OH277856   4.687   0.607  15.847  0.0914  0.0222 -0.4939
18814TIP3    H177857   4.669   0.666  15.920 -1.5793 -1.0711  0.0199
18814TIP3    H277858   4.717   0.664  15.776 -1.0182  1.4268  0.1416
18815TIP3   OH277859   5.572   6.479   4.767 -0.0391  0.0449 -0.4358
18815TIP3    H177860   5.614   6.536   4.831  0.4955 -1.3460  0.4572
18815TIP3    H277861   5.484   6.466   4.800  0.1336 -0.4123 -0.1680
18816TIP3   OH277862   6.015   4.701   1.253 -0.3455 -0.1544 -0.0042
18816TIP3    H177863   6.069   4.778   1.273  0.4788 -0.8847  0.6495
18816TIP3    H277864   6.068   4.649   1.193 -0.3053 -0.8938  0.6629
18817TIP3   OH277865   6.315   1.851   4.104 -0.5581  0.1130  0.1576
18817TIP3    H177866   6.368   1.842   4.183  0.4195 -0.1136 -0.5129
18817TIP3    H277867   6.329   1.941   4.075 -0.4574  0.0217 -0.0789
18818TIP3   OH277868   3.483   0.562  16.599  0.3297 -0.1749 -0.1198
18818TIP3    H177869   3.399   0.600  16.573  0.6525  0.3032 -0.4754
18818TIP3    H277870   3.482   0.563  16.694  0.7485  1.6368 -0.1306
18819TIP3   OH277871   3.478   6.498  11.950  0.3007 -0.1712  0.0620
18819TIP3    H177872   3.390   6.515  11.984  2.1121  2.7102  3.7541
18819TIP3    H277873   3.470   6.416  11.901 -4.9062  1.2606 -1.8468
18820TIP3   OH277874   0.583   6.662   1.674 -0.3927 -0.2979  0.1697
18820TIP3    H177875   0.553   6.720   1.604  1.8638  0.0587 -0.5541
18820TIP3    H277876   0.530   6.583   1.664  0.5853 -0.6638 -2.6647
18821TIP3   OH277877   4.030   3.778   0.606  0.0489 -0.2036 -0.1273
18821TIP3    H177878   4.054   3.701   0.659  0.8417  0.2962  0.2392
18821TIP3    H277879   3.950   3.811   0.648 -2.2908 -2.8022 -2.2941
18822TIP3   OH277880   5.103   3.484  11.172 -0.2956  0.4276 -0.7725
18822TIP3    H177881   5.087   3.578  11.160 -1.1714  0.2596 -0.9581
18822TIP3    H277882   5.113   3.450  11.083  0.7017  0.4588 -0.6753
18823TIP3   OH277883   3.177   5.598  10.783 -0.0956  0.4213  0.5340
18823TIP3    H177884   3.128   5.627  10.705  1.9787  0.3533 -0.8274
18823TIP3    H277885   3.139   5.513  10.804 -2.4630  1.6034  1.2151
18824TIP3   OH277886   6.633   2.913   1.480 -0.5162 -0.2261 -0.2272
18824TIP3    H177887   6.599   2.910   1.570 -0.2952 -0.4755 -0.1514
18824TIP3    H277888   6.563   2.874   1.427 -2.0828  2.9482 -0.6152
18825TIP3   OH277889   4.545   3.177   1.729 -0.1456 -0.3264 -0.0629
18825TIP3    H177890   4.623   3.122   1.726 -0.8838 -1.2979 -3.1602
18825TIP3    H277891   4.572   3.255   1.778  2.3905 -1.1921 -0.0303
18826TIP3   OH277892   3.249   2.497   3.389 -0.0431  0.7055 -0.1971
18826TIP3    H177893   3.313   2.563   3.363  0.2484  0.4003 -0.2691
18826TIP3    H277894   3.303   2.424   3.421 -0.3427  0.2304 -0.7763
18827TIP3   OH277895   0.249   1.318  16.776  0.0851 -0.2436  0.5263
18827TIP3    H177896   0.267   1.329  16.869 -1.8456  0.5570  0.8345
18827TIP3    H277897   0.177   1.254  16.774 -0.3169  0.2336 -0.3703
18828TIP3   OH277898   1.365   5.712   2.634  0.0313 -0.3584  0.1794
18828TIP3    H177899   1.318   5.631   2.612 -0.5086 -0.2325  0.8548
18828TIP3    H277900   1.453   5.682   2.656 -0.5903 -0.9534  1.9468
18829TIP3   OH277901   3.442   0.533  14.369 -0.0042 -0.1861 -0.2515
18829TIP3    H177902   3.525   0.581  14.377  0.6458 -1.0310 -1.6048
18829TIP3    H277903   3.417   0.545  14.277  0.0784 -2.2357 -0.5705
18830TIP3   OH277904   3.234   3.092  14.378 -0.1821  0.7653  0.4187
18830TIP3    H177905   3.235   3.148  14.455 -0.6397 -0.0304  1.0110
18830TIP3    H277906   3.173   3.135  14.318  0.2010  1.4034  0.4867
18831TIP3   OH277907   1.778   5.132  15.412  0.5327  0.3416 -0.3357
18831TIP3    H177908   1.729   5.051  15.399  1.1404 -0.1806  0.6007
18831TIP3    H277909   1.785   5.141  15.507  0.1290  1.7008 -0.4285
18832TIP3   OH277910   2.235   5.678  16.643 -0.2488  0.3331 -0.0567
18832TIP3    H177911   2.328   5.671  16.667  0.0559  0.1529 -1.2407
18832TIP3    H277912   2.195   5.599  16.679  0.2378 -0.0237 -0.2888
18833TIP3   OH277913   0.597   6.317  12.663  0.1119  0.1290 -0.4343
18833TIP3    H177914   0.536   6.375  12.710  0.9895  1.7304 -1.2156
18833TIP3    H277915   0.666   6.299  12.727  0.0258  0.2526 -0.3034
18834TIP3   OH277916   1.236   2.979  14.246  0.6732  0.1532  0.6029
18834TIP3    H177917   1.275   3.061  14.276 -0.0288  0.5454  0.4551
18834TIP3    H277918   1.260   2.974  14.154  1.9117 -0.5184  0.9365
18835TIP3   OH277919   3.270   6.201  14.126 -0.3041 -0.0856 -0.7719
18835TIP3    H177920   3.279   6.280  14.179 -0.0494 -0.0183 -0.9185
18835TIP3    H277921   3.298   6.226  14.039  0.9119 -0.6482 -0.5492
18836TIP3   OH277922   6.117   0.914  14.937  0.1890  0.4845 -0.1698
18836TIP3    H177923   6.138   0.822  14.948  0.4758  0.6900  1.0261
18836TIP3    H277924   6.160   0.940  14.855  0.5810 -0.2952 -0.2069
18837TIP3   OH277925   4.661   5.040   2.316  0.6765  0.9647 -0.2003
18837TIP3    H177926   4.735   5.098   2.335  0.7547  0.6988  0.3169
18837TIP3    H277927   4.594   5.066   2.379  0.9104  0.1260  0.3982
18838TIP3   OH277928   4.674   4.914  10.952  0.1591 -0.0705  0.1616
18838TIP3    H177929   4.698   4.872  10.869 -0.4270 -0.4120  0.1616
18838TIP3    H277930   4.610   4.854  10.991  0.0497  0.3437  0.6187
18839TIP3   OH277931   4.662   4.758  13.465  0.0551  0.1228  0.4451
18839TIP3    H177932   4.706   4.739  13.382 -2.3820  0.2801 -0.9545
18839TIP3    H277933   4.727   4.740  13.532  2.7501  1.8942 -1.5854
18840TIP3   OH277934   2.258   6.173  13.906  0.6973 -0.0631  0.3157
18840TIP3    H177935   2.252   6.116  13.829  2.0702  0.9265 -0.5402
18840TIP3    H277936   2.194   6.242  13.889  0.9419  0.1099  0.0922
18841TIP3   OH277937   6.764   1.656   4.696 -0.3822  0.5245 -0.7274
18841TIP3    H177938   6.714   1.666   4.615  1.0323  3.2138 -1.3115
18841TIP3    H277939   6.738   1.731   4.749 -0.3750 -0.5581  0.8622
18842TIP3   OH277940   5.605   1.587   5.118  0.0582  0.3878 -1.2008
18842TIP3    H177941   5.545   1.655   5.087 -0.3496  0.3267 -0.5545
18842TIP3    H277942   5.591   1.513   5.059 -1.5778 -0.1594 -0.1521
18843TIP3   OH277943   1.970   1.037  11.946  0.4809 -0.1835  0.4542
18843TIP3    H177944   1.918   0.988  11.882  1.4183 -0.8430  0.2017
18843TIP3    H277945   1.941   1.004  12.031  1.6815 -1.7784  0.2696
18844TIP3   OH277946   0.528   3.429  15.025  0.6478  0.1571  0.3413
18844TIP3    H177947   0.605   3.394  15.070 -0.2429 -0.6142  1.3033
18844TIP3    H277948   0.500   3.359  14.966 -0.1264 -0.1289  1.0231
18845TIP3   OH277949   5.672   2.628   2.697  0.0931 -0.0289 -0.9343
18845TIP3    H177950   5.637   2.711   2.667  0.3489  0.0601 -0.9862
18845TIP3    H277951   5.723   2.595   2.624 -0.3265 -0.4184 -1.0543
18846TIP3   OH277952   2.543   0.628  15.967  0.0652  0.1396 -0.5218
18846TIP3    H177953   2.468   0.672  15.927  0.5789  1.0634 -0.4823
18846TIP3    H277954   2.521   0.624  16.060  0.5877  1.5239 -0.3176
18847TIP3   OH277955   2.351   6.626  16.171  0.3391 -0.1726 -0.3549
18847TIP3    H177956   2.342   6.635  16.077  2.3321 -0.5565 -0.6031
18847TIP3    H277957   2.385   6.710  16.201 -0.4060 -0.0074  0.0505
18848TIP3   OH277958   3.376   0.810   0.856 -0.0013 -0.3487 -0.3854
18848TIP3    H177959   3.467   0.835   0.871 -0.2317  0.9955 -1.1632
18848TIP3    H277960   3.340   0.881   0.803 -1.7646 -0.3573  0.7404
18849TIP3   OH277961   3.455   6.785   2.277  0.1712  0.0844  0.2434
18849TIP3    H177962   3.427   6.860   2.225  0.0767  0.3205  0.6329
18849TIP3    H277963   3.494   6.725   2.214 -1.3430 -0.3181 -0.3295
18850TIP3   OH277964   1.555   0.023  11.235 -0.3209 -0.1416 -0.0503
18850TIP3    H177965   1.536   0.072  11.315  0.3195  0.1985 -0.1026
18850TIP3    H277966   1.473   0.025  11.186 -0.0436  1.7734 -0.5127
18851TIP3   OH277967   4.570   4.349   5.769 -0.8024 -0.3282  0.0707
18851TIP3    H177968   4.496   4.410   5.768  1.2766  2.2974 -0.2455
18851TIP3    H277969   4.622   4.375   5.845 -0.2353 -2.1704  0.3387
18852TIP3   OH277970   2.648   1.988   4.036  0.1652  0.1558 -0.4323
18852TIP3    H177971   2.701   2.005   4.114  1.0675  1.1874 -1.2523
18852TIP3    H277972   2.701   2.022   3.964  0.2227 -2.5297 -1.7273
18853TIP3   OH277973   2.155   1.952   2.476  0.0592  0.2675  0.3503
18853TIP3    H177974   2.223   2.006   2.516  0.1193  0.2790  0.2323
18853TIP3    H277975   2.201   1.874   2.447 -0.1180 -0.0743  0.9764
18854TIP3   OH277976   2.021   0.149   0.846 -0.0713  0.0557 -0.0855
18854TIP3    H177977   2.109   0.170   0.813 -0.5099  2.3844  0.1186
18854TIP3    H277978   2.015   0.197   0.928 -1.2024 -0.8579  0.3611
18855TIP3   OH277979   5.326   1.102  12.997  0.5907  0.6682  0.4420
18855TIP3    H177980   5.303   1.012  12.975  0.4706  0.9517 -0.6174
18855TIP3    H277981   5.421   1.106  12.986  0.4613  0.9608 -0.5941
18856TIP3   OH277982   1.020   0.757   4.397 -0.0069 -0.4923 -0.2114
18856TIP3    H177983   1.059   0.734   4.481 -0.4846 -0.6787 -0.0445
18856TIP3    H277984   1.005   0.852   4.403  0.4485 -0.4121 -0.2904
18857TIP3   OH277985   5.783   2.096  14.051 -0.3959  0.0133 -0.2510
18857TIP3    H177986   5.752   2.009  14.025  2.7763 -1.0181 -0.7861
18857TIP3    H277987   5.861   2.079  14.104 -2.1177  2.4010  3.2838
18858TIP3   OH277988   2.963   1.496  12.174 -0.0032  0.3882 -0.1120
18858TIP3    H177989   2.954   1.591  12.169  0.2746  0.4779  1.1119
18858TIP3    H277990   2.938   1.473  12.263  2.8583 -0.3620  0.5638
18859TIP3   OH277991   1.040   3.403  16.865 -0.4076  0.1409  0.4442
18859TIP3    H177992   1.020   3.361  16.949  0.6710  1.1576  1.2160
18859TIP3    H277993   0.958   3.446  16.840 -1.4253 -2.0894 -0.1879
18860TIP3   OH277994   5.851   3.941   4.849  0.6617  0.3291 -0.1782
18860TIP3    H177995   5.805   3.886   4.785  0.1412  0.2470  0.2580
18860TIP3    H277996   5.855   4.027   4.809 -2.1414  0.9691  0.8355
18861TIP3   OH277997   2.170   6.408  14.632  0.1564  0.0767  0.8659
18861TIP3    H177998   2.142   6.462  14.558  0.4282 -0.0475  0.6725
18861TIP3    H277999   2.223   6.339  14.593 -0.4567 -0.5197  1.0757
18862TIP3   OH278000   2.796   5.895   3.760 -0.0130 -0.5978  0.2562
18862TIP3    H178001   2.724   5.848   3.803 -1.3716  0.8936 -0.3277
18862TIP3    H278002   2.843   5.938   3.831 -0.2735 -0.8097  0.5578
18863TIP3   OH278003   0.694   4.827  12.969 -0.7507 -0.0186 -0.1355
18863TIP3    H178004   0.681   4.732  12.967  4.4008 -0.8834  0.4377
18863TIP3    H278005   0.695   4.849  13.062 -3.5505  0.9379 -0.2888
18864TIP3   OH278006   1.304   2.955  11.259 -0.5732 -0.0922 -0.6294
18864TIP3    H178007   1.343   2.914  11.182  1.9225 -0.7735  0.9169
18864TIP3    H278008   1.223   2.996  11.227  0.1506 -0.7770 -3.4641
18865TIP3   OH278009   0.794   0.197   3.642 -0.1459 -0.3543 -0.8520
18865TIP3    H178010   0.714   0.146   3.658 -0.0355 -0.0483  0.7379
18865TIP3    H278011   0.849   0.139   3.590 -0.4635 -1.4591  0.0253
18866TIP3   OH278012   2.195   5.388  13.179 -0.2239 -0.0893 -0.2977
18866TIP3    H178013   2.157   5.412  13.095  1.2503  0.9936 -0.6833
18866TIP3    H278014   2.249   5.310  13.160 -0.9153 -0.6232 -0.0882
18867TIP3   OH278015   1.088   0.783  13.019  0.0030  0.0732  0.0062
18867TIP3    H178016   1.048   0.857  13.065 -0.7524 -1.1686  1.4267
18867TIP3    H278017   1.182   0.796  13.031 -0.0963  1.2130 -0.4180
18868TIP3   OH278018   1.436   1.256  16.736  0.2656 -0.3894  0.0792
18868TIP3    H178019   1.476   1.184  16.688  0.8438  0.3555 -0.5818
18868TIP3    H278020   1.505   1.322  16.742 -0.7690  0.8101 -0.8513
18869TIP3   OH278021   4.842   2.929  11.924 -0.2249  0.3864  0.0359
18869TIP3    H178022   4.781   2.873  11.972 -0.3143 -0.9348 -1.5578
18869TIP3    H278023   4.802   2.938  11.837  1.1531  0.6696 -0.5812
18870TIP3   OH278024   0.737   5.505  16.222  0.0991 -0.1709 -0.3102
18870TIP3    H178025   0.668   5.454  16.264  0.6496 -0.8704 -0.2482
18870TIP3    H278026   0.810   5.503  16.283  0.3377  0.1704 -0.5818
18871TIP3   OH278027   2.600   3.352   1.666  0.2679  0.4904  0.4320
18871TIP3    H178028   2.529   3.313   1.615 -1.1379  1.5845  1.5176
18871TIP3    H278029   2.609   3.441   1.632  0.5013  0.6500  0.8991
18872TIP3   OH278030   1.489   2.093  12.222 -0.2866 -0.0149 -0.1053
18872TIP3    H178031   1.449   2.008  12.200 -2.4727  1.6548 -3.0127
18872TIP3    H278032   1.577   2.087  12.186 -0.5412 -0.9440 -0.6110
18873TIP3   OH278033   0.290   5.908  14.794  0.0215 -0.6541 -0.4970
18873TIP3    H178034   0.281   5.870  14.707 -0.5578 -0.6869 -0.4270
18873TIP3    H278035   0.359   5.974  14.785 -0.0927 -0.6042 -0.9989
18874TIP3   OH278036   5.028   3.899   3.187  0.2687 -1.0239 -0.2359
18874TIP3    H178037   5.051   3.976   3.136  1.4403 -1.5076 -0.4600
18874TIP3    H278038   4.937   3.880   3.163 -0.0675  0.3680 -0.0639
18875TIP3   OH278039   4.618   3.511   4.432  0.2878  0.3024 -0.2978
18875TIP3    H178040   4.665   3.592   4.413  1.3176 -0.4598 -1.0713
18875TIP3    H278041   4.538   3.540   4.476  0.2414  1.7911 -1.3076
18876TIP3   OH278042   3.689   5.556  12.905  0.2386  0.1236  0.6015
18876TIP3    H178043   3.623   5.555  12.974 -1.8214  0.2448 -1.3068
18876TIP3    H278044   3.668   5.634  12.853  0.7080 -0.8491 -1.1011
18877TIP3   OH278045   1.647   3.636   3.759  0.7718 -0.5624 -0.0235
18877TIP3    H178046   1.639   3.620   3.853  0.2592 -0.4319 -0.0461
18877TIP3    H278047   1.573   3.692   3.738  0.8256 -0.6814 -0.5261
18878TIP3   OH278048   1.714   4.108  16.812  0.0189 -0.4213 -0.3670
18878TIP3    H178049   1.740   4.108  16.904 -0.9227  1.9942 -0.0464
18878TIP3    H278050   1.697   4.016  16.791 -1.6824 -0.7963  2.4476
18879TIP3   OH278051   5.121   5.347   4.589 -0.1009 -0.2948  0.7488
18879TIP3    H178052   5.126   5.428   4.538  1.5432 -0.2478  0.9642
18879TIP3    H278053   5.195   5.352   4.649  0.8565 -2.6276 -0.1887
18880TIP3   OH278054   5.671   1.168   4.755  0.6609 -0.2298 -0.2774
18880TIP3    H178055   5.656   1.110   4.680  0.6773 -0.7793  0.1413
18880TIP3    H278056   5.764   1.159   4.774  0.6487 -0.1131 -0.1660
18881TIP3   OH278057   3.362   5.637   4.580 -0.6308 -0.2221  0.7321
18881TIP3    H178058   3.293   5.588   4.627 -1.1682  0.5232  0.7290
18881TIP3    H278059   3.428   5.654   4.647 -1.4804  1.0003  1.2887
18882TIP3   OH278060   5.792   6.041   3.235  0.0326 -0.1489  0.0230
18882TIP3    H178061   5.747   6.014   3.315  0.7708 -1.8870 -0.1288
18882TIP3    H278062   5.751   5.990   3.166  2.6211 -2.2317 -0.0450
18883TIP3   OH278063   3.081   0.972  14.690 -0.5612  0.4418 -0.4757
18883TIP3    H178064   3.001   1.025  14.699 -0.4373  0.8130 -1.4723
18883TIP3    H278065   3.054   0.884  14.715 -1.5974  0.3192 -1.9518
18884TIP3   OH278066   5.710   6.335  11.206  0.2610  0.3565  0.1423
18884TIP3    H178067   5.689   6.410  11.151  0.4057 -1.0789 -1.9183
18884TIP3    H278068   5.805   6.326  11.199  0.1756 -0.3762 -0.1051
18885TIP3   OH278069   4.109   1.043   2.257 -0.4411 -0.0322  0.4528
18885TIP3    H178070   4.022   1.059   2.295 -0.2417  0.5299  0.6663
18885TIP3    H278071   4.157   1.124   2.271 -0.1551 -0.0464 -0.4358
18886TIP3   OH278072   3.134   2.924  16.513  0.0498  0.3329  0.3397
18886TIP3    H178073   3.061   2.963  16.560 -0.8023 -1.0775  0.2183
18886TIP3    H278074   3.093   2.881  16.437  1.0124 -0.3868  0.2257
18887TIP3   OH278075   0.991   3.355  14.535 -0.2059 -0.3293  0.1645
18887TIP3    H178076   0.908   3.346  14.582  0.4344 -3.2440  0.8576
18887TIP3    H278077   1.056   3.368  14.604  0.3499 -1.5964 -0.1034
18888TIP3   OH278078   3.560   6.087   0.595  0.2509 -0.2147 -0.1971
18888TIP3    H178079   3.607   6.127   0.522 -0.5462  0.8555 -0.1343
18888TIP3    H278080   3.617   6.016   0.624  1.1923  0.2022 -0.9962
18889TIP3   OH278081   3.410   3.825  12.245 -0.4445 -0.1495 -0.1492
18889TIP3    H178082   3.411   3.877  12.325  0.9300 -0.1992 -0.1314
18889TIP3    H278083   3.349   3.753  12.264  0.0188 -0.2657  0.9263
18890TIP3   OH278084   2.627   5.541   4.676  0.1530 -0.4959  0.3359
18890TIP3    H178085   2.631   5.630   4.712 -1.0694 -1.0943  2.0017
18890TIP3    H278086   2.572   5.549   4.599  0.3347  0.2621  0.2762
18891TIP3   OH278087   6.115   3.366   4.257 -0.0701  0.0567 -0.0842
18891TIP3    H178088   6.179   3.312   4.211 -2.0059 -0.4576 -2.2795
18891TIP3    H278089   6.090   3.433   4.193  0.2949  1.9355  1.6801
18892TIP3   OH278090   4.328   2.390   6.119 -0.3054 -0.0513  0.1710
18892TIP3    H178091   4.270   2.343   6.059  1.5231 -1.0027 -0.8992
18892TIP3    H278092   4.363   2.322   6.177  0.0321  0.4547  0.5663
18893TIP3   OH278093   4.246   1.653  11.663  0.4225  0.0379  0.0807
18893TIP3    H178094   4.161   1.676  11.625 -0.5789  0.3609  2.4710
18893TIP3    H278095   4.289   1.737  11.678  0.1616 -0.0027  1.0999
18894TIP3   OH278096   1.640   0.220  10.878  0.7160 -0.1504  0.3169
18894TIP3    H178097   1.681   0.141  10.843  1.2069  0.4178 -0.4006
18894TIP3    H278098   1.692   0.292  10.842 -0.0487  0.5182  0.5382
18895TIP3   OH278099   2.014   2.668   3.789  0.0787 -0.1721  0.3622
18895TIP3    H178100   1.977   2.756   3.795  1.8144  0.5092  1.3603
18895TIP3    H278101   2.005   2.645   3.696  1.7301  2.0006 -0.3622
18896TIP3   OH278102   2.904   5.304   1.024 -0.1048 -0.0560  0.5110
18896TIP3    H178103   2.913   5.215   0.989 -0.4816  0.5323 -1.1619
18896TIP3    H278104   2.924   5.295   1.117  0.6820 -1.7470  0.2153
18897TIP3   OH278105   5.291   2.406  16.969 -0.1050  0.1542 -0.2967
18897TIP3    H178106   5.206   2.421  17.010  1.0719 -0.4544  2.4836
18897TIP3    H278107   5.329   2.334  17.019  1.7303 -0.1103 -2.0223
18898TIP3   OH278108   4.898   1.199  11.148 -0.6295 -0.2735 -0.2151
18898TIP3    H178109   4.836   1.145  11.197  1.5372 -1.8834  0.8110
18898TIP3    H278110   4.888   1.171  11.057 -0.3003 -1.6635  0.1617
18899TIP3   OH278111   1.596   0.633   2.146  0.5127 -0.1998 -0.1529
18899TIP3    H178112   1.571   0.662   2.058  0.4162 -0.0743 -0.0851
18899TIP3    H278113   1.676   0.682   2.165  0.7086 -0.4648 -0.2973
18900TIP3   OH278114   3.187   1.528   5.293 -0.7559 -0.4349 -0.2102
18900TIP3    H178115   3.222   1.457   5.346  0.4098  1.3490  1.4823
18900TIP3    H278116   3.253   1.597   5.298 -2.2059  1.0764 -1.1684
18901TIP3   OH278117   4.206   3.702   4.719 -0.0688  0.6016  0.7274
18901TIP3    H178118   4.114   3.728   4.715 -0.9868 -2.4380  0.6192
18901TIP3    H278119   4.227   3.677   4.630  0.8297  1.1058  0.7942
18902TIP3   OH278120   6.039   3.365   5.667 -0.0121  0.6704  0.3115
18902TIP3    H178121   6.121   3.407   5.643  0.3764 -0.6078 -0.5827
18902TIP3    H278122   6.006   3.327   5.586 -0.2076 -1.0171  1.1525
18903TIP3   OH278123   2.308   5.506  11.917  0.2815 -0.0256 -0.4181
18903TIP3    H178124   2.351   5.420  11.917 -1.2417 -0.8097  0.5485
18903TIP3    H278125   2.237   5.497  11.853 -1.1336 -0.1505  1.1445
18904TIP3   OH278126   2.342   4.633  16.348 -0.1474  0.2164 -0.0810
18904TIP3    H178127   2.265   4.654  16.401  0.4439  0.6288  0.6240
18904TIP3    H278128   2.367   4.717  16.309 -0.2588  0.0157 -0.5848
18905TIP3   OH278129   2.157   3.951   3.104 -0.1167 -0.2869 -0.2261
18905TIP3    H178130   2.165   3.926   3.012  1.6798  1.1117 -0.4634
18905TIP3    H278131   2.148   4.046   3.103  0.5210 -0.2007  1.0703
18906TIP3   OH278132   3.807   2.655  15.152 -0.4787 -0.1931  0.2879
18906TIP3    H178133   3.738   2.597  15.184 -2.0551 -0.4967 -3.4904
18906TIP3    H278134   3.766   2.741  15.147  0.3908  0.2765  1.1272
18907TIP3   OH278135   4.236   2.314  15.855  0.2519  0.2545  0.3666
18907TIP3    H178136   4.189   2.385  15.812  0.2207 -0.5809 -0.9882
18907TIP3    H278137   4.307   2.293  15.796  0.2973 -0.8045  0.7944
18908TIP3   OH278138   3.060   3.224  17.236 -0.0770 -0.1404 -0.1308
18908TIP3    H178139   3.045   3.269  17.153 -0.9181 -0.8260 -0.3598
18908TIP3    H278140   3.121   3.153  17.215 -0.8405 -0.7441 -0.2991
18909TIP3   OH278141   5.085   2.139   0.291 -0.6380  0.2701  0.4399
18909TIP3    H178142   5.148   2.208   0.270  0.4938 -0.7780  0.2840
18909TIP3    H278143   4.999   2.178   0.274  0.0453  1.1017 -1.1923
18910TIP3   OH278144   5.723   1.541  16.793  0.3551 -0.4456 -0.1753
18910TIP3    H178145   5.741   1.552  16.886 -1.4880 -0.6621  0.2157
18910TIP3    H278146   5.680   1.456  16.786  1.4289 -0.9060 -1.3710
18911TIP3   OH278147   4.040   2.789  13.861  0.3532  0.3771 -0.1276
18911TIP3    H178148   4.072   2.828  13.779  1.3934 -1.2942 -0.5364
18911TIP3    H278149   4.118   2.780  13.916  0.3021 -1.9031 -0.3733
18912TIP3   OH278150   1.799   5.455  16.718  0.3858  0.7294 -0.4702
18912TIP3    H178151   1.840   5.499  16.793  1.1394  1.1363 -1.1099
18912TIP3    H278152   1.873   5.420  16.668 -0.1884 -1.1671 -0.0410
18913TIP3   OH278153   4.126   3.967  16.489 -0.2371 -0.3151 -0.1209
18913TIP3    H178154   4.164   3.925  16.412 -0.5539  0.1015 -0.5119
18913TIP3    H278155   4.193   4.030  16.517 -1.3036  1.6921 -1.8666
18914TIP3   OH278156   2.126   4.545  15.593  0.2211 -0.7460  0.2201
18914TIP3    H178157   2.180   4.550  15.514  4.7408 -2.3586  2.9929
18914TIP3    H278158   2.110   4.637  15.617  0.2435 -0.2479 -1.6041
18915TIP3   OH278159   5.077   1.493   2.580  0.0797 -0.4059 -0.4568
18915TIP3    H178160   5.003   1.537   2.622 -0.9102 -0.9657 -1.5887
18915TIP3    H278161   5.119   1.560   2.526  0.3032 -0.1379  0.0411
18916TIP3   OH278162   0.832   3.814  15.670 -0.1031 -0.0029 -0.2527
18916TIP3    H178163   0.880   3.890  15.636 -2.0823  0.5582 -1.8704
18916TIP3    H278164   0.899   3.764  15.718  2.0631  0.8700 -2.2404
18917TIP3   OH278165   3.419   2.689   3.355  0.2500 -0.0021  0.2826
18917TIP3    H178166   3.413   2.781   3.379 -1.0389  0.2852 -1.0915
18917TIP3    H278167   3.513   2.670   3.353  0.7544  2.4869 -3.8998
18918TIP3   OH278168   1.981   5.306  16.555 -0.2221  0.2485  0.0031
18918TIP3    H178169   1.912   5.278  16.494 -0.4660 -1.6962  1.1405
18918TIP3    H278170   2.043   5.354  16.500  0.7109 -3.3386 -2.2978
18919TIP3   OH278171   2.471   3.416  11.652 -0.3784  0.5572 -0.2980
18919TIP3    H178172   2.393   3.416  11.597 -0.4783  0.1368 -0.1540
18919TIP3    H278173   2.541   3.386  11.594 -0.6971 -1.0072  0.1039
18920TIP3   OH278174   0.951   1.288  13.173  0.4734  0.1898  0.0304
18920TIP3    H178175   0.916   1.268  13.260 -0.8001 -0.3504 -0.5879
18920TIP3    H278176   0.935   1.381  13.161  0.4558  0.2193  0.2838
18921TIP3   OH278177   6.636   5.794   5.605 -0.5190  0.4326  0.0804
18921TIP3    H178178   6.616   5.845   5.683  0.1441  1.1558 -0.2147
18921TIP3    H278179   6.730   5.774   5.614 -0.5090  0.2706 -0.3852
18922TIP3   OH278180   5.595   1.476  13.664 -0.2285  1.3311 -0.5396
18922TIP3    H178181   5.615   1.464  13.571 -1.1081 -0.7824 -0.4747
18922TIP3    H278182   5.603   1.388  13.702 -1.4340  1.9003  1.0771
18923TIP3   OH278183   3.478   4.925   6.430 -0.2151 -0.4398  0.3841
18923TIP3    H178184   3.562   4.901   6.392 -0.1361 -0.2765  0.4599
18923TIP3    H278185   3.442   4.842   6.461  0.4877 -0.3296  1.5103
18924TIP3   OH278186   5.679   5.555   2.041  0.6939  0.3180  0.2604
18924TIP3    H178187   5.631   5.587   2.118 -1.6645  0.7603 -1.3626
18924TIP3    H278188   5.760   5.518   2.078 -0.4146  0.4424  2.9630
18925TIP3   OH278189   5.099   4.172  14.666  0.3815 -0.1081 -0.4007
18925TIP3    H178190   5.162   4.208  14.729  1.5535 -0.9375 -1.0795
18925TIP3    H278191   5.014   4.189  14.706  1.0883 -0.3655  1.2979
18926TIP3   OH278192   2.960   4.391  14.251 -0.1675  0.2768 -0.1134
18926TIP3    H178193   2.879   4.440  14.244 -0.5259 -0.0524  1.5080
18926TIP3    H278194   2.934   4.305  14.285  0.7200 -0.2289 -0.6810
18927TIP3   OH278195   6.525   1.403   3.590 -0.1460  0.6732  0.5047
18927TIP3    H178196   6.538   1.340   3.661  0.2739  0.8721  0.6064
18927TIP3    H278197   6.519   1.349   3.511  2.0887  0.6161  0.3523
18928TIP3   OH278198   1.408   2.934  13.775  0.3883 -0.2204  0.1625
18928TIP3    H178199   1.367   3.009  13.731 -0.3906 -0.6370  0.1734
18928TIP3    H278200   1.485   2.914  13.721  2.2771  2.4213  1.7650
18929TIP3   OH278201   1.007   2.937  12.330  0.2150 -0.1813  1.2212
18929TIP3    H178202   0.968   2.900  12.251  1.3168 -1.0720  1.0805
18929TIP3    H278203   0.946   3.006  12.357 -0.3220 -0.0760 -0.2228
18930TIP3   OH278204   4.501   6.462   5.562 -0.5320 -0.0755  0.3656
18930TIP3    H178205   4.431   6.417   5.514 -0.2812 -1.4287  1.2383
18930TIP3    H278206   4.464   6.547   5.585 -0.9160  0.2982 -1.5721
18931TIP3   OH278207   3.707   5.004   3.578 -0.2962  0.3964 -0.2117
18931TIP3    H178208   3.699   5.074   3.513  0.7452 -0.5725 -1.4226
18931TIP3    H278209   3.795   4.970   3.565 -0.8723 -1.2847  0.2162
18932TIP3   OH278210   4.371   0.936   1.378 -0.0353 -0.4409 -0.0004
18932TIP3    H178211   4.278   0.920   1.364  0.5009 -1.4680 -2.5921
18932TIP3    H278212   4.414   0.855   1.350  1.7399  0.5477 -0.2193
18933TIP3   OH278213   2.449   3.962  12.726  0.5062 -0.2081  0.5540
18933TIP3    H178214   2.431   3.873  12.697  2.6908  0.1143 -2.0367
18933TIP3    H278215   2.545   3.966  12.733  0.5131  2.2130 -0.4734
18934TIP3   OH278216   5.861   0.883   2.942  0.1931  0.0838  0.3964
18934TIP3    H178217   5.844   0.918   2.854 -0.2251  1.6081  1.0758
18934TIP3    H278218   5.807   0.804   2.946 -0.2441  0.3215 -0.5129
18935TIP3   OH278219   4.923   6.057  12.774 -0.5596 -0.1383 -0.5333
18935TIP3    H178220   4.853   6.061  12.709 -0.6863  3.0549 -0.3125
18935TIP3    H278221   4.988   6.121  12.743 -0.1549  0.6887  1.9037
18936TIP3   OH278222   4.882   4.355   3.579  0.3407 -0.4166  0.6167
18936TIP3    H178223   4.827   4.317   3.647  1.1675 -2.7251  0.0259
18936TIP3    H278224   4.971   4.352   3.615  0.4664  0.6783  0.4313
18937TIP3   OH278225   4.657   5.223   6.275  0.0837 -0.3903 -0.0920
18937TIP3    H178226   4.639   5.129   6.277  0.3195 -0.4791 -1.3769
18937TIP3    H278227   4.573   5.263   6.252  0.3078 -0.3974 -0.9271
18938TIP3   OH278228   2.720   2.290   5.926  0.6014  0.7455  0.3753
18938TIP3    H178229   2.681   2.358   5.981  2.8505  1.1220  1.5236
18938TIP3    H278230   2.668   2.211   5.946  1.0216  1.0104  2.6224
18939TIP3   OH278231   4.390   3.965  15.411  0.1144  0.7598 -0.4057
18939TIP3    H178232   4.339   4.035  15.370 -2.1875 -0.5005  0.2157
18939TIP3    H278233   4.387   3.893  15.348 -1.9528 -0.5760  1.1980
18940TIP3   OH278234   0.263   5.991   5.883  0.0583  1.1295  0.1479
18940TIP3    H178235   0.204   6.066   5.890  0.0274  1.3780 -2.4612
18940TIP3    H278236   0.321   6.012   5.810  1.0962 -0.6734  0.4129
18941TIP3   OH278237   2.244   1.106  11.978  0.1223 -0.6431  0.7624
18941TIP3    H178238   2.156   1.084  12.007 -0.5933  2.2002  0.9831
18941TIP3    H278239   2.274   1.171  12.042  2.6584 -2.0888  1.0848
18942TIP3   OH278240   1.620   2.950   0.111 -0.7015 -0.3544 -0.2153
18942TIP3    H178241   1.636   2.857   0.097  0.2337 -0.3004  0.5063
18942TIP3    H278242   1.554   2.953   0.181 -1.3987 -0.4885 -0.8577
18943TIP3   OH278243   4.426   4.585   4.313  0.3518  0.4894 -0.4153
18943TIP3    H178244   4.415   4.510   4.255  0.5741  0.0472  0.1057
18943TIP3    H278245   4.395   4.554   4.398 -2.0770  1.8196 -0.7732
18944TIP3   OH278246   1.760   1.602   3.751 -0.2107 -0.3114 -0.3667
18944TIP3    H178247   1.823   1.575   3.684  0.1235 -2.3781  0.7304
18944TIP3    H278248   1.715   1.521   3.775 -0.2304  0.3708  1.9998
18945TIP3   OH278249   5.339   1.733  12.261 -0.0188 -0.0540  0.8020
18945TIP3    H178250   5.433   1.716  12.268  0.1734  0.6225 -0.0960
18945TIP3    H278251   5.332   1.826  12.241 -0.7382 -0.7079 -2.2844
18946TIP3   OH278252   6.623   1.278   4.481 -0.2465  0.0420 -0.0378
18946TIP3    H178253   6.631   1.371   4.501  0.1411  0.3300 -1.4242
18946TIP3    H278254   6.686   1.235   4.538 -0.5741  0.6002  0.7545
18947TIP3   OH278255   3.145   1.809  13.430  0.2528  0.1609  0.3916
18947TIP3    H178256   3.168   1.719  13.408  0.1488  0.2555 -0.1133
18947TIP3    H278257   3.169   1.818  13.522  0.7329 -0.2284  0.3040
18948TIP3   OH278258   2.516   0.302   1.337 -0.4254 -0.5905  0.2737
18948TIP3    H178259   2.582   0.371   1.337  0.2945 -1.2642  1.0804
18948TIP3    H278260   2.538   0.247   1.262 -1.3894  0.4116 -0.7573
18949TIP3   OH278261   3.813   3.003  15.339 -0.0343  0.0934  0.1954
18949TIP3    H178262   3.817   3.025  15.246  1.0007  1.0465  0.4503
18949TIP3    H278263   3.873   2.929  15.349  1.9121  1.6746  0.5426
18950TIP3   OH278264   3.880   1.518  16.175 -0.4136 -0.2090 -0.5015
18950TIP3    H178265   3.808   1.564  16.131  1.1435  2.4990 -0.3345
18950TIP3    H278266   3.951   1.583  16.178  1.1025 -1.9298  1.7671
18951TIP3   OH278267   0.830   2.285   2.627  0.3272  0.2569  0.3076
18951TIP3    H178268   0.893   2.233   2.576  1.0822  1.1429  0.3270
18951TIP3    H278269   0.877   2.365   2.648 -0.7535  0.8494  0.4856
18952TIP3   OH278270   2.807   3.268   3.292 -0.4036  0.2526 -0.1350
18952TIP3    H178271   2.731   3.211   3.277 -0.5090  0.5663 -0.8310
18952TIP3    H278272   2.840   3.286   3.204  0.0251  0.7344  0.1255
18953TIP3   OH278273   3.743   1.576  12.080 -0.0736  0.2257  0.0482
18953TIP3    H178274   3.659   1.585  12.126 -0.2466  1.3522 -0.4688
18953TIP3    H278275   3.800   1.641  12.121  0.3460 -0.0754 -0.0569
18954TIP3   OH278276   0.668   1.542   5.825  0.7375  0.1213 -0.6963
18954TIP3    H178277   0.613   1.484   5.877 -0.8272  1.7598 -0.4727
18954TIP3    H278278   0.679   1.497   5.741  1.6746 -1.6410  0.3426
18955TIP3   OH278279   3.303   4.223  14.664 -0.6826 -0.0585 -0.0187
18955TIP3    H178280   3.231   4.280  14.690 -0.6851 -0.3825  0.6829
18955TIP3    H278281   3.351   4.205  14.745 -0.9870 -1.4728 -0.1396
18956TIP3   OH278282   4.004   4.955   5.827 -0.0739 -0.4757 -0.2428
18956TIP3    H178283   3.971   4.869   5.853  1.5597 -0.6377  1.4127
18956TIP3    H278284   4.099   4.947   5.835  0.2176  0.9001 -1.9714
18957TIP3   OH278285   5.729   6.685  14.589  0.2458  0.5800  0.2592
18957TIP3    H178286   5.719   6.684  14.493  0.5311  0.6937  0.2279
18957TIP3    H278287   5.791   6.614  14.607 -1.9223 -1.3045  0.6077
18958TIP3   OH278288   4.258   4.286  13.570  0.9673  0.2455  0.2417
18958TIP3    H178289   4.263   4.382  13.571 -0.6868  0.3576  1.2633
18958TIP3    H278290   4.206   4.265  13.648 -0.3738 -1.3563 -1.0563
18959TIP3   OH278291   3.478   6.602  16.847  0.3924  0.1096 -0.2034
18959TIP3    H178292   3.450   6.689  16.818 -0.3384 -0.5260 -1.4120
18959TIP3    H278293   3.539   6.573  16.780 -0.1269 -0.7294 -0.3132
18960TIP3   OH278294   5.011   5.210  13.822  0.3642  0.0964  0.3167
18960TIP3    H178295   5.006   5.217  13.917  0.9657  2.6938  0.1821
18960TIP3    H278296   5.004   5.300  13.790  1.3195 -0.6176 -2.0460
18961TIP3   OH278297   1.316   4.191  15.678  0.4663  0.1869 -0.0730
18961TIP3    H178298   1.227   4.195  15.713  0.9623  0.1073  1.2227
18961TIP3    H278299   1.332   4.279  15.642  0.5356  0.7719  1.3691
18962TIP3   OH278300   4.823   5.733  13.172 -0.2352 -0.3238  0.5176
18962TIP3    H178301   4.914   5.760  13.161  0.2161 -2.1431 -0.5442
18962TIP3    H278302   4.826   5.671  13.245 -0.8943  0.8263  1.5296
18963TIP3   OH278303   2.710   6.265   5.502 -0.4147 -0.1527  0.6000
18963TIP3    H178304   2.625   6.299   5.474 -0.5108  0.6149  1.7919
18963TIP3    H278305   2.693   6.221   5.585  0.1376 -1.0739  0.2329
18964TIP3   OH278306   0.007   3.784  15.839 -0.5916  0.8336 -0.1532
18964TIP3    H178307   0.077   3.849  15.824 -1.4098  1.3476 -1.9208
18964TIP3    H278308   0.022   3.753  15.928  0.7906  2.2888  0.1562
18965TIP3   OH278309   1.711   5.377  11.372  0.2058  0.4026  0.3918
18965TIP3    H178310   1.644   5.331  11.422  0.7057 -0.4913  0.2560
18965TIP3    H278311   1.705   5.339  11.284  0.8164  0.3815  0.3578
18966TIP3   OH278312   6.670   6.026   0.332  0.1908  0.3197 -0.2648
18966TIP3    H178313   6.626   5.942   0.323  1.8618 -0.3528 -2.5662
18966TIP3    H278314   6.601   6.087   0.357 -1.0888 -1.6539  1.1281
18967TIP3   OH278315   0.508   3.271   1.330  0.4099  0.0215  0.0925
18967TIP3    H178316   0.586   3.328   1.338  0.9197 -0.3010 -2.2457
18967TIP3    H278317   0.544   3.183   1.321 -0.2897 -0.3146  0.5880
18968TIP3   OH278318   6.557   2.322  13.833  0.2031  0.0425  0.3788
18968TIP3    H178319   6.532   2.415  13.829  0.0631  0.0137  0.5680
18968TIP3    H278320   6.650   2.324  13.856  0.1267  0.1319  0.6899
18969TIP3   OH278321   5.943   5.286   2.372 -0.1980  0.2661 -0.5310
18969TIP3    H178322   5.928   5.261   2.463  1.2025 -4.2241 -1.4126
18969TIP3    H278323   5.865   5.255   2.325  0.3131  0.0857 -1.2682
18970TIP3   OH278324   2.455   0.099   4.355 -0.0064  0.5223  0.3996
18970TIP3    H178325   2.416   0.179   4.319 -3.1164 -1.4484 -0.8516
18970TIP3    H278326   2.512   0.068   4.286  0.2049  0.9647  0.3704
18971TIP3   OH278327   5.462   4.287   0.434  0.2695  0.2237 -0.1659
18971TIP3    H178328   5.527   4.354   0.455  0.3448 -0.0352  0.4143
18971TIP3    H278329   5.381   4.337   0.421 -0.1041  0.2540  2.1618
18972TIP3   OH278330   6.384   1.624   0.118  0.0451 -0.1496 -0.6520
18972TIP3    H178331   6.395   1.578   0.202 -0.4614  0.3405 -0.3150
18972TIP3    H278332   6.318   1.691   0.136  1.5757  1.4345 -0.8411
18973TIP3   OH278333   4.264   6.088  16.448 -0.1612 -0.1650  0.9029
18973TIP3    H178334   4.213   6.063  16.371 -0.1226 -0.0702  0.8449
18973TIP3    H278335   4.305   6.171  16.424 -0.4496  0.0533  1.1611
18974TIP3   OH278336   5.245   3.918  16.280  0.1991  0.6788  0.3577
18974TIP3    H178337   5.304   3.975  16.328 -1.1634  0.3142  2.5984
18974TIP3    H278338   5.160   3.929  16.324 -0.7399 -0.8934 -0.9686
18975TIP3   OH278339   5.901   6.754   0.002 -0.1076  0.1592  0.1105
18975TIP3    H178340   5.833   6.821   0.010 -0.4870 -0.1497 -0.4454
18975TIP3    H278341   5.947   6.777  -0.079 -1.2944 -1.1983 -0.9587
18976TIP3   OH278342   5.351   3.484   0.746  0.3755 -0.5171  0.2065
18976TIP3    H178343   5.271   3.434   0.732 -0.3889  0.8375 -0.4632
18976TIP3    H278344   5.415   3.443   0.688 -0.2488 -0.6968 -0.3690
18977TIP3   OH278345   2.766   0.709   6.748 -0.3446  0.5055  0.2045
18977TIP3    H178346   2.854   0.694   6.715  0.5762 -0.6006  3.0483
18977TIP3    H278347   2.717   0.631   6.721 -0.2286  0.6606 -0.4844
18978TIP3   OH278348   2.140   6.141  12.126 -0.4678 -0.0910 -0.4241
18978TIP3    H178349   2.089   6.079  12.178  0.1101 -0.3323 -0.1474
18978TIP3    H278350   2.228   6.137  12.163 -0.5491  1.2873 -0.0565
18979TIP3   OH278351   6.067   5.054  10.621  0.0665  0.0830 -0.2191
18979TIP3    H178352   6.148   5.099  10.599 -0.4350  1.3549  0.5092
18979TIP3    H278353   6.095   4.968  10.653  1.0818  0.2700 -0.6100
18980TIP3   OH278354   0.554   3.544  12.596  0.2832  0.1166 -0.1947
18980TIP3    H178355   0.497   3.567  12.523 -0.8027 -0.4009  0.4873
18980TIP3    H278356   0.499   3.554  12.674  0.0169 -3.8706  0.2082
18981TIP3   OH278357   4.695   3.413   5.282 -0.0267  0.1546  0.5736
18981TIP3    H178358   4.602   3.433   5.275  0.0107  0.4284  0.8565
18981TIP3    H278359   4.732   3.439   5.198 -0.6635 -2.4595 -0.5819
18982TIP3   OH278360   0.313   2.624   0.880  0.2175 -0.3769  0.0299
18982TIP3    H178361   0.403   2.623   0.913  0.8585  1.6142 -1.6203
18982TIP3    H278362   0.268   2.688   0.936 -0.0432 -0.9203  0.4529
18983TIP3   OH278363   5.982   1.393   1.756  0.0523  0.2467  0.6584
18983TIP3    H178364   6.009   1.309   1.794  0.5016 -0.0294 -0.2545
18983TIP3    H278365   6.063   1.444   1.754 -0.1041  0.4915  0.6581
18984TIP3   OH278366   4.655   5.245   2.915 -0.1428 -0.4461 -0.2241
18984TIP3    H178367   4.626   5.210   2.999 -2.8348  1.0391 -0.4440
18984TIP3    H278368   4.581   5.228   2.856  0.2933  1.5755 -1.3991
18985TIP3   OH278369   2.675   3.775  14.605 -0.0522 -0.6411  0.3052
18985TIP3    H178370   2.585   3.780  14.575  0.1197 -0.9188 -0.2674
18985TIP3    H278371   2.669   3.745  14.696 -0.5055 -1.1924  0.0940
18986TIP3   OH278372   0.143   5.184  15.885  0.1757 -0.2695 -0.0536
18986TIP3    H178373   0.194   5.122  15.832 -0.5083 -1.0377  0.1782
18986TIP3    H278374   0.058   5.142  15.896 -0.6331  1.1773 -0.7322
18987TIP3   OH278375   5.733   0.298   6.118  0.1010 -0.4867 -0.0407
18987TIP3    H178376   5.783   0.377   6.139  0.1491 -1.0369  1.9590
18987TIP3    H278377   5.689   0.274   6.199  0.1443 -2.5561 -0.5970
18988TIP3   OH278378   5.275   3.819   2.109  0.3828 -0.0706  0.4486
18988TIP3    H178379   5.187   3.837   2.074  0.1944  0.9576  1.4182
18988TIP3    H278380   5.259   3.771   2.190  0.8441 -3.1768 -1.2483
18989TIP3   OH278381   5.106   6.062   3.447  0.2002  0.3928  0.6888
18989TIP3    H178382   5.155   6.143   3.436 -1.2009  1.2174  0.4219
18989TIP3    H278383   5.135   6.006   3.375 -0.3231  1.4289 -0.3424
18990TIP3   OH278384   6.129   1.880  11.805  0.1249 -0.4576  0.3850
18990TIP3    H178385   6.090   1.957  11.763  3.0014  0.4766 -0.7463
18990TIP3    H278386   6.081   1.870  11.887 -2.3112  0.7005 -0.8602
18991TIP3   OH278387   0.981   0.031  14.422 -0.5205 -0.4017 -0.0084
18991TIP3    H178388   0.942   0.101  14.473  0.7067  1.3571 -1.4415
18991TIP3    H278389   1.069   0.021  14.457 -1.0912 -2.0983  1.0067
18992TIP3   OH278390   6.171   2.074  11.586 -0.2356 -0.2964 -0.1302
18992TIP3    H178391   6.156   2.167  11.572 -0.3312 -0.1257  1.0686
18992TIP3    H278392   6.265   2.066  11.602 -0.4307 -0.1994  1.1829
18993TIP3   OH278393   4.859   4.695  14.240 -0.5848  0.0330 -0.3097
18993TIP3    H178394   4.952   4.714  14.251 -0.3110 -0.1835 -2.1553
18993TIP3    H278395   4.842   4.622  14.300  0.1528  0.8216  0.8929
18994TIP3   OH278396   2.774   5.256   3.964 -0.1917 -0.5937  0.0119
18994TIP3    H178397   2.827   5.317   3.913 -0.2211 -0.0113  0.6760
18994TIP3    H278398   2.831   5.228   4.036 -0.0710 -1.5862 -0.4559
18995TIP3   OH278399   1.720   2.913   1.738  0.3716 -0.2173 -0.3912
18995TIP3    H178400   1.714   2.980   1.806  0.0510 -0.4014 -0.2358
18995TIP3    H278401   1.653   2.939   1.674  0.2054 -0.4269 -0.2999
18996TIP3   OH278402   0.776   4.184  13.551 -0.6195 -0.1844 -0.0086
18996TIP3    H178403   0.729   4.180  13.634  0.3948  1.7608  0.6856
18996TIP3    H278404   0.729   4.123  13.493 -1.3233 -1.5550  1.9690
18997TIP3   OH278405   1.080   0.255   3.636  0.0735 -0.2142 -0.1182
18997TIP3    H178406   1.047   0.310   3.565  1.9200  0.7717 -0.2309
18997TIP3    H278407   1.086   0.314   3.711 -1.3458 -1.1246  0.7406
18998TIP3   OH278408   3.570   4.458   2.813  0.1936  0.4584 -0.0938
18998TIP3    H178409   3.506   4.394   2.842  0.5392 -0.3679 -1.1050
18998TIP3    H278410   3.519   4.533   2.785 -0.2660  0.2711  0.2465
18999TIP3   OH278411   3.890   1.665   5.775  0.0490  0.7756 -0.2459
18999TIP3    H178412   3.916   1.700   5.860 -1.6736  0.7561  0.2992
18999TIP3    H278413   3.796   1.680   5.771 -0.2720 -1.4087 -1.1278
19000TIP3   OH278414   6.733   0.067  16.553 -0.1338  0.4861  0.2670
19000TIP3    H178415   6.737  -0.003  16.488 -0.5086  1.1443 -0.4737
19000TIP3    H278416   6.718   0.146  16.502 -2.5049  0.7385  1.2884
19001TIP3   OH278417   2.739   4.661   4.504  0.2744  0.1706  0.2261
19001TIP3    H178418   2.673   4.607   4.458  1.3041 -1.4129  0.5642
19001TIP3    H278419   2.696   4.746   4.515 -1.0450 -0.2681 -1.1779
19002TIP3   OH278420   2.278   0.534  15.995 -0.2136 -0.5718  0.1382
19002TIP3    H178421   2.274   0.595  15.922 -0.4977 -0.9787 -0.1924
19002TIP3    H278422   2.188   0.531  16.028 -0.3212 -1.2580 -0.2174
19003TIP3   OH278423   1.085   3.811   4.485  0.2353  0.3152  0.5523
19003TIP3    H178424   1.094   3.716   4.498 -1.3741  0.1792  0.8816
19003TIP3    H278425   1.051   3.819   4.396  0.4060  0.5884  0.5130
19004TIP3   OH278426   0.404   0.085   2.670  0.0954  0.0577  0.2509
19004TIP3    H178427   0.390  -0.009   2.682  2.0513 -0.3549 -0.5143
19004TIP3    H278428   0.342   0.110   2.601  0.1904 -0.8418 -0.1551
19005TIP3   OH278429   5.057   5.526   3.709 -0.2612 -0.6045 -0.0276
19005TIP3    H178430   5.031   5.460   3.773  0.5746  0.0727  1.0175
19005TIP3    H278431   4.975   5.570   3.686 -0.3928  0.0297  1.5775
19006TIP3   OH278432   3.728   0.609   1.311 -0.1169  0.5921 -0.1349
19006TIP3    H178433   3.817   0.590   1.281 -0.0127 -1.8269  1.6220
19006TIP3    H278434   3.737   0.632   1.404 -1.3547  0.1154  0.1209
19007TIP3   OH278435   0.469   1.029   5.961  0.1694 -0.0151  0.1159
19007TIP3    H178436   0.493   1.122   5.956  0.8535 -0.1684  0.4618
19007TIP3    H278437   0.542   0.988   6.008 -0.4359 -0.6166  0.5477
19008TIP3   OH278438   3.988   5.760   2.946 -0.5372 -0.2407  0.2397
19008TIP3    H178439   3.899   5.790   2.928 -0.2225 -0.3177 -1.4781
19008TIP3    H278440   4.029   5.834   2.991 -0.9491  0.4552 -0.5039
19009TIP3   OH278441   0.609   2.899   2.626 -0.1357 -0.8695  0.0357
19009TIP3    H178442   0.668   2.927   2.697  1.0871 -1.2949 -0.7954
19009TIP3    H278443   0.563   2.979   2.600  0.3752 -0.4486  0.4165
19010TIP3   OH278444   5.627   3.267   4.672 -0.5098 -0.1573  0.2479
19010TIP3    H178445   5.585   3.315   4.744 -0.5352 -1.5242  1.1654
19010TIP3    H278446   5.710   3.238   4.709 -0.2628 -0.3657 -0.4737
19011TIP3   OH278447   2.430   1.005  12.812  0.4098  0.2422 -0.2187
19011TIP3    H178448   2.361   0.940  12.827  1.3376 -0.6234  0.3844
19011TIP3    H278449   2.442   1.045  12.898  0.3300  0.7292 -0.4349
19012TIP3   OH278450   5.395   6.046  16.928 -0.5535  0.2278  0.3589
19012TIP3    H178451   5.369   6.023  17.018  1.0094 -1.0639  0.5077
19012TIP3    H278452   5.489   6.062  16.934  0.3786 -3.7171 -1.7303
19013TIP3   OH278453   3.875   5.533  16.156 -0.9296 -0.3247 -0.2015
19013TIP3    H178454   3.827   5.542  16.238 -0.4418  0.1815  0.0356
19013TIP3    H278455   3.904   5.622  16.135  1.9627 -0.9196  0.9432
19014TIP3   OH278456   5.862   2.715  16.042 -0.1310 -0.6640 -0.3344
19014TIP3    H178457   5.874   2.715  16.137  0.4489 -2.6459 -0.3888
19014TIP3    H278458   5.946   2.743  16.007  0.0449 -1.1398 -0.2959
19015TIP3   OH278459   4.393   4.272  13.325  0.6548 -0.0936  0.0026
19015TIP3    H178460   4.327   4.265  13.394 -0.0317 -2.2108 -0.8441
19015TIP3    H278461   4.463   4.325  13.364 -1.4210  1.9927  0.9880
19016TIP3   OH278462   3.327   3.556   3.530 -0.5603  0.8206 -0.0410
19016TIP3    H178463   3.243   3.600   3.517 -0.7688  1.2141  2.3953
19016TIP3    H278464   3.305   3.479   3.583  0.6657  1.1046  0.8886
19017TIP3   OH278465   6.250   4.671   2.936  0.1100  0.2553 -0.6794
19017TIP3    H178466   6.296   4.608   2.992 -0.3515  0.4397 -0.0873
19017TIP3    H278467   6.176   4.700   2.989 -0.4269  0.3083 -1.4545
19018TIP3   OH278468   0.490   4.416   1.469  0.2863  0.0128 -0.0964
19018TIP3    H178469   0.583   4.436   1.459  0.1515  0.3944 -0.6072
19018TIP3    H278470   0.488   4.322   1.487  0.7301 -0.1318 -0.7799
19019TIP3   OH278471   4.385   2.667  12.577  0.2683 -0.6633 -0.8808
19019TIP3    H178472   4.319   2.670  12.646 -1.8776 -1.5369 -2.8489
19019TIP3    H278473   4.405   2.574  12.566  1.0777 -0.4829 -1.0162
19020TIP3   OH278474   6.297   0.081   2.589  0.5321 -0.0734 -0.7112
19020TIP3    H178475   6.326  -0.010   2.591  0.2676 -0.1387  0.4960
19020TIP3    H278476   6.284   0.104   2.681 -0.8416  0.7210 -1.0898
19021TIP3   OH278477   1.770   2.253  17.060 -0.0364  0.1328 -0.3659
19021TIP3    H178478   1.791   2.315  16.990  0.3772  0.4411  0.0288
19021TIP3    H278479   1.846   2.195  17.064 -0.0011  0.1983 -0.0826
19022TIP3   OH278480   4.328   5.573   2.879 -0.3655 -0.0699  0.3574
19022TIP3    H178481   4.311   5.481   2.860 -0.5599  0.6372 -3.0836
19022TIP3    H278482   4.242   5.609   2.902 -0.3424 -0.6257  1.3667
19023TIP3   OH278483   3.903   3.558  13.655 -0.1412 -0.4230  0.2028
19023TIP3    H178484   3.854   3.637  13.677  2.1244  1.2635 -0.5157
19023TIP3    H278485   3.840   3.502  13.610 -1.3087  1.8730 -1.1471
19024TIP3   OH278486   2.500   6.275   2.909 -0.2479  0.4234  0.2991
19024TIP3    H178487   2.464   6.251   2.995  1.3185 -1.1127  0.5551
19024TIP3    H278488   2.527   6.192   2.871 -1.0420  1.0954 -1.7548
19025TIP3   OH278489   0.450   0.847  17.184 -0.0747 -0.1732  0.4812
19025TIP3    H178490   0.449   0.893  17.100 -1.3669 -0.1649  0.5020
19025TIP3    H278491   0.473   0.915  17.248 -2.5560  0.5944  0.5926
19026TIP3   OH278492   6.610   0.662   2.648  0.0779  0.0168 -0.2252
19026TIP3    H178493   6.619   0.756   2.632  1.1022 -0.1614 -0.7642
19026TIP3    H278494   6.664   0.645   2.726  4.2492 -0.9583 -3.1227
19027TIP3   OH278495   2.045   5.075  16.735 -0.2396 -0.4662 -0.3137
19027TIP3    H178496   2.115   5.125  16.777 -0.6522 -0.9564  0.9805
19027TIP3    H278497   2.020   5.127  16.659  0.2030  0.6617  0.3096
19028TIP3   OH278498   4.584   4.135  16.637 -0.4974 -0.0506 -0.0569
19028TIP3    H178499   4.603   4.224  16.609  0.8192 -0.4094 -0.3325
19028TIP3    H278500   4.609   4.133  16.729 -0.2163 -0.2287 -0.1382
19029TIP3   OH278501   2.471   5.458   3.986  0.0214 -0.3134 -0.5150
19029TIP3    H178502   2.426   5.542   3.974 -1.4925 -0.9958  0.1876
19029TIP3    H278503   2.536   5.475   4.054  0.8573  0.6937 -1.5532
19030TIP3   OH278504   1.678   0.980  12.782 -0.5855  0.0447  0.4471
19030TIP3    H178505   1.739   1.027  12.840 -1.7534  2.7020 -0.3945
19030TIP3    H278506   1.717   0.988  12.695 -1.5268  0.6974  0.0872
19031TIP3   OH278507   4.273   4.850   2.468  0.1681  0.7136  0.3378
19031TIP3    H178508   4.304   4.828   2.556 -0.3981 -0.3464  0.2818
19031TIP3    H278509   4.183   4.818   2.466  0.2337  0.5804 -0.6817
19032TIP3   OH278510   4.970   0.077   0.635 -0.2352  0.5080  0.8926
19032TIP3    H178511   4.912   0.116   0.569 -0.0627 -0.5656  0.0975
19032TIP3    H278512   5.007   0.152   0.682 -0.4363  1.2765 -0.1612
19033TIP3   OH278513   6.427   3.353  12.490 -0.1244 -0.4099 -0.5962
19033TIP3    H178514   6.483   3.317  12.421  0.7275 -0.3926  0.0813
19033TIP3    H278515   6.479   3.347  12.569  0.0097  2.2159 -0.4431
19034TIP3   OH278516   0.148   1.081  17.080 -0.1419  0.1836  0.4197
19034TIP3    H178517   0.116   1.157  17.030  1.1235  1.0116  0.8669
19034TIP3    H278518   0.182   1.021  17.013 -1.6181 -0.2398  0.0197
19035TIP3   OH278519   2.043   6.715   0.695 -0.1253  0.1388  0.2289
19035TIP3    H178520   2.038   6.793   0.751  0.9881  0.3527  0.0319
19035TIP3    H278521   2.017   6.643   0.752  1.8362  0.2392  1.2700
19036TIP3   OH278522   6.659   6.066   1.408 -0.0538  0.7026  0.5910
19036TIP3    H178523   6.641   6.032   1.496 -2.7174 -0.6530 -0.4138
19036TIP3    H278524   6.665   5.987   1.354  0.1586  1.5961 -0.6912
19037TIP3   OH278525   2.143   4.550   4.920  0.7035 -0.5609 -0.5386
19037TIP3    H178526   2.150   4.465   4.963 -2.1465 -0.2006  0.7083
19037TIP3    H278527   2.091   4.533   4.842  0.4110 -0.0373 -0.4580
19038TIP3   OH278528   2.785   1.337  12.656  0.4512  0.2811 -0.1310
19038TIP3    H178529   2.730   1.258  12.658 -0.5176  0.9624  0.0930
19038TIP3    H278530   2.835   1.329  12.575  0.6091 -0.7327  0.0571
19039TIP3   OH278531   6.737   0.709  16.789 -0.2810 -0.2813  0.5353
19039TIP3    H178532   6.711   0.620  16.765  0.0015  0.0448 -1.0402
19039TIP3    H278533   6.654   0.755  16.806 -0.6636  0.1648 -2.3438
19040TIP3   OH278534   1.194   0.833   1.000  0.3399  0.6042 -0.0160
19040TIP3    H178535   1.139   0.859   0.926  0.8306 -0.4627 -0.7559
19040TIP3    H278536   1.233   0.750   0.974 -0.3262 -0.3378  1.8707
19041TIP3   OH278537   2.991   1.196   4.240 -0.5627  0.1769  0.5255
19041TIP3    H178538   3.082   1.174   4.255 -0.4629 -0.5286 -1.0005
19041TIP3    H278539   2.993   1.285   4.204 -0.4650  0.1748  0.5268
19042TIP3   OH278540   0.277   0.955  12.744  0.0377 -0.0481  0.0004
19042TIP3    H178541   0.287   1.029  12.684  2.0883  0.9016  1.4533
19042TIP3    H278542   0.329   0.979  12.821 -0.4509 -2.3664  1.1026
19043TIP3   OH278543   4.962   2.602  12.467  0.0853 -0.3346 -0.1255
19043TIP3    H178544   4.925   2.622  12.553 -0.8896 -2.3271 -0.0545
19043TIP3    H278545   5.053   2.578  12.486  0.0598 -0.1177  0.2764
19044TIP3   OH278546   6.401   1.017  15.647  0.0810 -0.3073  0.3345
19044TIP3    H178547   6.436   0.993  15.733 -0.8514  0.0168  0.8114
19044TIP3    H278548   6.310   1.041  15.664 -0.1649 -0.4375 -0.7800
19045TIP3   OH278549   3.752   5.718  16.324  0.0214 -0.4458 -0.2139
19045TIP3    H178550   3.713   5.756  16.403  0.0773  0.3936 -0.5872
19045TIP3    H278551   3.846   5.723  16.340  0.0130 -1.0794  0.0400
19046TIP3   OH278552   0.197   4.716   0.420 -0.1362  0.3791 -0.1999
19046TIP3    H178553   0.248   4.758   0.489  0.1814 -0.7290  0.2539
19046TIP3    H278554   0.207   4.774   0.344 -0.0954  1.3487  0.5458
19047TIP3   OH278555   0.685   3.110   3.607 -0.4373  0.2141  0.4979
19047TIP3    H178556   0.752   3.044   3.589  0.7796  1.2876  0.9864
19047TIP3    H278557   0.602   3.062   3.602  0.3845 -1.2244  0.2812
19048TIP3   OH278558   0.894   6.214  14.053 -0.0508 -0.1168  0.9141
19048TIP3    H178559   0.865   6.228  13.963 -2.2689 -2.3653  1.2358
19048TIP3    H278560   0.817   6.234  14.106  0.7903 -0.3062  2.2199
19049TIP3   OH278561   3.568   2.308  13.741  0.7037 -0.1663 -0.2810
19049TIP3    H178562   3.503   2.242  13.718  0.8594 -1.6032  3.1573
19049TIP3    H278563   3.652   2.268  13.717  0.6613 -0.2986 -0.2064
19050TIP3   OH278564   1.571   6.476   3.168 -0.6212 -0.1962  0.0566
19050TIP3    H178565   1.633   6.404   3.155 -2.2893 -1.3857 -1.5606
19050TIP3    H278566   1.593   6.540   3.101 -0.3058 -0.0076  0.3362
19051TIP3   OH278567   2.103   4.435  13.240 -0.1954  0.4733  0.3130
19051TIP3    H178568   2.148   4.351  13.241  0.8176  1.0121  0.6016
19051TIP3    H278569   2.072   4.445  13.150  1.9798  0.9820 -0.4130
19052TIP3   OH278570   3.299   2.322  11.838  0.6976  0.1329 -0.2682
19052TIP3    H178571   3.244   2.334  11.760 -0.9099 -1.8180  0.5238
19052TIP3    H278572   3.347   2.241  11.822  1.2168  0.3249  0.3004
19053TIP3   OH278573   5.848   6.226   2.191  0.0847  0.0347 -0.3393
19053TIP3    H178574   5.926   6.220   2.137  0.6469 -1.3092  0.5817
19053TIP3    H278575   5.879   6.211   2.280 -1.1471 -0.0783  0.0833
19054TIP3   OH278576   0.429   6.780  11.517 -0.1554  0.3049  0.3266
19054TIP3    H178577   0.499   6.812  11.461 -0.6526 -2.6736 -2.0661
19054TIP3    H278578   0.470   6.715  11.574 -0.0754  1.8862  2.1651
19055TIP3   OH278579   1.610   1.356   2.937 -0.3499  1.0569 -0.3714
19055TIP3    H178580   1.528   1.339   2.983  0.3674 -0.7357  0.2651
19055TIP3    H278581   1.602   1.307   2.855 -0.5071  2.0851 -0.9895
19056TIP3   OH278582   4.754   3.642  15.300  0.2993 -0.4455 -0.5050
19056TIP3    H178583   4.673   3.606  15.264  0.3302 -0.1702 -0.8583
19056TIP3    H278584   4.790   3.572  15.354 -1.0602  0.0317  1.0391
19057TIP3   OH278585   4.156   4.302  11.623  0.0954  0.1611  0.8563
19057TIP3    H178586   4.080   4.252  11.592  0.6185  0.3887 -0.8275
19057TIP3    H278587   4.145   4.305  11.718 -1.6949 -0.3146  0.6843
19058TIP3   OH278588   2.269   1.695  14.377  0.3696 -1.0831 -0.5283
19058TIP3    H178589   2.212   1.734  14.444  0.2628 -2.3736  0.1407
19058TIP3    H278590   2.337   1.650  14.428  1.7760  0.1177 -1.3154
19059TIP3   OH278591   4.110   3.221   6.159  0.2613 -0.6829 -0.1433
19059TIP3    H178592   4.148   3.135   6.142 -1.7473 -1.8990  1.2778
19059TIP3    H278593   4.068   3.213   6.245 -0.0572  1.6835 -0.0260
19060TIP3   OH278594   0.422   1.296   1.752 -0.6263 -0.0293  0.2795
19060TIP3    H178595   0.485   1.294   1.824  0.0954  0.2489 -0.3386
19060TIP3    H278596   0.390   1.386   1.751  1.1022  0.5979 -1.2224
19061TIP3   OH278597   0.591   1.234   1.042  0.2950 -0.2736 -0.1478
19061TIP3    H178598   0.548   1.319   1.049 -0.2364 -0.4862 -0.8447
19061TIP3    H278599   0.652   1.244   0.970 -0.7609 -0.9106 -1.1330
19062TIP3   OH278600   5.982   3.040  14.939  0.1811 -0.3228  0.1189
19062TIP3    H178601   6.013   3.047  14.849 -1.0334  1.3691 -0.1994
19062TIP3    H278602   6.043   3.093  14.990  0.3322 -0.5361  0.1620
19063TIP3   OH278603   5.248   2.893   4.716 -0.3008 -0.2920  0.1234
19063TIP3    H178604   5.173   2.949   4.693  0.7560  0.6661 -1.0614
19063TIP3    H278605   5.323   2.952   4.713  0.4446 -1.1400  1.8080
19064TIP3   OH278606   1.564   6.080  14.298 -0.5642 -0.1814 -0.3603
19064TIP3    H178607   1.537   6.059  14.208 -1.8577  2.5363 -0.6240
19064TIP3    H278608   1.650   6.038  14.306 -1.2612 -2.0754 -2.2104
19065TIP3   OH278609   6.627   0.464  16.708 -0.1355  0.3040 -0.4385
19065TIP3    H178610   6.621   0.492  16.617  1.6500 -0.4103 -0.7961
19065TIP3    H278611   6.536   0.457  16.737 -0.7220  0.5567 -2.1427
19066TIP3   OH278612   4.584   5.701  14.285  0.0962  0.0943 -0.6321
19066TIP3    H178613   4.631   5.682  14.366 -0.8885 -0.8375 -0.2658
19066TIP3    H278614   4.653   5.720  14.221  0.9339 -0.4531  0.0963
19067TIP3   OH278615   2.145   5.287  11.338  0.3274 -0.1337  0.5495
19067TIP3    H178616   2.216   5.296  11.274  0.5553  1.1405  0.9763
19067TIP3    H278617   2.128   5.193  11.341  2.2778 -0.4937  0.7568
19068TIP3   OH278618   5.626   0.252  16.899 -0.2529 -0.1750 -0.0648
19068TIP3    H178619   5.578   0.290  16.825  0.3956  0.8837  0.0369
19068TIP3    H278620   5.589   0.295  16.976  2.7395  2.8400 -0.1725
19069TIP3   OH278621   5.478   0.581   2.699 -0.1736  0.6523  0.1000
19069TIP3    H178622   5.476   0.492   2.664  0.9086  0.0894  1.4256
19069TIP3    H278623   5.521   0.633   2.631 -0.2197  0.0357 -0.4011
19070TIP3   OH278624   1.147   4.268  14.128  0.6457 -0.4217 -0.2234
19070TIP3    H178625   1.119   4.177  14.124  2.0652 -0.8883  0.5199
19070TIP3    H278626   1.197   4.282  14.048  3.4821 -1.3234  1.3450
19071TIP3   OH278627   5.980   0.195   5.303 -0.1564 -0.0913  0.2287
19071TIP3    H178628   5.894   0.158   5.283 -0.7212  1.2566  0.1712
19071TIP3    H278629   6.022   0.205   5.218 -0.2571  0.0294  0.1938
19072TIP3   OH278630   0.914   2.353  13.403  0.2513 -0.0194  0.6476
19072TIP3    H178631   0.914   2.302  13.322  0.4901  1.5098 -0.3379
19072TIP3    H278632   0.823   2.381  13.413 -0.0912 -1.4100  1.7216
19073TIP3   OH278633   4.624   2.971  15.899  0.5391  0.3461  0.8434
19073TIP3    H178634   4.657   2.891  15.858  0.2187  0.2340  0.8034
19073TIP3    H278635   4.698   3.033  15.895  0.9724 -0.1278  1.3785
19074TIP3   OH278636   0.673   3.286  12.672 -0.7518 -0.1370 -0.5620
19074TIP3    H178637   0.629   3.359  12.629 -0.7991  0.3382  0.2700
19074TIP3    H278638   0.655   3.300  12.765 -0.8943 -1.2985 -0.4109
19075TIP3   OH278639   0.992   5.743  17.153  0.2675  0.2673 -0.0030
19075TIP3    H178640   0.909   5.783  17.128 -0.4607 -1.2918 -0.1413
19075TIP3    H278641   0.979   5.650  17.137  1.2237 -0.2766  2.1714
19076TIP3   OH278642   3.039   2.653   2.870 -0.6778 -0.1580 -0.4674
19076TIP3    H178643   3.045   2.574   2.816 -1.3301 -0.3041 -0.3370
19076TIP3    H278644   3.089   2.719   2.823  0.1723 -0.7456 -0.4064
19077TIP3   OH278645   1.455   1.502  13.401  0.4666 -0.5199 -0.1324
19077TIP3    H178646   1.468   1.493  13.495 -1.8347 -0.4692  0.2104
19077TIP3    H278647   1.434   1.413  13.371  1.0276 -0.5074 -0.5716
19078TIP3   OH278648   2.671   5.507  15.353 -0.0913  0.6338  0.8464
19078TIP3    H178649   2.576   5.516  15.363 -0.1859  0.8574 -0.1592
19078TIP3    H278650   2.686   5.413  15.351 -0.6886  0.5365 -2.1874
19079TIP3   OH278651   4.329   5.597   2.095  0.8577  0.3863  0.0099
19079TIP3    H178652   4.285   5.604   2.179 -0.6816  0.2125 -0.7477
19079TIP3    H278653   4.381   5.677   2.088  0.2901  0.8235  0.7352
19080TIP3   OH278654   2.095   4.797  15.716 -0.0467 -0.2999  0.3280
19080TIP3    H178655   2.008   4.829  15.742 -0.0230 -1.1303  1.4396
19080TIP3    H278656   2.133   4.763  15.797  1.4245  0.2978 -0.1059
19081TIP3   OH278657   2.688   5.409  16.699 -0.0782 -0.0376  0.3644
19081TIP3    H178658   2.702   5.497  16.664 -0.7613 -0.0635  0.0178
19081TIP3    H278659   2.773   5.366  16.691 -0.0753  0.1635 -0.6829
19082TIP3   OH278660   2.592   2.854  11.681  0.3569 -0.1726  0.0348
19082TIP3    H178661   2.597   2.921  11.748  0.1088  0.1935 -0.3100
19082TIP3    H278662   2.539   2.784  11.720 -0.2080  0.2549  0.0374
19083TIP3   OH278663   3.129   5.461  16.885 -0.0457  0.1072 -0.1815
19083TIP3    H178664   3.066   5.533  16.896 -0.4474 -0.4510  1.3072
19083TIP3    H278665   3.093   5.390  16.937  0.7555 -0.9290 -1.0226
19084TIP3   OH278666   0.229   4.350  13.349 -0.0112  0.1777  0.0705
19084TIP3    H178667   0.243   4.277  13.289 -0.8971  0.8240 -0.9294
19084TIP3    H278668   0.152   4.395  13.315 -0.8078  0.2878  1.9366
19085TIP3   OH278669   1.653   6.339   4.594  0.2916 -0.5583 -0.5027
19085TIP3    H178670   1.610   6.304   4.516 -1.6440 -0.0406  0.3048
19085TIP3    H278671   1.729   6.386   4.560 -0.3232 -0.6518 -2.0657
19086TIP3   OH278672   5.007   0.655  10.654  0.1104  0.1987 -0.0226
19086TIP3    H178673   5.036   0.564  10.657 -2.0563 -0.4669  1.1944
19086TIP3    H278674   5.086   0.704  10.629  1.0802 -2.0787 -1.5766
19087TIP3   OH278675   3.737   5.284  12.960  0.3419 -0.1201 -0.7722
19087TIP3    H178676   3.704   5.357  12.908  0.3271  0.8460  0.5861
19087TIP3    H278677   3.718   5.308  13.051  1.8289 -1.0530 -0.1989
19088TIP3   OH278678   2.164   4.343   3.424 -0.1191 -0.4656 -0.0592
19088TIP3    H178679   2.114   4.283   3.368  0.7785 -0.7227 -0.5945
19088TIP3    H278680   2.255   4.332   3.396  0.5080 -1.4657  2.2501
19089TIP3   OH278681   5.754   0.812  13.199 -0.8216 -0.4136 -0.6760
19089TIP3    H178682   5.776   0.725  13.234 -1.5915 -1.1576 -2.0315
19089TIP3    H278683   5.660   0.821  13.214 -0.8850 -0.1355 -1.2432
19090TIP3   OH278684   1.571   0.101   4.018  0.0859  0.5062 -0.3443
19090TIP3    H178685   1.532   0.013   4.021  0.5902  0.3144  0.8147
19090TIP3    H278686   1.633   0.102   4.091  1.8634  0.9929 -1.8150
19091TIP3   OH278687   3.822   4.447  12.754  1.0135  0.0941  0.2993
19091TIP3    H178688   3.847   4.481  12.840 -1.9023  1.5918  0.6045
19091TIP3    H278689   3.804   4.525  12.702  1.1126 -0.8576 -1.1814
19092TIP3   OH278690   6.028   0.451   0.979 -0.4843 -0.0177  0.9342
19092TIP3    H178691   6.034   0.357   0.994  0.4951 -0.1574 -0.2222
19092TIP3    H278692   5.934   0.469   0.974 -0.6536 -1.3017 -0.9104
19093TIP3   OH278693   6.001   1.494   4.524  0.1870  0.7284  0.2624
19093TIP3    H178694   6.030   1.484   4.615 -1.5152  0.7493  0.8199
19093TIP3    H278695   6.082   1.510   4.475  1.1971  0.0574  1.6713
19094TIP3   OH278696   3.160   3.248  15.042 -0.0311 -0.5667  0.2325
19094TIP3    H178697   3.226   3.180  15.046  0.9337  0.1939 -1.8935
19094TIP3    H278698   3.131   3.248  14.950  0.1207  1.9771  0.1557
19095TIP3   OH278699   5.018   0.545   1.609  0.1170 -0.5526 -0.3562
19095TIP3    H178700   4.949   0.560   1.673 -0.4930 -0.0020 -1.1298
19095TIP3    H278701   4.985   0.475   1.553 -0.0890  0.1081 -1.0880
19096TIP3   OH278702   6.050   1.434  13.087 -0.1375  0.0341 -0.3992
19096TIP3    H178703   5.963   1.441  13.050 -0.5033 -2.7787 -0.2339
19096TIP3    H278704   6.109   1.457  13.015 -0.9961  0.5372 -0.9414
19097TIP3   OH278705   1.630   1.026  13.639  0.6866  0.3861  0.1458
19097TIP3    H178706   1.554   0.973  13.663  0.6956  1.2229  2.1153
19097TIP3    H278707   1.669   0.980  13.565 -1.2281 -0.5233 -0.3290
19098TIP3   OH278708   3.050   2.159  16.571  0.6286 -0.4003 -0.0569
19098TIP3    H178709   3.028   2.169  16.664 -0.0615  1.1359 -0.3696
19098TIP3    H278710   3.118   2.092  16.570  0.0995 -0.9964  1.4850
19099TIP3   OH278711   3.994   1.037   4.380  0.2824 -0.3151 -0.7992
19099TIP3    H178712   3.964   1.072   4.296  0.8476  1.7695 -0.1667
19099TIP3    H278713   4.068   1.093   4.404  0.0399 -0.7910  1.1449
19100TIP3   OH278714   0.810   0.774   0.361  0.1117  0.4069 -1.0239
19100TIP3    H178715   0.750   0.765   0.287  0.6276 -1.7558 -1.2113
19100TIP3    H278716   0.886   0.820   0.325 -0.4585  1.1050 -1.3473
19101TIP3   OH278717   6.001   5.910  12.790  0.2151 -0.2821 -0.0723
19101TIP3    H178718   5.972   5.838  12.733 -0.1243 -1.0217  1.0072
19101TIP3    H278719   6.096   5.903  12.791  0.1743 -0.8211  0.1555
19102TIP3   OH278720   0.944   1.199   1.076  0.6493 -0.5615 -0.0482
19102TIP3    H178721   1.023   1.196   1.131  0.4784 -1.6003  0.1495
19102TIP3    H278722   0.878   1.151   1.126 -0.3138  0.8867  0.0948
19103TIP3   OH278723   3.589   1.263  11.963 -0.4082  0.4383 -0.1648
19103TIP3    H178724   3.581   1.169  11.952 -0.1509  0.1233  2.2461
19103TIP3    H278725   3.504   1.298  11.935 -0.6042 -0.5108 -0.7629
19104TIP3   OH278726   5.404   3.771   0.112 -0.0103 -0.2146 -0.2577
19104TIP3    H178727   5.412   3.780   0.206 -0.5426 -1.5944 -0.0636
19104TIP3    H278728   5.394   3.676   0.098  0.1014 -0.0263 -1.6883
19105TIP3   OH278729   1.577   4.631  11.889  0.6564 -0.4062  0.4316
19105TIP3    H178730   1.663   4.646  11.929  0.9533 -2.0058  0.4230
19105TIP3    H278731   1.520   4.696  11.930  2.3365  2.1498 -1.1612
19106TIP3   OH278732   0.820   0.684  13.348 -0.2934  0.1161 -0.0380
19106TIP3    H178733   0.850   0.614  13.290  1.8264  0.2641  0.8019
19106TIP3    H278734   0.738   0.651  13.385 -1.8623  0.1458 -3.2894
19107TIP3   OH278735   2.874   1.088  11.504  0.1622  0.2832  0.2319
19107TIP3    H178736   2.922   1.160  11.546 -0.3538  0.1496  1.0725
19107TIP3    H278737   2.788   1.090  11.545 -0.4840  0.3818 -1.1078
19108TIP3   OH278738   6.298   0.735   2.305  0.5773 -0.2643 -0.3121
19108TIP3    H178739   6.376   0.716   2.253  0.3805 -0.2551 -0.6203
19108TIP3    H278740   6.226   0.696   2.254  0.4061 -0.4508  0.0703
19109TIP3   OH278741   3.618   4.726  15.886  0.5808 -0.1274 -0.5123
19109TIP3    H178742   3.614   4.738  15.981 -0.1131 -0.2739 -0.5196
19109TIP3    H278743   3.632   4.632  15.874  1.0623 -0.0525 -0.5510
19110TIP3   OH278744   1.378   5.432  15.684  0.3468 -0.1883  0.5035
19110TIP3    H178745   1.403   5.505  15.740 -2.6142 -0.2617  2.0324
19110TIP3    H278746   1.350   5.472  15.602  1.1659  0.1934  0.4100
19111TIP3   OH278747   1.754   2.675  15.014  0.3240  0.0702 -0.2098
19111TIP3    H178748   1.845   2.696  15.033  0.2928 -0.1597  0.2093
19111TIP3    H278749   1.758   2.595  14.962  0.2544 -1.4815  2.1308
19112TIP3   OH278750   6.381   1.513  16.962  0.5605  0.8409  0.2933
19112TIP3    H178751   6.434   1.543  16.889  2.7301  0.0066  1.4888
19112TIP3    H278752   6.310   1.463  16.921  0.2977  2.4891 -1.3416
19113TIP3   OH278753   3.525   2.283   0.233  0.5744  0.2320 -0.5629
19113TIP3    H178754   3.498   2.347   0.299  0.4808 -0.6777  0.2974
19113TIP3    H278755   3.456   2.286   0.167  0.5594  0.9989 -0.5233
19114TIP3   OH278756   6.406   0.351   4.833  0.1989  0.0144 -0.1863
19114TIP3    H178757   6.412   0.295   4.756 -1.7960  0.0992 -0.4405
19114TIP3    H278758   6.320   0.393   4.825 -0.2969 -0.4302  2.3713
19115TIP3   OH278759   1.190   6.436   3.270 -0.2640  0.1040 -0.0157
19115TIP3    H178760   1.250   6.409   3.201 -0.5959 -0.0938 -0.2242
19115TIP3    H278761   1.214   6.528   3.288 -0.0946  0.1151 -0.2983
19116TIP3   OH278762   5.962   1.103   3.092 -0.0189  0.5218  0.4601
19116TIP3    H178763   6.018   1.159   3.038 -0.4315  0.3375 -0.1667
19116TIP3    H278764   5.943   1.028   3.036  1.7939 -1.0014  1.8278
19117TIP3   OH278765   0.144   2.521   2.634 -0.3581 -0.3854 -0.4873
19117TIP3    H178766   0.197   2.588   2.678 -0.1877 -1.2590  0.6553
19117TIP3    H278767   0.061   2.522   2.680 -0.8315 -0.0553 -1.3303
19118TIP3   OH278768   1.287   1.528  11.265 -0.6783  0.2662 -0.0625
19118TIP3    H178769   1.376   1.562  11.254 -0.2839 -0.8864 -0.4604
19118TIP3    H278770   1.279   1.460  11.199 -2.1688  0.9474 -0.6115
19119TIP3   OH278771   3.033   0.727  13.627 -0.1574 -0.7896 -0.3717
19119TIP3    H178772   3.098   0.786  13.588 -0.5808  0.1886  0.3809
19119TIP3    H278773   3.053   0.728  13.720 -1.9472  0.4113  0.0255
19120TIP3   OH278774   2.020   4.379  12.503  0.3848  0.5141 -0.1829
19120TIP3    H178775   1.956   4.439  12.541  1.6130  1.0313  1.1019
19120TIP3    H278776   2.017   4.302  12.558 -3.1716 -1.8479 -3.4136
19121TIP3   OH278777   5.493   0.749  11.341  0.5388  0.2408 -0.4374
19121TIP3    H178778   5.475   0.655  11.344 -3.1194  0.9238  0.8948
19121TIP3    H278779   5.567   0.760  11.401 -0.6908 -1.4567  1.4564
19122TIP3   OH278780   4.248   3.946  11.421 -0.4213 -0.1879 -0.0934
19122TIP3    H178781   4.210   4.017  11.370 -0.7682 -0.5790 -0.3859
19122TIP3    H278782   4.173   3.900  11.458 -0.2183 -0.6789 -0.2878
19123TIP3   OH278783   1.320   3.609   0.212 -0.0870 -0.4085  0.1373
19123TIP3    H178784   1.330   3.521   0.178  0.9363  0.8391 -2.9727
19123TIP3    H278785   1.226   3.620   0.225 -0.1934 -2.0167  0.8382
19124TIP3   OH278786   1.262   6.459   0.625 -0.5193 -0.2727  0.3647
19124TIP3    H178787   1.257   6.476   0.531 -1.3056 -0.0320  0.4445
19124TIP3    H278788   1.189   6.509   0.662 -0.4022 -0.6185  1.0654
19125TIP3   OH278789   2.184   5.547  14.520 -0.0973 -0.1080  0.8569
19125TIP3    H178790   2.212   5.637  14.505  0.4399 -0.2426  1.0189
19125TIP3    H278791   2.168   5.512  14.432 -0.4745  0.1984  0.8047
19126TIP3   OH278792   1.692   2.765   2.252  0.2594  0.2418  0.0177
19126TIP3    H178793   1.688   2.851   2.294  0.4654 -0.2127  0.9628
19126TIP3    H278794   1.785   2.744   2.249  0.2080  0.0412 -0.2019
19127TIP3   OH278795   5.835   5.652  11.391  0.0990 -0.9788 -0.3649
19127TIP3    H178796   5.857   5.660  11.298  1.1526  0.1724 -0.0302
19127TIP3    H278797   5.740   5.645  11.393 -0.0367  0.3657 -1.4502
19128TIP3   OH278798   1.619   4.151   5.868 -0.5661  0.7450 -0.5095
19128TIP3    H178799   1.654   4.202   5.795 -2.3064  2.0431 -0.4621
19128TIP3    H278800   1.655   4.194   5.946  0.5694 -0.0983 -0.5513
19129TIP3   OH278801   4.366   3.472  15.540 -0.1520 -0.3114  0.5984
19129TIP3    H178802   4.388   3.407  15.473  0.1222 -0.2605  0.6388
19129TIP3    H278803   4.401   3.435  15.621  0.0323 -0.0988  0.6150
19130TIP3   OH278804   2.797   0.279  14.280 -0.0677 -0.7418 -0.5883
19130TIP3    H178805   2.861   0.224  14.324 -0.6608 -0.0165  1.2105
19130TIP3    H278806   2.720   0.223  14.269 -0.1083 -0.7565 -0.2204
19131TIP3   OH278807   5.696   5.106  15.268  0.2885  0.6873 -0.4971
19131TIP3    H178808   5.647   5.185  15.292 -1.3601 -0.4026 -0.1460
19131TIP3    H278809   5.645   5.066  15.198  0.4446 -0.6944  0.1587
19132TIP3   OH278810   4.333   2.764  12.249 -0.0301  0.0078 -0.1530
19132TIP3    H178811   4.240   2.763  12.225  0.0258 -2.6768 -0.3684
19132TIP3    H278812   4.367   2.682  12.215  2.1584  0.3970  1.0438
19133TIP3   OH278813   3.537   4.984   1.958  0.4918 -0.9532 -0.0518
19133TIP3    H178814   3.572   5.070   1.933 -1.2232  0.2267  1.4251
19133TIP3    H278815   3.443   5.000   1.970  0.4938 -2.5522  2.3014
19134TIP3   OH278816   2.524   2.805  15.811 -0.2258  0.6224  0.2802
19134TIP3    H178817   2.608   2.804  15.857 -0.2396  1.2008  0.3189
19134TIP3    H278818   2.546   2.817  15.719 -0.2588  0.6204  0.2718
19135TIP3   OH278819   0.318   2.235  10.912 -0.3162 -0.0392  0.5310
19135TIP3    H178820   0.243   2.283  10.877 -0.5298 -0.6841  0.0958
19135TIP3    H278821   0.372   2.216  10.835 -0.9402 -1.7377  0.4967
19136TIP3   OH278822   2.070   2.770   5.879 -0.0957  0.3100 -0.3394
19136TIP3    H178823   2.125   2.703   5.920 -1.1006  0.1989  0.8667
19136TIP3    H278824   1.983   2.756   5.917 -0.1071  2.9702  0.7584
19137TIP3   OH278825   0.790   2.584  12.967 -0.0478 -0.2464 -0.3814
19137TIP3    H178826   0.849   2.566  13.040  0.1822  1.1159 -0.2288
19137TIP3    H278827   0.848   2.614  12.897 -0.4433  0.0171 -0.5940
19138TIP3   OH278828   5.324   2.765   3.126  0.1764 -0.1922  0.3353
19138TIP3    H178829   5.308   2.825   3.198  0.3869  1.3534 -0.8808
19138TIP3    H278830   5.380   2.697   3.163 -1.0070 -0.2568  2.0166
19139TIP3   OH278831   3.130   2.984   6.155 -0.4716  0.6293 -0.5194
19139TIP3    H178832   3.169   3.017   6.236  0.4066  0.8074 -1.0036
19139TIP3    H278833   3.116   2.891   6.172 -0.4104  0.6904 -0.1176
19140TIP3   OH278834   3.020   0.097   4.301 -0.2639 -0.3834 -0.1751
19140TIP3    H178835   3.071   0.157   4.355 -0.1169  1.0826 -1.9079
19140TIP3    H278836   2.933   0.098   4.341  0.2514 -0.5708  0.9911
19141TIP3   OH278837   5.777   2.447   0.112  0.2648 -0.0720  0.2794
19141TIP3    H178838   5.700   2.392   0.102 -0.6681  1.3269 -0.3034
19141TIP3    H278839   5.743   2.536   0.124  1.7563  0.4990  0.4387
19142TIP3   OH278840   0.479   1.398   0.150 -0.6409 -0.6467 -0.7578
19142TIP3    H178841   0.541   1.354   0.208 -0.3955  1.9293  1.0364
19142TIP3    H278842   0.510   1.380   0.062  1.5028 -1.0643  0.0672
19143TIP3   OH278843   0.844   1.689   0.986 -0.0532 -0.0333 -0.0600
19143TIP3    H178844   0.898   1.745   0.930  0.6859 -0.2292  0.4493
19143TIP3    H278845   0.907   1.633   1.032 -0.7328 -0.7300  0.0384
19144TIP3   OH278846   5.755   1.704  16.582 -0.1742  0.1320  0.0540
19144TIP3    H178847   5.755   1.649  16.660  2.1965  0.3933  0.2523
19144TIP3    H278848   5.668   1.744  16.581 -0.4702 -0.4063  2.1607
19145TIP3   OH278849   3.243   0.265   4.902 -0.0260  0.5595 -0.6780
19145TIP3    H178850   3.234   0.351   4.943 -1.4493  0.6236 -1.0953
19145TIP3    H278851   3.229   0.203   4.973 -0.2954  0.6810 -0.6206
19146TIP3   OH278852   1.076   2.430   5.995 -0.3027  0.4553  0.1931
19146TIP3    H178853   0.988   2.399   6.015 -0.3544 -1.4079 -2.6656
19146TIP3    H278854   1.133   2.382   6.055 -1.0632  0.4703  0.9367
19147TIP3   OH278855   1.136   5.593   4.764  0.0368  0.2424 -0.3298
19147TIP3    H178856   1.057   5.628   4.806 -1.3131  0.4354 -2.9782
19147TIP3    H278857   1.206   5.650   4.796 -1.3549  2.0478 -0.4190
19148TIP3   OH278858   3.695   2.361   3.554 -0.7890  0.2625  0.6562
19148TIP3    H178859   3.676   2.271   3.579  2.5603 -0.4039  0.9561
19148TIP3    H278860   3.706   2.358   3.459 -2.6738  0.7783  0.3926
19149TIP3   OH278861   3.814   0.049  13.896  0.1656  0.6535  0.7737
19149TIP3    H178862   3.831  -0.018  13.962  0.2097 -1.0240 -0.9067
19149TIP3    H278863   3.887   0.042  13.835 -0.5459  1.2940 -0.1621
19150TIP3   OH278864   3.073   4.058   3.111  0.0959  0.5919 -1.1324
19150TIP3    H178865   3.053   4.019   3.026  0.5525  1.4762 -1.6492
19150TIP3    H278866   2.993   4.046   3.162 -0.3334  0.4398 -1.8297
19151TIP3   OH278867   4.293   5.533  15.249 -0.2924  0.7784 -0.5971
19151TIP3    H178868   4.312   5.506  15.339  0.3316 -1.6280 -1.4018
19151TIP3    H278869   4.372   5.579  15.221  0.5765 -0.7476 -0.7411
19152TIP3   OH278870   2.827   4.314   0.608  0.4703 -0.3975  0.1209
19152TIP3    H178871   2.855   4.350   0.524 -2.5734  0.5708 -0.5479
19152TIP3    H278872   2.838   4.386   0.670 -2.3391  0.6559 -0.5412
19153TIP3   OH278873   1.372   2.162  15.222 -0.4024  0.1030 -0.2789
19153TIP3    H178874   1.445   2.133  15.166 -0.8591 -1.2562 -0.1939
19153TIP3    H278875   1.327   2.081  15.246 -2.6227  1.0137 -1.2618
19154TIP3   OH278876   3.235   3.965   1.043 -0.1118 -0.6197 -0.3663
19154TIP3    H178877   3.178   3.909   1.096 -0.2956 -3.0629 -3.0283
19154TIP3    H278878   3.320   3.921   1.046 -0.3146 -1.2355 -2.6714
19155TIP3   OH278879   4.657   1.049   2.384 -0.0431 -0.0445  0.3394
19155TIP3    H178880   4.676   1.037   2.476  0.6510  0.3630  0.2504
19155TIP3    H278881   4.740   1.035   2.339  0.1220  1.8562 -0.0313
19156TIP3   OH278882   3.650   5.439   3.538  0.4875  0.2949 -0.7348
19156TIP3    H178883   3.627   5.353   3.504  2.1078 -0.5922  0.3213
19156TIP3    H278884   3.746   5.442   3.532  0.5092  1.6817  0.0297
19157TIP3   OH278885   0.845   5.994  16.298  0.8479 -0.1243 -0.3224
19157TIP3    H178886   0.893   5.913  16.310 -0.1090 -0.4785  1.2549
19157TIP3    H278887   0.890   6.038  16.226  2.1334 -1.4714 -0.3684
19158TIP3   OH278888   4.141   5.544  11.653 -0.5834 -0.0707  0.0056
19158TIP3    H178889   4.129   5.613  11.719 -1.3724  0.2485 -0.4767
19158TIP3    H278890   4.140   5.590  11.569  1.9709 -0.2780 -0.1832
19159TIP3   OH278891   6.383   2.323  14.191 -0.1835 -0.1391 -0.1272
19159TIP3    H178892   6.346   2.386  14.129 -2.9337 -0.4886  1.0608
19159TIP3    H278893   6.395   2.374  14.272  1.2756 -0.2233 -0.2746
19160TIP3   OH278894   3.638   0.610  13.685  0.5141  0.8409 -0.1332
19160TIP3    H178895   3.570   0.549  13.711  0.2753  1.3939  0.5444
19160TIP3    H278896   3.719   0.575  13.723  0.1940  1.5635  1.2428
19161TIP3   OH278897   4.392   0.813   4.057  0.0453 -0.6145  0.2735
19161TIP3    H178898   4.388   0.723   4.026  0.6609 -0.1270 -1.3008
19161TIP3    H278899   4.486   0.833   4.057 -0.0735 -0.0710  0.8709
19162TIP3   OH278900   1.990   3.814  12.543 -0.0948 -0.0235  1.4061
19162TIP3    H178901   1.994   3.763  12.462  0.4028  1.1057  0.6959
19162TIP3    H278902   2.033   3.760  12.609 -0.9873 -1.1857  1.0463
19163TIP3   OH278903   6.361   2.997   5.331  0.2236  1.0370 -0.6566
19163TIP3    H178904   6.454   2.991   5.349 -0.0081  0.6288  0.4605
19163TIP3    H278905   6.351   3.078   5.282  0.8354  2.4415  1.4749
19164TIP3   OH278906   0.010   1.032   1.949 -0.0331 -0.6604 -0.2747
19164TIP3    H178907   0.014   1.035   1.854 -1.4630  0.5707 -0.3255
19164TIP3    H278908   0.084   1.085   1.979 -0.5075  0.2688 -0.7311
19165TIP3   OH278909   2.728   4.955   1.623 -0.0234  0.1314  0.2723
19165TIP3    H178910   2.773   4.892   1.679 -0.6512  2.3160  3.4029
19165TIP3    H278911   2.638   4.956   1.656 -1.1084 -0.4233 -2.5436
19166TIP3   OH278912   1.968   3.473   2.898  0.0117 -0.8842 -0.0103
19166TIP3    H178913   1.940   3.556   2.860  1.8362  0.1854  0.9170
19166TIP3    H278914   1.978   3.492   2.992  0.5217 -2.1260  0.2017
19167TIP3   OH278915   0.310   1.985   3.281  0.1919  0.2271  0.4745
19167TIP3    H178916   0.346   2.056   3.228  0.0147 -0.5189 -0.6656
19167TIP3    H278917   0.324   1.906   3.228 -2.1719 -0.2199  0.4564
19168TIP3   OH278918   4.331   2.798  13.885 -0.2646 -0.2469  0.4715
19168TIP3    H178919   4.333   2.817  13.978  0.6986  0.2969  0.3508
19168TIP3    H278920   4.362   2.879  13.843 -2.1407  0.0479 -0.4079
19169TIP3   OH278921   0.790   1.397  15.419  0.3327 -0.3735  0.2712
19169TIP3    H178922   0.767   1.432  15.505 -1.0299 -1.3682  0.3392
19169TIP3    H278923   0.846   1.463  15.380 -0.4874  0.9017  1.2266
19170TIP3   OH278924   2.892   5.414   4.308 -0.6021  0.2560 -0.6294
19170TIP3    H178925   2.832   5.381   4.375 -0.4425 -1.9759 -1.5400
19170TIP3    H278926   2.846   5.489   4.270 -1.3394  0.6156  0.9399
19171TIP3   OH278927   1.193   1.461  10.370 -0.8555 -0.0508 -0.0276
19171TIP3    H178928   1.108   1.439  10.330 -0.7039 -3.3479  1.3396
19171TIP3    H278929   1.212   1.387  10.427  3.4385  0.1967 -1.0157
19172TIP3   OH278930   6.223   4.422   6.235  0.4119  0.4636 -0.0641
19172TIP3    H178931   6.191   4.344   6.189  1.8196 -0.4863  0.5393
19172TIP3    H278932   6.153   4.486   6.224 -1.9002 -1.6681  1.5163
19173TIP3   OH278933   0.580   1.633  15.304 -0.5226 -0.5537  0.0474
19173TIP3    H178934   0.517   1.564  15.327 -1.9098 -0.0122 -1.9554
19173TIP3    H278935   0.623   1.655  15.386 -1.8449 -2.0601  1.1718
19174TIP3   OH278936   3.345   5.195   1.491  0.0957 -0.3071 -0.2285
19174TIP3    H178937   3.312   5.260   1.428  0.1170 -0.3409 -0.2747
19174TIP3    H278938   3.439   5.210   1.494 -0.0425  0.4060  0.6090
19175TIP3   OH278939   4.834   0.180  16.841  0.6216 -0.3769 -0.3272
19175TIP3    H178940   4.837   0.263  16.793  1.7386 -1.7386 -2.7327
19175TIP3    H278941   4.909   0.185  16.900 -0.5950  1.2073  1.1332
19176TIP3   OH278942   6.272   5.254  14.857  0.8426 -0.6506  0.4189
19176TIP3    H178943   6.346   5.194  14.851  0.9102 -0.5195 -0.0528
19176TIP3    H278944   6.196   5.202  14.831  1.1178 -0.1139 -1.5449
19177TIP3   OH278945   5.049   4.542   4.263 -0.2557 -0.8150 -0.5235
19177TIP3    H178946   4.971   4.495   4.233 -1.8103  0.5050  1.3274
19177TIP3    H278947   5.101   4.475   4.309 -0.9866 -1.3789 -0.5094
19178TIP3   OH278948   6.508   5.883   2.101  0.0808 -0.1735  0.4696
19178TIP3    H178949   6.484   5.966   2.142 -0.8861 -0.5351  0.6516
19178TIP3    H278950   6.424   5.841   2.080  0.5661 -0.4232 -1.0067
19179TIP3   OH278951   4.396   0.999  15.063  0.2239  0.4874 -0.7064
19179TIP3    H178952   4.467   0.936  15.051 -0.9916 -0.7103 -1.6210
19179TIP3    H278953   4.356   1.008  14.977 -1.1922  0.6179 -0.0461
19180TIP3   OH278954   3.143   2.381  14.225  0.1935  0.3378  0.6117
19180TIP3    H178955   3.109   2.467  14.202  2.5698  1.0929 -0.2074
19180TIP3    H278956   3.075   2.320  14.197 -1.9628  1.9860  2.1258
19181TIP3   OH278957   2.169   0.568   4.093  0.8059  0.2594  0.2266
19181TIP3    H178958   2.138   0.652   4.060  1.0087  0.2731  0.0699
19181TIP3    H278959   2.090   0.515   4.102  0.5115  0.8901  1.5634
19182TIP3   OH278960   6.486   5.034   2.372  0.0306  0.0317 -0.1823
19182TIP3    H178961   6.395   5.015   2.396  0.3213  0.0532  1.0056
19182TIP3    H278962   6.502   5.120   2.411  0.8733 -0.4266  0.4886
19183TIP3   OH278963   5.804   1.896   1.157 -0.1755 -0.0357  0.8750
19183TIP3    H178964   5.890   1.930   1.181  0.1480 -0.3522  0.1732
19183TIP3    H278965   5.746   1.972   1.161  0.6556  0.7449 -1.3170
19184TIP3   OH278966   6.767   0.234  12.596  0.6870 -0.2823  0.0902
19184TIP3    H178967   6.700   0.278  12.648  1.4978  0.2799  0.6919
19184TIP3    H278968   6.725   0.214  12.513 -0.0306  0.6512  0.2224
19185TIP3   OH278969   3.628   6.567  13.591  0.4241 -0.9744  0.7422
19185TIP3    H178970   3.674   6.510  13.652  0.7203 -1.4724  0.0590
19185TIP3    H278971   3.634   6.654  13.630  2.9591 -0.8165  0.1305
19186TIP3   OH278972   3.024   6.444   0.011 -0.2692  0.0489 -0.1616
19186TIP3    H178973   3.044   6.358   0.047  1.6280 -0.7512 -2.9671
19186TIP3    H278974   2.970   6.426  -0.066  1.9475  1.1717 -2.0417
19187TIP3   OH278975   1.483   0.038  14.522 -0.2866 -0.3772 -0.1278
19187TIP3    H178976   1.566   0.012  14.483 -0.0788 -0.4083  0.3295
19187TIP3    H278977   1.424   0.051  14.448  0.4766  0.8879 -0.5135
19188TIP3   OH278978   2.636   6.737  15.940  0.0376 -0.5631 -0.1286
19188TIP3    H178979   2.651   6.645  15.962 -0.2353 -1.3105 -2.9056
19188TIP3    H278980   2.676   6.786  16.012  1.4092 -2.8292  0.6853
19189TIP3   OH278981   2.810   0.036   2.883 -0.0878  0.5654 -0.1508
19189TIP3    H178982   2.896  -0.006   2.888 -0.1622  0.2223 -1.4578
19189TIP3    H278983   2.782   0.046   2.974  1.0978  0.1824  0.2583
19190TIP3   OH278984   6.594   0.034   4.080  0.0923  0.0041  0.5332
19190TIP3    H178985   6.654   0.105   4.103 -0.4898  0.7816 -0.3430
19190TIP3    H278986   6.547   0.066   4.004  0.4495 -1.6884 -0.4208
19191TIP3   OH278987   2.017   6.698   0.138 -0.4955 -0.0276 -0.0524
19191TIP3    H178988   1.978   6.777   0.174 -1.9474 -0.8187  0.1813
19191TIP3    H278989   2.063   6.658   0.211 -0.0925  0.4027 -0.0726
19192TIP3   OH278990   0.700   0.271  11.993  0.0723  0.0935  0.1722
19192TIP3    H178991   0.754   0.200  12.027  0.3906 -0.3480 -1.2176
19192TIP3    H278992   0.627   0.277  12.054 -0.9787 -2.7364 -0.6913
19193TIP3   OH278993   5.102   0.169  15.075  0.4914  0.5643  0.6524
19193TIP3    H178994   5.030   0.114  15.043  1.1041 -0.4014  0.9128
19193TIP3    H278995   5.120   0.229  15.003 -0.6076  0.8489  0.6041
19194TIP3   OH278996   2.942   3.653  12.102  0.0382 -0.5063 -0.1854
19194TIP3    H178997   2.981   3.565  12.099 -0.1372 -0.5755 -0.3962
19194TIP3    H278998   2.852   3.641  12.072 -0.2646 -0.4085  0.6651
19195TIP3   OH278999   5.546   5.363   3.735 -0.4152  0.0319 -0.2222
19195TIP3    H179000   5.561   5.449   3.775 -1.6776  0.1455  0.0437
19195TIP3    H279001   5.536   5.304   3.809 -1.8689  0.0819 -0.3652
19196TIP3   OH279002   6.584   4.342  14.876 -0.3757  0.4983  0.5420
19196TIP3    H179003   6.538   4.262  14.850  0.1246  0.0574  1.0137
19196TIP3    H279004   6.516   4.398  14.913 -0.4826 -0.2767  1.5259
19197TIP3   OH279005   6.613   3.247   2.518 -0.0640 -0.1668  0.4119
19197TIP3    H179006   6.636   3.264   2.609 -0.0963  0.1584  0.3592
19197TIP3    H279007   6.524   3.280   2.509  1.1870  3.1073 -0.6649
19198TIP3   OH279008   4.925   4.754   3.276 -0.1066  0.2645 -0.3487
19198TIP3    H179009   4.890   4.839   3.303 -0.1736 -0.9370  3.5931
19198TIP3    H279010   4.890   4.692   3.339  1.5416 -2.4192 -1.9686
19199TIP3   OH279011   1.742   2.918   6.203 -0.4637  0.7503 -0.4151
19199TIP3    H179012   1.782   2.915   6.290 -0.4939  0.9102 -0.3944
19199TIP3    H279013   1.754   3.009   6.175  0.8330  0.3433 -1.1850
19200TIP3   OH279014   3.631   2.606  14.268  0.3003  0.2022 -0.4610
19200TIP3    H179015   3.634   2.699  14.243 -2.6969  0.6007  0.4389
19200TIP3    H279016   3.602   2.607  14.359  2.7164 -1.5643  0.3716
19201TIP3   OH279017   1.098   2.682  15.342 -0.0401 -0.5543  0.3653
19201TIP3    H179018   1.157   2.619  15.385 -0.3053 -0.9000  0.2310
19201TIP3    H279019   1.140   2.700  15.258  0.9467  0.8280  1.1360
19202TIP3   OH279020   3.052   5.382  14.465  0.4423  0.4606  0.2285
19202TIP3    H179021   2.997   5.303  14.465  0.8208  0.1835 -1.6395
19202TIP3    H279022   3.020   5.433  14.539 -2.4247  0.3327 -0.8599
19203TIP3   OH279023   2.312   2.121   0.216  0.6134 -0.1602  1.0244
19203TIP3    H179024   2.288   2.080   0.133  1.2076 -1.5531  1.5100
19203TIP3    H279025   2.298   2.051   0.281 -1.5487  1.4258  2.3334
19204TIP3   OH279026   4.008   4.339   1.486  0.3134  0.3376 -0.0915
19204TIP3    H179027   4.076   4.403   1.464 -1.0486  1.1232 -2.2198
19204TIP3    H279028   4.024   4.266   1.425 -0.6672  0.4715 -0.5134
19205TIP3   OH279029   6.210   3.895  14.137  0.0929  0.0313  0.5093
19205TIP3    H179030   6.234   3.826  14.075  1.5238  0.0997  0.9677
19205TIP3    H279031   6.253   3.973  14.104 -1.5384  0.7241 -0.0131
19206TIP3   OH279032   4.367   3.330   2.526  0.0309 -0.4788  0.3680
19206TIP3    H179033   4.295   3.393   2.514 -0.1619 -0.5550  1.1077
19206TIP3    H279034   4.427   3.349   2.454 -1.3124 -1.2316 -0.9812
19207TIP3   OH279035   0.855   1.567   0.227  0.4979  0.3288 -0.1354
19207TIP3    H179036   0.891   1.640   0.278  0.4418 -0.0565  0.4584
19207TIP3    H279037   0.772   1.546   0.270  0.1148  0.4503 -0.8026
19208TIP3   OH279038   4.439   5.626   0.143  0.1233  0.3493 -0.2945
19208TIP3    H179039   4.490   5.571   0.202  0.0166  1.5040  0.8874
19208TIP3    H279040   4.368   5.660   0.197 -0.0634  1.3075 -1.1232
19209TIP3   OH279041   0.516   1.409  12.597  0.0740 -0.2964 -0.2159
19209TIP3    H179042   0.597   1.357  12.596  0.5697  0.4735 -1.2367
19209TIP3    H279043   0.539   1.489  12.550 -0.0818  1.8290  3.2464
19210TIP3   OH279044   6.576   0.523  16.990  0.3797  0.6693 -0.3178
19210TIP3    H179045   6.600   0.615  16.999  1.0690  0.2968  2.1926
19210TIP3    H279046   6.482   0.524  16.969  0.4394  1.9467 -0.5346
19211TIP3   OH279047   1.612   4.181  14.607  0.0929 -0.4085  0.1868
19211TIP3    H179048   1.546   4.238  14.566 -0.2486 -1.0813 -0.2119
19211TIP3    H279049   1.668   4.152  14.535 -0.5591 -1.6632  0.1555
19212TIP3   OH279050   3.281   6.590   4.813  0.6049  0.4420 -0.0487
19212TIP3    H179051   3.323   6.652   4.872  0.4871  1.7039 -1.2768
19212TIP3    H279052   3.251   6.643   4.739 -2.1780 -0.5799  0.2711
19213TIP3   OH279053   5.824   0.005  16.936  0.5683 -0.2637 -0.1869
19213TIP3    H179054   5.770  -0.073  16.952  0.2180  0.4676  2.4636
19213TIP3    H279055   5.765   0.078  16.957  1.8275  0.6035  0.3567
19214TIP3   OH279056   1.623   4.017   4.942 -0.3080 -0.3500 -0.4036
19214TIP3    H179057   1.635   3.978   5.028 -2.4137  0.8992  0.4828
19214TIP3    H279058   1.649   4.109   4.954 -0.1312 -0.2882 -1.2314
19215TIP3   OH279059   3.084   1.815  13.994  0.2175 -0.0844  0.2181
19215TIP3    H179060   3.152   1.872  14.030  1.0307 -0.7345 -0.2624
19215TIP3    H279061   3.101   1.729  14.034 -0.8687 -0.0506  0.7735
19216TIP3   OH279062   4.217   5.624  11.055  0.0137 -0.0452  0.0312
19216TIP3    H179063   4.264   5.641  11.137 -1.3804  0.2361  0.7807
19216TIP3    H279064   4.213   5.710  11.011 -1.1384  0.2392  0.6839
19217TIP3   OH279065   3.851   1.938  13.014 -0.6062  0.1568  0.4981
19217TIP3    H179066   3.779   1.890  13.054 -0.0088 -0.5541  0.7289
19217TIP3    H279067   3.926   1.878  13.020 -0.7803 -0.4646 -2.7648
19218TIP3   OH279068   3.339   3.974   2.697  0.1431 -0.1355 -0.6762
19218TIP3    H179069   3.357   3.976   2.791 -0.3664  0.2778 -0.5884
19218TIP3    H279070   3.373   4.057   2.663 -0.9448  0.3354 -0.6247
19219TIP3   OH279071   0.556   6.069  16.522  0.1402 -0.2701 -0.0625
19219TIP3    H179072   0.561   5.999  16.457 -0.2763  1.1535 -1.6648
19219TIP3    H279073   0.645   6.104  16.526  0.6094 -1.6022  1.5693
19220TIP3   OH279074   6.045   0.087  11.862  0.4196 -0.0672 -0.6077
19220TIP3    H179075   6.056   0.005  11.815 -0.5328 -0.7726  0.3647
19220TIP3    H279076   5.986   0.139  11.808 -1.2396 -1.1496  0.0929
19221TIP3   OH279077   1.884   5.795  15.688  0.0667  0.1883 -0.1201
19221TIP3    H179078   1.840   5.797  15.603  1.4812  2.0919 -0.8582
19221TIP3    H279079   1.818   5.825  15.750  0.0975  2.4319 -1.1244
19222TIP3   OH279080   5.857   1.572  17.051 -0.1346 -0.1422 -0.0140
19222TIP3    H179081   5.914   1.573  17.128  0.0316  2.7398 -0.1162
19222TIP3    H279082   5.806   1.492  17.060  1.2790 -0.8495  2.0629
19223TIP3   OH279083   0.279   0.498   0.420 -0.0441  0.3637  0.8571
19223TIP3    H179084   0.199   0.453   0.391 -0.0534  0.8159  0.1740
19223TIP3    H279085   0.343   0.478   0.352  0.1549  0.7913  0.9239
19224TIP3   OH279086   2.819   0.159   5.731 -0.5710  0.2753  0.5157
19224TIP3    H179087   2.737   0.193   5.769 -0.6461  0.9152 -0.2186
19224TIP3    H279088   2.815   0.183   5.639  0.7468  0.8676  0.6027
19225TIP3   OH279089   4.589   2.074  14.189 -0.4368 -0.2793 -0.6157
19225TIP3    H179090   4.559   2.035  14.270 -1.3264 -0.9468 -1.2529
19225TIP3    H279091   4.549   2.161  14.188  0.1075 -0.0262 -0.0267
19226TIP3   OH279092   6.244   1.702   5.398 -0.2353  0.3712 -0.3647
19226TIP3    H179093   6.263   1.796   5.395  2.3248 -0.0669  1.0799
19226TIP3    H279094   6.328   1.660   5.384 -1.2599 -1.7249 -0.3767
19227TIP3   OH279095   5.702   1.107   5.538  0.4910 -0.4003 -0.2403
19227TIP3    H179096   5.774   1.049   5.512 -0.8512 -1.1741 -2.4370
19227TIP3    H279097   5.685   1.160   5.460 -2.0259 -1.0181 -0.1767
19228TIP3   OH279098   0.324   3.319  14.168  0.2760  0.0497 -0.5186
19228TIP3    H179099   0.326   3.262  14.245  2.0606 -1.4339 -1.6301
19228TIP3    H279100   0.400   3.376  14.178  0.2377  0.1817 -0.9726
19229TIP3   OH279101   4.502   2.484   3.194 -0.4987  0.5873 -0.0552
19229TIP3    H179102   4.481   2.397   3.228  0.5465  0.7446  1.0362
19229TIP3    H279103   4.574   2.515   3.249 -2.7707  3.3685  1.4689
19230TIP3   OH279104   6.081   1.218   4.289  0.0765  0.6374  0.3605
19230TIP3    H179105   6.118   1.178   4.367 -0.1221 -0.4205 -0.0781
19230TIP3    H279106   6.152   1.272   4.254  0.3962  0.5540  0.8764
19231TIP3   OH279107   6.122   1.654  15.562 -0.5070  0.1799 -0.0076
19231TIP3    H179108   6.095   1.740  15.530 -0.8448  0.8888  2.0958
19231TIP3    H279109   6.135   1.666  15.656  1.1156 -1.6639  0.0461
19232TIP3   OH279110   6.473   5.385  12.905  0.5639 -0.2015 -0.0667
19232TIP3    H179111   6.460   5.441  12.828  1.2751  0.1516  0.0636
19232TIP3    H279112   6.536   5.319  12.875  2.1262  0.9097  0.6793
19233TIP3   OH279113   2.319   2.994  12.864  0.2091  0.4726  0.4912
19233TIP3    H179114   2.228   3.016  12.887  0.6681  1.1906  1.6352
19233TIP3    H279115   2.371   3.026  12.937  1.1824 -2.1864  1.0081
19234TIP3   OH279116   2.881   1.847  14.220 -0.3599  0.0295  0.2305
19234TIP3    H179117   2.902   1.922  14.165  0.1167 -0.3208 -0.0720
19234TIP3    H279118   2.788   1.857  14.241 -0.6279 -0.0061 -0.9112
19235TIP3   OH279119   2.817   5.253  13.188 -0.4681 -0.0662  0.0601
19235TIP3    H179120   2.881   5.202  13.238  0.7490  0.3036 -1.0932
19235TIP3    H279121   2.858   5.338  13.178 -1.3184  0.2926 -0.3816
19236TIP3   OH279122   4.227   5.624  13.119 -0.3677  0.0022  0.6629
19236TIP3    H179123   4.215   5.599  13.027  0.4112  0.4832  0.4227
19236TIP3    H279124   4.141   5.609  13.160 -0.3613 -1.4727  0.1560
19237TIP3   OH279125   3.291   2.534  12.910 -0.5789  0.1769 -0.5430
19237TIP3    H179126   3.330   2.575  12.987 -0.6156 -1.3561  0.3067
19237TIP3    H279127   3.205   2.577  12.901 -0.1894  1.0218 -0.3056
19238TIP3   OH279128   4.019   2.154  16.563 -0.3247 -0.3702 -0.0424
19238TIP3    H179129   4.014   2.243  16.529  0.4998 -0.5536 -0.6608
19238TIP3    H279130   3.965   2.103  16.503 -0.1050 -0.4264 -0.1964
19239TIP3   OH279131   6.678   3.348  15.765 -0.0180  0.7801 -0.4158
19239TIP3    H179132   6.702   3.436  15.736 -1.6889  1.1158 -0.7914
19239TIP3    H279133   6.749   3.292  15.733  1.1818  2.0124  0.0401
19240TIP3   OH279134   6.483   5.143  11.058  0.1789  0.1221  0.2625
19240TIP3    H179135   6.459   5.051  11.056 -3.6693  1.0328  0.3805
19240TIP3    H279136   6.564   5.148  11.006 -0.4467 -3.0376 -1.1434
19241TIP3   OH279137   2.929   6.165  15.918  0.2209  0.1574 -0.4840
19241TIP3    H179138   2.872   6.193  15.847  0.4554  1.6826 -0.0852
19241TIP3    H279139   2.910   6.225  15.990  0.9851 -0.4952  0.2756
19242TIP3   OH279140   3.682   6.775   0.426  0.0944  0.5488  0.4379
19242TIP3    H179141   3.701   6.705   0.488  2.1342  2.1094  1.6606
19242TIP3    H279142   3.709   6.855   0.472 -2.7130  2.2080 -0.6721
19243TIP3   OH279143   4.194   6.389  14.410 -0.4756 -0.2755 -0.5218
19243TIP3    H179144   4.158   6.475  14.432  1.2857  0.0095  1.3457
19243TIP3    H279145   4.149   6.329  14.468 -2.2036 -0.7471 -2.2975
19244TIP3   OH279146   1.691   5.963   2.431  0.0821 -0.1868 -0.1797
19244TIP3    H179147   1.782   5.991   2.436  0.6684 -1.7622 -1.4982
19244TIP3    H279148   1.640   6.041   2.451  1.7151  0.8555 -0.0250
19245TIP3   OH279149   3.654   0.431   1.098 -0.2086  0.1330 -0.2834
19245TIP3    H179150   3.676   0.464   1.185 -0.4588  0.6194 -0.4015
19245TIP3    H279151   3.560   0.448   1.089 -0.5120 -1.3422 -0.0344
19246TIP3   OH279152   3.569   4.502   0.910 -0.4784  0.3022  0.6034
19246TIP3    H179153   3.623   4.536   0.839  0.2131  0.2387  1.0981
19246TIP3    H279154   3.593   4.410   0.916 -1.8637 -0.1303 -0.2892
19247TIP3   OH279155   6.018   0.063   3.873 -0.5329  0.0212 -0.0091
19247TIP3    H179156   5.928   0.043   3.847 -0.1063 -0.2989 -1.2880
19247TIP3    H279157   6.050  -0.018   3.912 -0.4769 -0.1941 -0.4923
19248TIP3   OH279158   6.408   1.049  14.583  0.1945  0.4142 -0.1884
19248TIP3    H179159   6.358   1.111  14.529  0.9879  1.1182 -0.1394
19248TIP3    H279160   6.342   0.994  14.625 -0.4924  0.7491 -0.8177
19249TIP3   OH279161   5.190   4.931  16.713  0.6461 -0.0624 -0.0224
19249TIP3    H179162   5.124   4.870  16.679  2.2973 -1.6403 -0.4760
19249TIP3    H279163   5.172   4.935  16.807  0.3226 -1.0116 -0.0376
19250TIP3   OH279164   6.437   6.726   5.121 -0.3152  0.2066 -0.3114
19250TIP3    H179165   6.352   6.719   5.077  0.0874  0.1712 -1.1030
19250TIP3    H279166   6.425   6.679   5.203 -0.5079 -1.4775 -1.2732
19251TIP3   OH279167   1.186   2.036  11.975 -0.3777  0.2407 -0.2399
19251TIP3    H179168   1.212   1.960  11.923  0.7549  1.4176 -1.4310
19251TIP3    H279169   1.136   2.090  11.915  2.0292  2.2406 -0.5445
19252TIP3   OH279170   6.163   4.797  14.443  0.0567  0.3678 -0.2122
19252TIP3    H179171   6.151   4.751  14.526 -0.9381  0.9176 -0.0489
19252TIP3    H279172   6.215   4.737  14.390 -1.3394 -1.0074 -0.0461
19253TIP3   OH279173   0.358   3.447  12.888  0.2092  0.0952 -0.1332
19253TIP3    H179174   0.424   3.382  12.913 -1.3068 -1.2556  0.4250
19253TIP3    H279175   0.340   3.429  12.796  0.3299  0.2330 -0.1841
19254TIP3   OH279176   4.712   1.529  15.541 -0.3399  0.6720  0.0119
19254TIP3    H179177   4.803   1.504  15.529  0.1893  1.5394  2.1718
19254TIP3    H279178   4.678   1.466  15.605 -0.8383  1.3050  0.3706
19255TIP3   OH279179   3.992   0.590  14.267  0.3533 -0.4547 -0.2605
19255TIP3    H179180   4.054   0.660  14.284 -0.5302 -0.1494  1.8093
19255TIP3    H279181   4.042   0.525  14.217  3.3823 -1.7981  4.2249
19256TIP3   OH279182   1.242   0.575  12.701  0.3318 -0.0086 -0.2748
19256TIP3    H179183   1.279   0.490  12.678 -0.1735  0.0553 -1.3723
19256TIP3    H279184   1.312   0.638  12.681  0.4505 -0.1008 -0.1474
19257TIP3   OH279185   5.634   2.071   4.860  0.0959  0.7547 -0.3446
19257TIP3    H179186   5.587   1.992   4.832 -0.7112  0.3507  2.0443
19257TIP3    H279187   5.568   2.123   4.905  0.8588  2.3753 -1.0648
19258TIP3   OH279188   4.981   4.924   9.954 -0.8369 -0.3218 -0.4167
19258TIP3    H179189   5.022   5.010   9.959 -1.0039 -0.1745 -1.4350
19258TIP3    H279190   4.899   4.939   9.906 -0.2228 -1.2626 -1.8128
19259TIP3   OH279191   4.424   3.178   4.019  0.1567 -0.2112 -0.5509
19259TIP3    H179192   4.415   3.248   3.954 -2.2989 -0.9511 -1.0412
19259TIP3    H279193   4.370   3.207   4.092 -0.5469 -1.4281 -0.5958
19260TIP3   OH279194   3.520   4.610  13.391 -0.1296  0.3103 -0.2250
19260TIP3    H179195   3.593   4.646  13.340 -0.4596 -0.0876 -0.9864
19260TIP3    H279196   3.537   4.639  13.481  0.7874  0.5008 -0.4522
19261TIP3   OH279197   3.376   2.464   1.658  0.0638 -0.0626  0.2225
19261TIP3    H179198   3.450   2.407   1.679 -0.1509 -0.4402 -0.0348
19261TIP3    H279199   3.305   2.404   1.633 -0.3181  0.2956  0.4262
19262TIP3   OH279200   2.165   0.310  14.466  0.1363 -0.1932  0.1528
19262TIP3    H179201   2.130   0.282  14.381 -1.6312 -2.5439  1.5517
19262TIP3    H279202   2.088   0.313  14.523  1.4002  0.5560  1.8696
19263TIP3   OH279203   6.359   5.139  12.340 -0.0179  0.1613 -0.4722
19263TIP3    H179204   6.333   5.168  12.427 -1.3082  2.0941 -1.4435
19263TIP3    H279205   6.449   5.108  12.350  0.3370  1.6857  1.2542
19264TIP3   OH279206   6.055   0.941  11.746 -0.2692  0.2799  0.2984
19264TIP3    H179207   6.058   0.847  11.758 -0.8096  0.0147 -1.4002
19264TIP3    H279208   6.054   0.977  11.834 -0.6785 -1.3272  0.9686
19265TIP3   OH279209   5.590   3.358   5.102 -0.4053  0.3138 -0.2394
19265TIP3    H179210   5.550   3.286   5.152 -0.6339 -0.7808 -1.9609
19265TIP3    H279211   5.664   3.386   5.156  1.0800 -2.7539 -0.5624
19266TIP3   OH279212   0.581   0.530   6.494  0.0266 -0.2023 -0.8574
19266TIP3    H179213   0.598   0.620   6.523  2.0121 -1.2115  1.2368
19266TIP3    H279214   0.643   0.516   6.422  2.3170 -1.0554  1.2118
19267TIP3   OH279215   5.446   5.872   1.344 -0.3120  0.2391  0.2502
19267TIP3    H179216   5.453   5.947   1.286 -1.5505 -0.6067 -1.0225
19267TIP3    H279217   5.534   5.862   1.381 -0.2886  2.6758  0.9545
19268TIP3   OH279218   2.806   3.532  16.585 -0.2058 -0.8509  0.3461
19268TIP3    H179219   2.753   3.512  16.662 -1.6334 -0.4269 -0.5124
19268TIP3    H279220   2.880   3.581  16.619 -1.3381  0.2038  1.3400
19269TIP3   OH279221   2.850   6.312   5.869 -0.2135 -0.2528 -0.2376
19269TIP3    H179222   2.763   6.274   5.866 -0.1394 -0.6103  1.7876
19269TIP3    H279223   2.847   6.373   5.943  1.4482 -0.7634  0.2686
19270TIP3   OH279224   3.072   5.264  14.803 -0.0273 -0.6372 -0.1308
19270TIP3    H179225   3.034   5.337  14.853  0.5959  0.0026 -0.5838
19270TIP3    H279226   2.997   5.209  14.781 -0.8656  1.1263 -1.8524
19271TIP3   OH279227   0.374   4.615  12.666 -0.0194 -0.3142 -0.3083
19271TIP3    H179228   0.434   4.636  12.594 -0.8867 -0.0031 -0.9498
19271TIP3    H279229   0.398   4.676  12.736  0.7259 -0.5098 -0.3947
19272TIP3   OH279230   3.623   6.642   4.765 -0.6286  0.0244  0.7509
19272TIP3    H179231   3.709   6.676   4.791  0.2661 -0.2496 -1.7163
19272TIP3    H279232   3.623   6.551   4.795 -1.0940  0.7364  3.0059
19273TIP3   OH279233   4.065   4.871   4.051 -0.2277  0.1038 -0.3558
19273TIP3    H179234   4.012   4.807   4.099  2.2020 -0.2313  1.9682
19273TIP3    H279235   4.006   4.945   4.038 -1.3964 -0.3652  1.9402
19274TIP3   OH279236   2.778   4.450   1.668 -0.3747 -0.0238 -0.2453
19274TIP3    H179237   2.868   4.432   1.694 -0.8968  0.6731  2.2248
19274TIP3    H279238   2.785   4.501   1.588  1.3259 -2.8509 -1.9792
19275TIP3   OH279239   3.403   1.734  11.832 -0.2610 -0.0602 -0.1637
19275TIP3    H179240   3.419   1.681  11.910 -0.4871 -0.0306 -0.0968
19275TIP3    H279241   3.311   1.758  11.838 -0.0806  0.5913 -0.0439
19276TIP3   OH279242   6.499   1.319  14.846 -0.5702 -0.0361 -0.3434
19276TIP3    H179243   6.584   1.360  14.838 -0.9779  0.7703 -0.5768
19276TIP3    H279244   6.452   1.344  14.766 -1.7327  1.1832  0.7067
19277TIP3   OH279245   0.441   1.862   3.862  0.5540 -0.4334 -0.1499
19277TIP3    H179246   0.430   1.860   3.767 -0.2172 -0.6196 -0.0594
19277TIP3    H279247   0.533   1.884   3.875  0.0993  2.0990 -0.9460
19278TIP3   OH279248   5.666   3.984  16.737  0.4646  0.8334  0.5607
19278TIP3    H179249   5.714   3.996  16.655  0.5593 -0.0007  0.4941
19278TIP3    H279250   5.721   3.926  16.789 -1.5995 -2.1731 -0.4912
19279TIP3   OH279251   0.966   1.717  14.448  0.4201  0.6910  0.0113
19279TIP3    H179252   0.966   1.690  14.357  0.6333 -0.7341  0.4192
19279TIP3    H279253   0.884   1.765  14.460 -1.4438 -2.3965  0.0070
19280TIP3   OH279254   6.117   5.743  11.369  0.1370 -0.0688 -0.3323
19280TIP3    H179255   6.022   5.729  11.375  0.0391  0.7296  0.0636
19280TIP3    H279256   6.129   5.788  11.285  0.1465 -0.0649 -0.3277
19281TIP3   OH279257   2.572   4.086  10.927 -0.3605  0.0516  0.7057
19281TIP3    H179258   2.661   4.081  10.962 -1.2144  1.6283  3.2652
19281TIP3    H279259   2.522   4.131  10.995 -2.6408  1.2017 -1.6240
19282TIP3   OH279260   1.804   0.849   1.574  0.7295 -0.8875  0.4670
19282TIP3    H179261   1.845   0.806   1.499  1.4379 -0.2133  0.4676
19282TIP3    H279262   1.877   0.884   1.625  0.1705  0.0564  0.6315
19283TIP3   OH279263   2.615   6.619  13.224 -0.3688  0.4451 -0.1588
19283TIP3    H179264   2.616   6.620  13.319  2.2771 -2.3585 -0.0772
19283TIP3    H279265   2.568   6.539  13.201  0.3126  0.3296 -1.1782
19284TIP3   OH279266   4.173   3.205   5.822 -0.2155  0.6706  0.4506
19284TIP3    H179267   4.104   3.272   5.819  0.5329  1.4117 -0.5714
19284TIP3    H279268   4.127   3.125   5.847 -1.8814  0.6469 -2.3719
19285TIP3   OH279269   5.040   6.231  16.755  0.5219 -0.1177  0.0429
19285TIP3    H179270   5.132   6.251  16.739  1.0716 -3.6634 -1.5921
19285TIP3    H279271   5.008   6.195  16.673 -1.2387 -2.7344  1.7869
19286TIP3   OH279272   3.762   4.792   5.872 -0.0522 -0.2089  0.6023
19286TIP3    H179273   3.687   4.794   5.931  1.1481  0.2190  2.1601
19286TIP3    H279274   3.781   4.884   5.854  0.7622 -0.2829  1.0815
19287TIP3   OH279275   0.893   5.310  13.486  0.3013 -0.3111  0.2159
19287TIP3    H179276   0.938   5.283  13.566  0.9914  1.5421  0.4812
19287TIP3    H279277   0.801   5.320  13.512  0.8511  2.1723  1.2756
19288TIP3   OH279278   5.139   2.458  14.494  0.0108  0.2082 -0.3306
19288TIP3    H179279   5.104   2.531  14.443 -0.4277 -0.1806 -0.5830
19288TIP3    H279280   5.087   2.458  14.574 -0.4345 -0.2461 -0.6200
19289TIP3   OH279281   0.465   0.700  14.570 -0.1467  0.4010 -0.1811
19289TIP3    H179282   0.391   0.724  14.515  0.5245  2.0134 -0.3986
19289TIP3    H279283   0.440   0.725  14.658 -0.4156 -0.3296 -0.0496
19290TIP3   OH279284   3.166   4.735   0.735  0.0363  0.6934  0.6169
19290TIP3    H179285   3.082   4.762   0.772 -0.0127  1.9196 -0.3518
19290TIP3    H279286   3.217   4.706   0.811 -0.8060  1.1414  1.3742
19291TIP3   OH279287   5.742   4.199  15.750 -0.1664  0.3490  0.4052
19291TIP3    H179288   5.718   4.245  15.830  1.0469 -0.0182  0.9897
19291TIP3    H279289   5.836   4.185  15.758 -0.0277  0.3717 -1.1220
19292TIP3   OH279290   3.886   1.271  10.897 -0.4816 -0.0894 -0.9798
19292TIP3    H179291   3.796   1.278  10.866  0.0377  1.1958 -2.2610
19292TIP3    H279292   3.878   1.237  10.986 -2.2493  0.1982 -1.0063
19293TIP3   OH279293   1.843   6.299  12.686  0.3897 -0.9130  0.6107
19293TIP3    H179294   1.880   6.245  12.617 -1.4405 -2.0115  0.4587
19293TIP3    H279295   1.761   6.255  12.710 -0.0992  0.6583  1.9320
19294TIP3   OH279296   0.142   2.225  12.850  0.0983  0.0189  0.0791
19294TIP3    H179297   0.125   2.264  12.765  2.7318  0.6153 -0.2014
19294TIP3    H279298   0.230   2.190  12.844  0.6812  0.8637  2.8562
19295TIP3   OH279299   6.774   0.622  11.282 -0.0333  0.7662 -0.3414
19295TIP3    H179300   6.720   0.619  11.203 -2.1503 -1.6764  1.1122
19295TIP3    H279301   6.864   0.621  11.249 -0.8653  2.1646 -2.7590
19296TIP3   OH279302   5.168   1.222   3.754 -0.0062 -0.1369 -0.3520
19296TIP3    H179303   5.257   1.194   3.734 -0.1065 -1.2135  0.6537
19296TIP3    H279304   5.169   1.317   3.742  1.1773 -0.1945 -0.7103
19297TIP3   OH279305   5.350   5.434   5.064  0.5167 -0.5937 -0.1822
19297TIP3    H179306   5.306   5.420   5.148  0.7021  1.2212  0.2217
19297TIP3    H279307   5.441   5.448   5.087  0.5867 -0.2024 -0.7059
19298TIP3   OH279308   4.659   4.929  16.976 -0.5627  0.1890 -0.2938
19298TIP3    H179309   4.587   4.875  17.010 -1.1613  1.2966  0.2248
19298TIP3    H279310   4.625   4.967  16.895 -1.2061  2.0652  0.8199
19299TIP3   OH279311   5.996   5.730   2.921 -0.1500 -0.4716  0.1953
19299TIP3    H179312   6.042   5.656   2.959  1.2542 -0.1158 -0.7739
19299TIP3    H279313   6.036   5.807   2.963 -1.9654 -0.2524  1.6003
19300TIP3   OH279314   3.494   5.955  15.730 -0.5427 -0.3929  0.9265
19300TIP3    H179315   3.429   5.907  15.679 -0.4571 -0.2432  0.6773
19300TIP3    H279316   3.442   6.016  15.783 -0.5947 -0.1172  0.5622
19301TIP3   OH279317   2.643   0.851  16.147 -0.3593  0.6253  0.0895
19301TIP3    H179318   2.612   0.766  16.176 -1.2174  1.1177  0.6173
19301TIP3    H279319   2.636   0.848  16.051  1.5190 -0.6225 -0.0251
19302TIP3   OH279320   0.962   5.000  13.160  0.1744  0.1325 -0.2348
19302TIP3    H179321   0.887   4.942  13.166 -0.0599  0.5498  1.0715
19302TIP3    H279322   0.932   5.083  13.196  2.3423 -0.8099  4.1201
19303TIP3   OH279323   3.001   1.497   0.331 -0.6414  0.3414  0.4208
19303TIP3    H179324   3.061   1.558   0.374 -0.7976 -0.0069  1.1421
19303TIP3    H279325   3.045   1.412   0.336 -0.5618  0.3380 -0.3078
19304TIP3   OH279326   4.769   5.846   0.074 -0.1889 -0.4950  0.1876
19304TIP3    H179327   4.696   5.907   0.077  0.9700  0.9624 -0.8227
19304TIP3    H279328   4.742   5.779   0.012 -0.2655  0.5808 -0.9493
19305TIP3   OH279329   3.138   0.286  15.953 -0.7453  0.4059  0.3183
19305TIP3    H179330   3.166   0.260  16.041  0.6393 -0.5692 -0.3732
19305TIP3    H279331   3.220   0.306  15.908 -1.1238 -2.2420 -1.6937
19306TIP3   OH279332   2.316   3.056   2.323  0.4275  0.0815 -0.4523
19306TIP3    H179333   2.364   3.105   2.390 -1.1776 -2.0183  2.3482
19306TIP3    H279334   2.252   3.118   2.289  0.4473  0.8438  0.8614
19307TIP3   OH279335   3.175   0.315   3.145  0.0791  0.2003 -0.3788
19307TIP3    H179336   3.181   0.219   3.151 -2.0664  0.1657  1.7428
19307TIP3    H279337   3.233   0.346   3.215 -1.1596  0.3790  0.5859
19308TIP3   OH279338   4.307   3.765  15.259  0.5769 -0.3162 -0.2216
19308TIP3    H179339   4.282   3.672  15.259 -0.4360 -0.0518 -0.6748
19308TIP3    H279340   4.333   3.783  15.169  1.6849 -0.3972  0.0829
19309TIP3   OH279341   0.334   6.202   0.142  0.4120  0.0853  0.3390
19309TIP3    H179342   0.293   6.287   0.156 -1.6397 -0.8895  0.3524
19309TIP3    H279343   0.425   6.222   0.118  0.6444  2.2026  2.8000
19310TIP3   OH279344   1.003   4.981   3.830  0.5137 -0.0391  0.1229
19310TIP3    H179345   0.912   4.987   3.859  0.2443 -0.4699 -0.6084
19310TIP3    H279346   1.000   4.920   3.756  1.3893 -0.0183  0.0679
19311TIP3   OH279347   4.148   4.522   0.031 -0.7653 -0.5762  0.4653
19311TIP3    H179348   4.092   4.443   0.036  1.5263 -2.1574  2.1933
19311TIP3    H279349   4.207   4.514   0.106 -0.3751  2.7558  0.5693
19312TIP3   OH279350   1.133   4.082   1.640 -0.4489  0.0277 -0.5788
19312TIP3    H179351   1.154   3.999   1.683  0.4124  1.1735  1.3004
19312TIP3    H279352   1.058   4.116   1.689  1.3843  1.9899  0.9245
19313TIP3   OH279353   6.164   6.420   5.276 -0.1587 -0.0699  0.6779
19313TIP3    H179354   6.091   6.358   5.272  0.3593 -0.5531 -2.3239
19313TIP3    H279355   6.228   6.378   5.334 -0.1791 -1.9910 -0.6506
19314TIP3   OH279356   1.950   2.621  16.195  0.0139 -0.0996 -0.1136
19314TIP3    H179357   1.949   2.706  16.239  2.7161 -0.2133  0.2760
19314TIP3    H279358   1.908   2.561  16.257  2.6908 -0.0148  1.9021
19315TIP3   OH279359   0.254   1.737   6.076 -0.7060 -0.0543 -0.4687
19315TIP3    H179360   0.294   1.659   6.116 -1.5811 -0.7308 -0.8871
19315TIP3    H279361   0.160   1.721   6.083 -0.8904  0.9690 -0.5741
19316TIP3   OH279362   6.777   1.807   3.873  0.2192  0.2541  0.3453
19316TIP3    H179363   6.682   1.796   3.864  0.5744 -2.6147 -0.6079
19316TIP3    H279364   6.812   1.788   3.786  1.8589 -1.8838  1.4149
19317TIP3   OH279365   3.479   0.489  11.160 -0.1525  0.3077  0.0430
19317TIP3    H179366   3.560   0.448  11.189 -0.3394 -2.1450 -2.6422
19317TIP3    H279367   3.501   0.581  11.147  1.7573 -0.0158  0.8993
19318TIP3   OH279368   5.952   2.335   6.394  0.4007 -0.3589  0.3108
19318TIP3    H179369   6.014   2.303   6.460  0.2482  0.7995  1.0273
19318TIP3    H279370   5.939   2.261   6.335  0.0635 -1.6338  1.9434
19319TIP3   OH279371   0.219   4.818  13.788 -0.5411 -0.3913 -0.0004
19319TIP3    H179372   0.265   4.745  13.746 -1.8249 -1.0419 -0.3107
19319TIP3    H279373   0.178   4.866  13.716 -2.0953 -1.0545  0.4191
19320TIP3   OH279374   3.336   5.760  12.795 -1.0663 -0.3831  0.1881
19320TIP3    H179375   3.286   5.834  12.760 -0.7539 -1.2988 -2.3520
19320TIP3    H279376   3.422   5.797  12.816 -0.9044  0.0068 -1.0905
19321TIP3   OH279377   5.185   5.583  11.696  0.2390 -0.0643 -0.4771
19321TIP3    H179378   5.179   5.573  11.601  2.7420  0.6693 -0.7501
19321TIP3    H279379   5.156   5.673  11.713  0.3502  0.0008 -0.6276
19322TIP3   OH279380   6.480   6.186   2.480 -0.0670 -0.2943  0.5337
19322TIP3    H179381   6.393   6.150   2.492 -0.1900 -0.1724  0.0328
19322TIP3    H279382   6.507   6.214   2.567  0.4555 -2.5349  1.1128
19323TIP3   OH279383   3.030   5.105  13.305  0.8007  0.4023 -0.5387
19323TIP3    H179384   3.099   5.161  13.342  1.5888  0.5203 -2.1634
19323TIP3    H279385   3.073   5.055  13.236 -0.2071 -1.2732  0.0039
19324TIP3   OH279386   0.344   2.082  17.030 -0.2457 -0.2935 -0.6774
19324TIP3    H179387   0.311   2.172  17.030 -1.0543 -0.5849 -1.5932
19324TIP3    H279388   0.367   2.064  16.939  0.5209 -0.8042 -0.3947
19325TIP3   OH279389   5.170   3.339  11.412 -0.0078 -0.1699  0.3655
19325TIP3    H179390   5.223   3.391  11.472 -0.2896  0.1684  0.3223
19325TIP3    H279391   5.157   3.395  11.336 -0.5713 -0.1820  0.4480
19326TIP3   OH279392   6.469   4.619  16.080 -0.2823  0.4421  0.2047
19326TIP3    H179393   6.375   4.636  16.075 -0.6090 -1.4304 -0.3877
19326TIP3    H279394   6.481   4.568  16.160 -0.1108 -1.2194 -0.8419
19327TIP3   OH279395   6.504   3.225   4.473  0.0725  0.3246  0.5218
19327TIP3    H179396   6.537   3.145   4.512  2.4819  0.1869 -1.6510
19327TIP3    H279397   6.562   3.294   4.506  0.5722  0.5604 -0.8302
19328TIP3   OH279398   6.532   2.516   5.351  0.0463 -0.4406  0.3678
19328TIP3    H179399   6.505   2.600   5.313 -1.6249 -1.2936 -0.3770
19328TIP3    H279400   6.482   2.510   5.433 -0.3201 -0.9855  0.1083
19329TIP3   OH279401   6.392   0.405  13.456  0.4305 -0.1820  0.3633
19329TIP3    H179402   6.417   0.473  13.519 -3.0495  1.8574 -0.2694
19329TIP3    H279403   6.351   0.337  13.510 -0.7786  0.6679  0.5619
19330TIP3   OH279404   4.738   5.969  13.901  0.0402 -0.1205  0.6877
19330TIP3    H179405   4.722   6.019  13.981  1.4561 -0.0018  0.9177
19330TIP3    H279406   4.755   6.036  13.835  2.3369 -0.2756  1.0854
19331TIP3   OH279407   3.735   3.126   4.616  0.6600  0.1925 -0.6979
19331TIP3    H179408   3.664   3.178   4.579  0.0019 -1.2978 -1.5949
19331TIP3    H279409   3.700   3.037   4.620  1.0078  0.1451  2.7998
19332TIP3   OH279410   6.385   0.845  16.994  0.1258  0.9191 -0.5389
19332TIP3    H179411   6.301   0.800  16.984  1.3641 -1.2518 -1.5984
19332TIP3    H279412   6.382   0.883  17.082 -1.3208 -0.5001  0.0504
19333TIP3   OH279413   5.327   6.173  14.080  0.1898  0.4477  0.1901
19333TIP3    H179414   5.277   6.172  13.998  3.3605  0.6834 -1.8364
19333TIP3    H279415   5.374   6.089  14.080  0.4291  0.5745  1.6574
19334TIP3   OH279416   5.136   1.373  13.360 -0.6559  0.6451 -0.4672
19334TIP3    H179417   5.204   1.306  13.368 -2.7706 -1.4977  0.1305
19334TIP3    H279418   5.109   1.369  13.268 -0.5039  0.9499 -0.5236
19335TIP3   OH279419   3.902   3.236  16.988 -0.3380 -0.0973 -0.0682
19335TIP3    H179420   3.858   3.281  16.916 -0.7571  0.4825  0.5377
19335TIP3    H279421   3.956   3.169  16.946 -0.7276  0.1099 -0.9025
19336TIP3   OH279422   0.515   3.969   4.152 -0.2779  1.3311  0.4013
19336TIP3    H179423   0.433   4.001   4.189 -1.1145 -1.0759  0.7137
19336TIP3    H279424   0.583   4.010   4.205 -1.3418  1.4181  1.7303
19337TIP3   OH279425   1.747   3.944  13.281 -0.2663  0.6013  0.5987
19337TIP3    H179426   1.672   4.002  13.296 -0.7141 -0.0727  0.9909
19337TIP3    H279427   1.708   3.858  13.263  0.4193 -0.0761  2.1870
19338TIP3   OH279428   3.179   1.505  15.182 -0.0861 -0.4980  0.0233
19338TIP3    H179429   3.173   1.410  15.193 -1.2152 -0.2550  1.6690
19338TIP3    H279430   3.128   1.523  15.103  1.6054 -1.4319 -1.3143
19339TIP3   OH279431   5.512   0.301   5.154  0.6319  0.4307  0.3986
19339TIP3    H179432   5.491   0.303   5.061 -0.7176  1.9776  0.7342
19339TIP3    H279433   5.585   0.362   5.163 -0.5371  1.7994  0.6694
19340TIP3   OH279434   1.955   6.607  10.852 -0.2251  0.1134  0.5549
19340TIP3    H179435   1.896   6.632  10.782 -0.0012  1.5247  0.8630
19340TIP3    H279436   1.906   6.540  10.901 -0.6507 -0.3775 -0.5123
19341TIP3   OH279437   2.213   5.838  14.372  0.3405 -0.2125 -0.3976
19341TIP3    H179438   2.303   5.834  14.404 -0.0199 -1.7850  0.5014
19341TIP3    H279439   2.221   5.857  14.278  1.5433  0.9047 -0.0925
19342TIP3   OH279440   4.325   1.039  13.950  0.3135 -0.0339 -0.0885
19342TIP3    H179441   4.364   1.085  13.875  0.5938  0.2950  0.2596
19342TIP3    H279442   4.346   1.094  14.025  0.7491 -0.8031  0.3472
19343TIP3   OH279443   6.085   4.397   5.262 -0.1208  0.4184  0.4950
19343TIP3    H179444   6.033   4.316   5.253 -0.6676  0.8912 -0.6459
19343TIP3    H279445   6.022   4.467   5.247  0.9091  0.9922 -1.1224
19344TIP3   OH279446   1.457   6.490  14.138  0.2676 -0.2778  0.0958
19344TIP3    H179447   1.489   6.503  14.227  0.7767 -2.3975  0.2542
19344TIP3    H279448   1.515   6.544  14.084  2.1232 -1.5734  0.7235
19345TIP3   OH279449   1.134   0.512  13.164 -0.8081  0.6826  0.3450
19345TIP3    H179450   1.185   0.583  13.124 -2.2382  2.3541  1.4185
19345TIP3    H279451   1.051   0.512  13.116 -0.3677 -1.0756 -0.4423
19346TIP3   OH279452   4.319   2.915   5.676 -0.4740  0.2709 -0.0173
19346TIP3    H179453   4.251   2.974   5.642 -0.4115 -0.1748 -0.9442
19346TIP3    H279454   4.397   2.969   5.681 -0.9774  0.8860  1.4036
19347TIP3   OH279455   5.580   1.043  15.944  0.3774 -0.3170  0.2236
19347TIP3    H179456   5.649   1.104  15.971 -0.1826  0.6179 -0.4316
19347TIP3    H279457   5.538   1.018  16.026  0.5973  0.2067  0.5030
19348TIP3   OH279458   2.879   2.305  11.050 -0.3759 -0.2241 -0.3012
19348TIP3    H179459   2.884   2.261  10.965  2.1251  0.0785 -0.3299
19348TIP3    H279460   2.960   2.356  11.056 -0.8405  0.3063  1.9794
19349TIP3   OH279461   3.669   4.319  12.467 -0.2672 -0.3941  0.1647
19349TIP3    H179462   3.759   4.314  12.500 -0.3277 -0.5539  0.3020
19349TIP3    H279463   3.616   4.342  12.543 -0.1285  1.4137 -0.2482
19350TIP3   OH279464   2.538   6.063  14.635  0.3390  0.4533 -0.6468
19350TIP3    H179465   2.631   6.045  14.648  0.4826  1.0177 -0.8754
19350TIP3    H279466   2.497   6.036  14.717  0.7211  0.3121 -0.5016
19351TIP3   OH279467   2.862   0.241  15.688  0.3978 -0.0249 -0.4066
19351TIP3    H179468   2.775   0.207  15.708 -0.4402  0.4416 -3.0184
19351TIP3    H279469   2.915   0.218  15.764 -1.5640 -1.9241  0.4384
19352TIP3   OH279470   4.301   6.786  12.160  0.1766  0.0969 -0.0914
19352TIP3    H179471   4.310   6.694  12.184 -1.6639  0.0085  0.3383
19352TIP3    H279472   4.290   6.785  12.065  2.2056  0.0467 -0.3438
19353TIP3   OH279473   2.302   1.881  13.529  0.5519  0.2799 -0.1517
19353TIP3    H179474   2.300   1.861  13.435 -1.9392  0.6457 -0.1956
19353TIP3    H279475   2.281   1.798  13.572  2.8699 -0.1819  0.1667
19354TIP3   OH279476   2.310   3.025  15.334  0.0222  0.2173 -0.1801
19354TIP3    H179477   2.367   3.019  15.411 -1.3183  1.2587  0.9284
19354TIP3    H279478   2.369   3.048  15.263  1.5763 -2.5953  0.1223
19355TIP3   OH279479   0.367   5.770  12.418 -0.3183 -0.2200  0.2900
19355TIP3    H179480   0.378   5.781  12.324 -0.9749 -0.7701  0.1461
19355TIP3    H279481   0.310   5.694  12.427 -0.5078  0.0135  1.1239
19356TIP3   OH279482   2.130   3.180  14.979  0.1557  0.1319  0.3382
19356TIP3    H179483   2.204   3.174  14.918 -0.3240 -1.7560 -0.0797
19356TIP3    H279484   2.166   3.225  15.055  1.2012  1.0214 -0.6584
19357TIP3   OH279485   5.088   1.171  13.771  0.0996 -0.1944 -0.4043
19357TIP3    H179486   5.158   1.137  13.717  1.2367 -1.2153  1.6585
19357TIP3    H279487   5.031   1.096  13.787  1.7839 -0.8583  2.8704
19358TIP3   OH279488   1.808   0.308  17.047  0.3102 -0.0159  0.0724
19358TIP3    H179489   1.867   0.235  17.065  1.2545  1.0067  1.2272
19358TIP3    H279490   1.867   0.379  17.021 -0.4915  0.7477  0.3299
19359TIP3   OH279491   4.547   2.029  16.252  0.3136 -0.5950  0.0155
19359TIP3    H179492   4.640   2.030  16.274  0.1301 -1.1687  0.8602
19359TIP3    H279493   4.543   1.982  16.169  0.7789 -0.5605 -0.0276
19360TIP3   OH279494   0.349   5.378   0.961 -0.7126  0.7199  0.6587
19360TIP3    H179495   0.420   5.410   1.017  2.0441  0.3575 -2.4799
19360TIP3    H279496   0.355   5.432   0.881 -0.8879 -2.4598 -1.5829
19361TIP3   OH279497   6.109   2.608   5.340 -0.3812  0.1563 -0.4646
19361TIP3    H179498   6.044   2.543   5.314 -0.7269  0.1411  0.4296
19361TIP3    H279499   6.058   2.681   5.375  0.1210 -0.3939  1.4722
19362TIP3   OH279500   6.209   2.587   2.088 -0.0934  0.1364 -0.4382
19362TIP3    H179501   6.277   2.605   2.023  0.4233 -1.5871 -0.4109
19362TIP3    H279502   6.129   2.624   2.050  1.0936  3.5787  0.2413
19363TIP3   OH279503   5.386   0.024  16.303  0.3475  0.6078 -0.1379
19363TIP3    H179504   5.444  -0.008  16.372  0.3231  0.0751 -0.3643
19363TIP3    H279505   5.388   0.119  16.312  0.1381  0.5380  0.7661
19364TIP3   OH279506   4.966   0.794  14.180  0.1291  0.1533 -0.4392
19364TIP3    H179507   4.881   0.835  14.161 -0.2926  0.1335  1.3415
19364TIP3    H279508   4.944   0.711  14.222  1.0343 -0.3718 -0.9828
19365TIP3   OH279509   0.605   0.477  13.377 -0.0458  0.2597  0.2078
19365TIP3    H179510   0.661   0.399  13.372 -0.5421 -0.1187  0.4171
19365TIP3    H279511   0.561   0.468  13.462  1.8544  2.1181  1.4098
19366TIP3   OH279512   0.559   5.727   6.815 -0.3340  0.1395 -0.1721
19366TIP3    H179513   0.578   5.820   6.813  1.8522 -0.2887 -0.0648
19366TIP3    H279514   0.607   5.693   6.891 -1.2597 -1.0396 -0.0878
19367TIP3   OH279515   6.171   4.099   4.314 -0.0094 -0.3538 -0.1186
19367TIP3    H179516   6.094   4.090   4.258 -0.7949 -0.4793  0.9610
19367TIP3    H279517   6.136   4.094   4.403  1.1388  0.4580  0.3897
19368TIP3   OH279518   3.059   0.286   0.124  0.4138  0.5082  0.0985
19368TIP3    H179519   3.043   0.225   0.196 -0.5441  0.6088 -0.0267
19368TIP3    H279520   3.123   0.241   0.069 -1.8593 -1.3138 -1.1313
19369TIP3   OH279521   0.346   2.698  11.430 -0.2466  0.2161  0.7141
19369TIP3    H179522   0.282   2.629  11.415  0.9400 -0.6301 -0.6187
19369TIP3    H279523   0.370   2.728  11.342  0.0692  1.5718  1.2461
19370TIP3   OH279524   5.185   1.893  13.397  0.1089  0.6032 -0.1563
19370TIP3    H179525   5.118   1.903  13.329  0.3796  1.1563 -0.3421
19370TIP3    H279526   5.152   1.822  13.453 -1.2173  1.7019  0.4593
19371TIP3   OH279527   2.521   3.375   1.932  0.6835 -1.2055 -0.2199
19371TIP3    H179528   2.537   3.358   1.839  0.0806 -1.7641 -0.2278
19371TIP3    H279529   2.426   3.387   1.938  0.7061 -1.2688  0.3361
19372TIP3   OH279530   1.894   1.848  11.722  0.0449 -0.0043  0.1982
19372TIP3    H179531   1.899   1.930  11.671 -0.9379  0.3108  0.5953
19372TIP3    H279532   1.981   1.809  11.713  0.3337  0.7813 -0.5100
19373TIP3   OH279533   3.333   3.472   5.236 -0.5473 -0.7374  0.4098
19373TIP3    H179534   3.266   3.405   5.225 -0.6579 -0.8517  1.6518
19373TIP3    H279535   3.414   3.430   5.208 -0.5819 -1.4819  1.3859
19374TIP3   OH279536   5.595   6.264   6.008  0.1044  0.4185 -0.2515
19374TIP3    H179537   5.666   6.203   5.986  0.6872  0.4555  1.4534
19374TIP3    H279538   5.638   6.349   6.019  0.1464  0.0796  2.6794
19375TIP3   OH279539   1.511   4.126  17.043  0.3168 -0.2678  0.1472
19375TIP3    H179540   1.481   4.044  17.004  0.5155 -0.9228  1.3605
19375TIP3    H279541   1.508   4.111  17.137  0.1120  1.2077  0.3882
19376TIP3   OH279542   3.099   3.129  12.861  0.3607  0.3392 -0.0393
19376TIP3    H179543   3.027   3.080  12.901  1.3168 -0.8754  0.2198
19376TIP3    H279544   3.165   3.136  12.930 -0.1160  2.8295  0.2284
19377TIP3   OH279545   2.070   4.660   2.315  0.1555  0.2553  0.1624
19377TIP3    H179546   2.005   4.652   2.246 -0.6413  1.4193  0.7460
19377TIP3    H279547   2.154   4.663   2.270 -0.3925  1.6210 -0.8064
19378TIP3   OH279548   3.951   0.568   1.189 -0.1234 -0.3108  0.2894
19378TIP3    H179549   3.954   0.502   1.119  1.4538 -0.6497  0.6573
19378TIP3    H279550   3.988   0.647   1.149  2.8048 -1.0976  1.3259
19379TIP3   OH279551   4.736   4.884   1.238 -0.2462  0.4418 -0.1006
19379TIP3    H179552   4.828   4.869   1.216 -0.0843 -0.2080  0.9722
19379TIP3    H279553   4.688   4.861   1.159  0.3761 -1.2452 -0.0104
19380TIP3   OH279554   5.957   1.539   3.907 -0.0970  0.5200 -0.0663
19380TIP3    H179555   5.875   1.540   3.957 -0.1579 -1.2018 -0.1037
19380TIP3    H279556   5.937   1.485   3.830  0.5175  1.6883 -1.0661
19381TIP3   OH279557   2.052   5.688   3.158 -0.2496 -0.5649 -0.4343
19381TIP3    H179558   2.113   5.614   3.156  2.0298  1.2643 -0.4703
19381TIP3    H279559   2.070   5.732   3.241  0.9992  1.9931 -2.0009
19382TIP3   OH279560   3.467   5.963  15.367  0.0913 -0.4802 -0.8870
19382TIP3    H179561   3.409   5.929  15.436 -1.0513 -0.4011 -1.7800
19382TIP3    H279562   3.555   5.946  15.399 -0.3859  0.9920  1.3252
19383TIP3   OH279563   0.666   2.309   0.955  0.4683  0.2369  0.1845
19383TIP3    H179564   0.710   2.274   0.877 -1.2986 -1.4776 -0.1084
19383TIP3    H279565   0.681   2.243   1.022 -1.0270 -0.0584  0.2589
19384TIP3   OH279566   0.186   1.292   4.784  0.4418 -0.1959 -0.3885
19384TIP3    H179567   0.259   1.305   4.846 -0.3759 -0.5021  0.6493
19384TIP3    H279568   0.187   1.371   4.729  1.7435 -0.3351 -0.5783
19385TIP3   OH279569   6.033   2.202   5.971  0.0105  0.8497 -0.1688
19385TIP3    H179570   6.024   2.292   5.938 -0.6880  0.8745  0.0617
19385TIP3    H279571   5.945   2.181   6.004 -0.5485 -0.9523 -2.7499
19386TIP3   OH279572   4.113   0.715   4.964 -0.2727 -0.2166  0.2965
19386TIP3    H179573   4.086   0.633   4.922 -0.1328  0.0549 -0.3371
19386TIP3    H279574   4.037   0.743   5.014 -0.1550 -0.9922  0.9259
19387TIP3   OH279575   3.957   3.332   1.484  0.2088  0.6271  0.7881
19387TIP3    H179576   3.938   3.411   1.434  0.9836  0.7118  0.6215
19387TIP3    H279577   3.875   3.310   1.528 -1.0389 -0.5901 -2.0752
19388TIP3   OH279578   6.192   5.947  16.482 -0.6785  0.0478  0.0716
19388TIP3    H179579   6.200   5.961  16.576 -2.0473 -0.8634  0.3404
19388TIP3    H279580   6.253   6.009  16.443  0.6289 -0.2542  1.5913
19389TIP3   OH279581   0.106   4.428   0.582 -0.0072  0.8077  0.8657
19389TIP3    H179582   0.184   4.474   0.614  0.9328  0.7910 -1.2820
19389TIP3    H279583   0.037   4.494   0.584  0.6447  1.5108  0.5090
19390TIP3   OH279584   1.180   5.069  14.326  0.1699 -0.2002  0.5419
19390TIP3    H179585   1.221   4.993  14.367 -2.1852 -1.6138  0.3842
19390TIP3    H279586   1.217   5.144  14.371  1.6134 -1.4961  1.5520
19391TIP3   OH279587   4.109   2.082  11.670  0.3891  0.3234  0.6175
19391TIP3    H179588   4.099   2.177  11.678  1.0051  0.2893  1.9094
19391TIP3    H279589   4.021   2.048  11.679  0.2984  0.7127  1.3025
19392TIP3   OH279590   4.150   1.525   0.684 -0.4060 -0.1664  0.4201
19392TIP3    H179591   4.080   1.553   0.743 -0.2132  0.1306  0.5125
19392TIP3    H279592   4.174   1.438   0.715 -1.5949 -0.8013 -0.3965
19393TIP3   OH279593   1.728   1.519   5.484 -0.0124  0.7349  0.1553
19393TIP3    H179594   1.808   1.513   5.431  1.6597  2.4913  2.3862
19393TIP3    H279595   1.696   1.608   5.469  0.0350  0.9795  1.4414
19394TIP3   OH279596   2.807   4.479   5.466  0.2405  0.3014  0.2849
19394TIP3    H179597   2.769   4.391   5.463  0.9362  0.0190 -0.3030
19394TIP3    H279598   2.741   4.536   5.427  0.7067 -0.2957 -1.4125
19395TIP3   OH279599   3.488   6.286   0.769 -0.1488 -0.3476  0.4038
19395TIP3    H179600   3.580   6.263   0.758 -0.2434 -0.7892  0.5092
19395TIP3    H279601   3.441   6.221   0.717 -0.3356  0.7031 -0.7556
19396TIP3   OH279602   5.075   2.959  14.860 -0.0199  0.1406 -0.0353
19396TIP3    H179603   5.131   2.974  14.784  0.8756  1.0445  0.7769
19396TIP3    H279604   5.134   2.964  14.935 -0.8641 -0.8754  0.7204
19397TIP3   OH279605   2.544   2.622  13.601 -0.0770 -0.1568 -0.2870
19397TIP3    H179606   2.631   2.584  13.585  0.1573 -0.7284  2.1194
19397TIP3    H279607   2.493   2.598  13.524  1.2209 -1.9237 -0.6292
19398TIP3   OH279608   3.517   4.112   1.789  0.1109  0.0931 -0.3352
19398TIP3    H179609   3.562   4.118   1.874  3.1250 -1.0716 -1.7784
19398TIP3    H279610   3.528   4.199   1.751  0.7859 -0.0583 -0.4966
19399TIP3   OH279611   0.824   4.950   5.919 -0.3875 -0.2313  0.0621
19399TIP3    H179612   0.832   4.855   5.918 -0.3418 -0.2356  0.7507
19399TIP3    H279613   0.867   4.977   6.000  1.6884  0.5628 -1.2539
19400TIP3   OH279614   6.741   3.235  17.001 -0.1901  0.4008  0.7252
19400TIP3    H179615   6.667   3.182  17.030  0.5479 -0.6558  0.7100
19400TIP3    H279616   6.748   3.217  16.907 -1.3115  2.2496  0.2620
19401TIP3   OH279617   6.752   4.793  11.726 -0.4291 -0.3184 -0.7766
19401TIP3    H179618   6.811   4.741  11.671 -1.1430 -0.0025 -1.8601
19401TIP3    H279619   6.707   4.728  11.780  0.6245 -0.5939 -0.2128
19402TIP3   OH279620   4.310   4.980  14.620  0.2939  0.4019 -0.1826
19402TIP3    H179621   4.358   5.029  14.687 -0.6504  0.7986  0.2292
19402TIP3    H279622   4.325   5.029  14.540  0.6514  0.4684 -0.0771
19403TIP3   OH279623   5.056   2.873   2.960  0.4457  0.2438  0.3631
19403TIP3    H179624   5.023   2.924   3.035 -1.6149 -1.7415  0.8570
19403TIP3    H279625   5.009   2.909   2.885 -0.2836 -0.2654  0.5721
19404TIP3   OH279626   2.737   0.669   5.639  0.1312 -0.1033  0.8469
19404TIP3    H179627   2.822   0.667   5.684  0.4009 -0.4323  0.3297
19404TIP3    H279628   2.680   0.718   5.698  0.4785 -0.5420  1.5626
19405TIP3   OH279629   4.214   4.011  13.189  0.5513 -0.0873  0.5505
19405TIP3    H179630   4.274   4.086  13.190  1.6366 -0.9062  3.3939
19405TIP3    H279631   4.268   3.936  13.167 -0.1834 -0.3051 -0.5464
19406TIP3   OH279632   0.996   2.618   1.506  0.1018 -0.8068 -0.9020
19406TIP3    H179633   1.068   2.563   1.538  2.1861  2.1027 -0.4249
19406TIP3    H279634   0.972   2.673   1.581 -0.9447 -0.0229 -1.7879
19407TIP3   OH279635   0.283   2.490  16.193 -0.2107 -0.1080  0.1125
19407TIP3    H179636   0.196   2.530  16.198  0.2463  1.0075 -0.7210
19407TIP3    H279637   0.294   2.468  16.101 -0.3413 -1.9333  0.5249
19408TIP3   OH279638   3.505   6.689   3.077  0.1813  0.2850 -0.3197
19408TIP3    H179639   3.481   6.602   3.107  0.7871  0.5733  1.0726
19408TIP3    H279640   3.588   6.707   3.121 -0.9724  2.3815  1.1016
19409TIP3   OH279641   6.551   5.333   0.993 -0.5064  0.4239  0.1082
19409TIP3    H179642   6.495   5.264   1.031  0.1135 -0.0054  0.2501
19409TIP3    H279643   6.600   5.368   1.068 -0.0976  0.3414 -0.1221
19410TIP3   OH279644   5.020   3.786  14.833  0.5899  0.3025 -0.0325
19410TIP3    H179645   4.981   3.868  14.803 -0.6563 -0.0288  0.6437
19410TIP3    H279646   4.948   3.740  14.876  1.3786 -0.9843 -0.0826
19411TIP3   OH279647   4.232   3.767   0.057 -0.4825 -0.2509  0.0369
19411TIP3    H179648   4.141   3.764   0.027  0.0490 -3.2271 -1.4563
19411TIP3    H279649   4.257   3.676   0.067  1.5066  0.5515  3.2042
19412TIP3   OH279650   4.712   4.039  15.877  0.0117 -0.3251 -0.0570
19412TIP3    H179651   4.779   4.012  15.815  0.2382  1.9479 -0.8499
19412TIP3    H279652   4.750   4.020  15.963 -0.1123 -3.0375 -0.5554
19413TIP3   OH279653   0.054   3.931   4.523  0.4201  0.5771 -0.6695
19413TIP3    H179654   0.104   3.853   4.497  1.5813  0.2910  2.1132
19413TIP3    H279655   0.121   3.993   4.551 -0.6595  0.0071  3.6589
19414TIP3   OH279656   0.413   1.857   0.992 -0.1285  0.1514 -0.3242
19414TIP3    H179657   0.396   1.913   0.916  1.8278  1.0432 -0.1298
19414TIP3    H279658   0.333   1.865   1.045 -0.4412  1.6474 -0.9822
19415TIP3   OH279659   5.379   0.428  12.214 -0.5157 -0.0299 -0.0390
19415TIP3    H179660   5.319   0.437  12.287 -0.1572  0.3523  0.2095
19415TIP3    H279661   5.434   0.353  12.237  1.1430  1.5336  1.1877
19416TIP3   OH279662   5.457   0.476   2.074  0.4832 -0.0372 -0.0756
19416TIP3    H179663   5.442   0.561   2.033  0.1703 -0.4859 -0.9071
19416TIP3    H279664   5.405   0.478   2.154  0.8566  0.7304  0.1558
19417TIP3   OH279665   2.743   6.557  14.126 -0.0321 -0.0143 -0.1125
19417TIP3    H179666   2.772   6.585  14.212 -1.2144  2.6114 -0.5089
19417TIP3    H279667   2.654   6.523  14.140  0.2582 -0.8058 -0.1230
19418TIP3   OH279668   5.961   4.876   0.131 -0.5334  0.0382  0.8415
19418TIP3    H179669   6.017   4.902   0.058 -0.5268 -0.2089  0.7573
19418TIP3    H279670   6.012   4.810   0.178 -2.1714 -2.9195 -1.3254
19419TIP3   OH279671   0.046   6.015  11.436  0.4510 -0.1272  0.0368
19419TIP3    H179672   0.048   6.107  11.459 -2.9604  0.4583 -1.7107
19419TIP3    H279673  -0.034   5.981  11.476 -0.2301 -1.4391 -2.2985
19420TIP3   OH279674   4.094   1.062   1.119  0.0149  0.6406 -0.1816
19420TIP3    H179675   4.116   1.027   1.033 -0.8015 -0.5010  0.0648
19420TIP3    H279676   4.086   0.984   1.175 -2.0486  1.1905  0.3187
19421TIP3   OH279677   6.045   3.062  14.386 -0.0926  0.6344 -0.7988
19421TIP3    H179678   6.111   2.993  14.391 -0.3620  0.4762  1.0795
19421TIP3    H279679   6.095   3.143  14.383  0.2069  0.4530 -0.7621
19422TIP3   OH279680   4.483   1.647   1.350 -0.0335  0.0609 -0.1615
19422TIP3    H179681   4.572   1.682   1.344 -0.6355  1.5507 -0.5490
19422TIP3    H279682   4.495   1.554   1.368  1.6268 -0.0830 -1.9497
19423TIP3   OH279683   5.651   5.393   1.208  0.3937 -0.1106 -0.0211
19423TIP3    H179684   5.589   5.339   1.159 -0.7111  1.1627 -0.0299
19423TIP3    H279685   5.600   5.429   1.280  1.7341 -1.0473  1.4388
19424TIP3   OH279686   5.232   1.675   6.263 -0.0428 -0.4592 -0.6351
19424TIP3    H179687   5.221   1.580   6.260  0.1105 -0.4546 -1.2998
19424TIP3    H279688   5.232   1.696   6.357 -1.1133 -0.9941 -0.5150
19425TIP3   OH279689   2.638   4.455   5.073  0.3307  0.2963  0.1160
19425TIP3    H179690   2.681   4.506   5.142  0.2931 -0.1028  0.4367
19425TIP3    H279691   2.698   4.460   4.999 -0.4203  2.1732 -0.4034
19426TIP3   OH279692   1.987   4.031  13.368  0.4917  0.4495  0.5676
19426TIP3    H179693   1.895   4.013  13.348  0.8901 -1.8226  0.5622
19426TIP3    H279694   1.988   4.049  13.462  0.0045  0.7566  0.5167
19427TIP3   OH279695   5.283   5.979  16.087  0.2632 -0.5102  0.2560
19427TIP3    H179696   5.289   5.884  16.073 -0.7914 -0.4192 -0.8516
19427TIP3    H279697   5.345   6.016  16.025  0.5491 -0.4548  0.5719
19428TIP3   OH279698   0.055   5.546  15.396 -0.2246  0.0821 -0.0587
19428TIP3    H179699   0.029   5.574  15.484 -2.0306  0.9575 -0.8400
19428TIP3    H279700   0.118   5.612  15.367 -0.6362  0.5213  0.0546
19429TIP3   OH279701   6.135   0.946  16.807 -1.0227  0.0063 -0.4934
19429TIP3    H179702   6.124   0.888  16.882  0.2356  0.2384 -0.1053
19429TIP3    H279703   6.057   1.001  16.807 -0.8715  0.2504  0.8919
19430TIP3   OH279704   1.480   3.430  13.894  0.8349  0.3881 -0.2972
19430TIP3    H179705   1.488   3.346  13.940  0.1147  0.8084  0.6236
19430TIP3    H279706   1.432   3.485  13.955 -1.0261  0.6661 -1.9650
19431TIP3   OH279707   3.364   0.357   2.834  0.4320  0.2579  0.2087
19431TIP3    H179708   3.291   0.322   2.783  2.1569 -0.4135 -1.8875
19431TIP3    H279709   3.395   0.282   2.886  0.1827  0.3107  0.4331
19432TIP3   OH279710   0.177   3.039   5.320 -0.3214  0.8436 -0.3772
19432TIP3    H179711   0.221   2.956   5.334 -1.5971  0.2157  0.0526
19432TIP3    H279712   0.160   3.043   5.226 -0.2774  0.6085 -0.3939
19433TIP3   OH279713   1.605   4.570  15.239 -0.2217 -0.3855  0.0970
19433TIP3    H179714   1.570   4.481  15.245  0.4782 -0.5699  1.6894
19433TIP3    H279715   1.527   4.625  15.229 -1.0958 -0.7808  3.7762
19434TIP3   OH279716   4.948   1.010  11.695 -0.2524 -0.9215  0.1443
19434TIP3    H179717   5.026   1.044  11.739 -1.5697  2.0814  0.2923
19434TIP3    H279718   4.959   1.035  11.603 -1.2254 -0.0806  0.2443
19435TIP3   OH279719   4.406   3.440   5.165  0.0186  0.2280 -0.0710
19435TIP3    H179720   4.389   3.350   5.136 -2.9674  0.7468 -0.0790
19435TIP3    H279721   4.319   3.477   5.179  1.2471  2.6146  1.5213
19436TIP3   OH279722   0.559   5.556   2.002 -0.0570 -0.1568  0.0380
19436TIP3    H179723   0.467   5.579   2.015  0.2908  1.2531  0.1119
19436TIP3    H279724   0.582   5.503   2.078 -0.2230  1.3168  1.1351
19437TIP3   OH279725   4.408   0.066  10.961 -0.1088 -0.0830  0.0718
19437TIP3    H179726   4.399   0.161  10.961 -0.8479 -0.1373 -1.5314
19437TIP3    H279727   4.404   0.042  10.868 -3.1130 -1.9661  0.6435
19438TIP3   OH279728   6.232   0.327  15.543  0.4944  0.2361  0.4866
19438TIP3    H179729   6.214   0.347  15.635 -0.0228 -0.1273  0.4658
19438TIP3    H279730   6.167   0.377  15.494 -1.0565 -1.7301  0.4486
19439TIP3   OH279731   1.004   0.705  12.775  0.5820 -0.3089 -0.2990
19439TIP3    H179732   1.024   0.766  12.847 -0.6626  2.3152 -2.1018
19439TIP3    H279733   1.084   0.654  12.764  0.8926 -0.5603  2.7531
19440TIP3   OH279734   5.607   1.698   1.206  0.0989 -0.0359  0.1407
19440TIP3    H179735   5.669   1.767   1.184  1.1576 -1.1719 -0.4854
19440TIP3    H279736   5.649   1.617   1.176 -1.3127 -0.9084  0.4667
19441TIP3   OH279737   3.730   5.860   4.677  0.4040  0.1945  0.2343
19441TIP3    H179738   3.728   5.854   4.582  0.1751 -1.1493  0.3213
19441TIP3    H279739   3.737   5.954   4.695 -0.4797  0.5190 -1.0877
19442TIP3   OH279740   3.058   4.309  15.671 -0.4868 -0.3792  0.3213
19442TIP3    H179741   2.975   4.262  15.681 -0.4099 -0.7024 -0.5148
19442TIP3    H279742   3.048   4.358  15.589 -0.1082  0.1159  0.5687
19443TIP3   OH279743   1.817   6.520  16.047  0.0447  0.1067  0.1415
19443TIP3    H179744   1.792   6.543  16.137 -2.1665 -0.7761 -0.2170
19443TIP3    H279745   1.735   6.521  15.998  0.7497 -2.4376 -1.2075
19444TIP3   OH279746   1.604   1.743  12.891  0.4559  0.2853 -0.5460
19444TIP3    H179747   1.532   1.695  12.932  1.3079 -0.1013  0.5130
19444TIP3    H279748   1.562   1.792  12.820 -0.7520 -0.4190 -0.3413
19445TIP3   OH279749   0.764   0.174   3.141 -0.1918 -0.8628  0.2543
19445TIP3    H179750   0.776   0.263   3.175 -0.0891 -0.5910 -0.4845
19445TIP3    H279751   0.701   0.134   3.201 -2.3104  0.5746 -0.9234
19446TIP3   OH279752   2.945   4.167  14.639 -0.5126 -0.6449 -0.5003
19446TIP3    H179753   2.877   4.230  14.661  1.4831  1.7319 -0.8870
19446TIP3    H279754   2.953   4.173  14.543  1.1693  0.1025 -0.3207
19447TIP3   OH279755   0.804   5.931  11.807  0.9397 -0.5338 -0.1649
19447TIP3    H179756   0.798   5.993  11.880  1.1813  1.3564 -1.7291
19447TIP3    H279757   0.725   5.877  11.816 -0.2658  1.2091  0.1424
19448TIP3   OH279758   4.048   0.517  14.671 -0.0086  0.1376  0.1763
19448TIP3    H179759   4.141   0.507  14.647  0.1553  1.1145  0.3814
19448TIP3    H279760   4.001   0.510  14.588  0.3359  0.7016 -0.0681
19449TIP3   OH279761   3.758   2.340  15.835 -0.5666  0.2993 -0.2386
19449TIP3    H179762   3.667   2.349  15.861 -0.6896  0.3978 -0.7082
19449TIP3    H279763   3.786   2.428  15.811 -0.2455  0.3299  0.2439
19450TIP3   OH279764   4.926   6.360  16.457 -0.1574  1.0055  0.3100
19450TIP3    H179765   4.981   6.310  16.397 -0.8358  0.2695  0.2989
19450TIP3    H279766   4.974   6.442  16.470  1.0323  0.3094  0.4468
19451TIP3   OH279767   5.697   3.182  16.180 -0.1299 -0.0986 -0.1560
19451TIP3    H179768   5.728   3.107  16.129 -0.5284  0.9235 -1.9528
19451TIP3    H279769   5.771   3.243  16.180 -0.6900  0.6045 -0.9622
19452TIP3   OH279770   0.788   0.080   0.067 -0.3418  0.4725 -0.0639
19452TIP3    H179771   0.802  -0.014   0.068  1.9079  0.7764  1.7005
19452TIP3    H279772   0.804   0.106  -0.024 -2.0783 -0.9502 -0.8016
19453TIP3   OH279773   3.675   5.073   0.906 -0.3719 -0.5214  0.4524
19453TIP3    H179774   3.748   5.054   0.965  0.4644 -0.2411 -0.4831
19453TIP3    H279775   3.629   4.989   0.897 -0.7139 -0.4916  1.7655
19454TIP3   OH279776   1.835   2.812   5.103  0.0636 -0.2818 -0.3937
19454TIP3    H179777   1.815   2.881   5.166  1.3481 -0.0929 -0.1767
19454TIP3    H279778   1.818   2.731   5.151 -0.4529 -0.1229 -0.3082
19455TIP3   OH279779   4.179   2.522   0.750  0.4117  0.2585  0.4780
19455TIP3    H179780   4.260   2.572   0.747 -0.2846  1.4335  1.0540
19455TIP3    H279781   4.110   2.588   0.758 -0.5972 -0.7336  0.0937
19456TIP3   OH279782   5.712   5.283   5.430  0.0475 -0.1068 -0.3717
19456TIP3    H179783   5.710   5.197   5.388  1.0233 -0.6276  0.6260
19456TIP3    H279784   5.632   5.288   5.481  0.1171 -0.5265 -0.2266
19457TIP3   OH279785   0.103   0.108  12.186 -0.1247  0.4669 -0.6410
19457TIP3    H179786   0.092   0.196  12.223  0.1276  0.8017 -1.3584
19457TIP3    H279787   0.047   0.108  12.108 -1.4493 -0.5714  0.2894
19458TIP3   OH279788   4.935   5.553  17.239  0.1604  0.0848  0.5140
19458TIP3    H179789   4.942   5.469  17.284  1.1517 -1.0101 -1.6125
19458TIP3    H279790   4.842   5.561  17.217 -0.0479 -0.1242  1.2927
19459TIP3   OH279791   1.935   3.070  14.378 -0.3824 -0.0289  0.3146
19459TIP3    H179792   1.894   3.079  14.292 -0.1527  3.6018  0.5171
19459TIP3    H279793   1.985   2.988  14.373 -0.5416  0.0329 -2.9263
19460TIP3   OH279794   2.307   4.601  14.369  0.1962  0.6687  0.0165
19460TIP3    H179795   2.376   4.580  14.305 -0.6776  0.2338 -0.8058
19460TIP3    H279796   2.333   4.555  14.448  0.0460 -0.7922 -0.7673
19461TIP3   OH279797   2.505   3.092  15.538 -0.2708 -0.1280 -0.1527
19461TIP3    H179798   2.596   3.104  15.512  0.2524  0.7543  1.9761
19461TIP3    H279799   2.457   3.158  15.488  0.4521  0.2894 -0.2997
19462TIP3   OH279800   2.681   2.090  13.437  0.5459  0.2029 -0.3652
19462TIP3    H179801   2.744   2.018  13.446  1.4273  0.9157 -0.7887
19462TIP3    H279802   2.632   2.089  13.519  0.3076 -1.1077 -0.5089
19463TIP3   OH279803   6.367   2.188   3.728 -0.3071  0.3909 -0.0455
19463TIP3    H179804   6.410   2.264   3.690 -1.0018  0.1029 -1.4153
19463TIP3    H279805   6.384   2.196   3.822  3.2201  0.0058 -0.5738
19464TIP3   OH279806   0.621   6.247   2.556 -0.7930 -0.0865  0.0326
19464TIP3    H179807   0.638   6.177   2.619 -1.2044  1.5703  2.0430
19464TIP3    H279808   0.563   6.207   2.491  0.8210 -2.2423 -0.1506
19465TIP3   OH279809   4.391   2.473  14.356 -0.0708 -0.2382 -0.4944
19465TIP3    H179810   4.303   2.443  14.378  1.3487 -3.5157  1.1094
19465TIP3    H279811   4.409   2.434  14.270  0.1816 -0.3624 -0.3839
19466TIP3   OH279812   1.126   1.265   2.065 -0.1560 -0.2133  0.2745
19466TIP3    H179813   1.160   1.185   2.025  1.5064  0.1923  0.8603
19466TIP3    H279814   1.173   1.272   2.148 -0.9782  0.8724  0.6575
19467TIP3   OH279815   0.845   3.225   5.180 -0.1248  0.2133 -0.2294
19467TIP3    H179816   0.938   3.230   5.156 -0.0529 -0.2384 -0.0446
19467TIP3    H279817   0.827   3.308   5.224  0.0646  0.5147 -0.7200
19468TIP3   OH279818   2.787   4.781   5.435  0.3737  0.2583  0.2163
19468TIP3    H179819   2.817   4.754   5.348  0.2367  0.1543  0.2006
19468TIP3    H279820   2.705   4.732   5.448  0.5234  0.0822  0.5069
19469TIP3   OH279821   0.200   5.532  16.770 -0.0677  0.1441 -0.4152
19469TIP3    H179822   0.200   5.464  16.837 -1.3376 -0.5285 -1.0904
19469TIP3    H279823   0.134   5.595  16.800  1.6192  1.4946  0.5916
19470TIP3   OH279824   1.394   6.634   3.745 -0.2157 -0.0556 -0.3300
19470TIP3    H179825   1.379   6.710   3.690 -0.8393 -0.1821 -0.3419
19470TIP3    H279826   1.487   6.615   3.735  0.3802  1.9105  1.2443
19471TIP3   OH279827   4.436   6.736   2.636 -0.1213 -0.5582 -1.2686
19471TIP3    H179828   4.405   6.759   2.723  1.1734 -0.6609 -0.7708
19471TIP3    H279829   4.359   6.698   2.593 -1.2805  1.2528 -0.8439
19472TIP3   OH279830   3.057   6.074   2.910 -0.0290  0.0726 -0.0330
19472TIP3    H179831   3.144   6.049   2.941  0.3160  0.9731 -0.2753
19472TIP3    H279832   3.024   6.135   2.976 -0.7729 -0.8241  0.4321
19473TIP3   OH279833   3.822   4.472   2.461 -0.4708  0.2966 -0.1140
19473TIP3    H179834   3.885   4.504   2.396  0.1568  0.1950  0.4480
19473TIP3    H279835   3.824   4.537   2.531 -2.3934  1.2987 -0.9495
19474TIP3   OH279836   6.088   2.678   2.319  0.4876 -0.3290 -0.4604
19474TIP3    H179837   6.141   2.621   2.264 -0.0502 -0.4118 -0.8961
19474TIP3    H279838   6.001   2.676   2.279 -0.4257 -1.9506  1.5394
19475TIP3   OH279839   3.270   3.288   3.159 -0.3740  0.7020  0.2138
19475TIP3    H179840   3.176   3.300   3.140 -0.4412  0.6140  0.4927
19475TIP3    H279841   3.290   3.201   3.125 -0.4427  0.6339  0.3491
19476TIP3   OH279842   1.183   3.252   4.077 -0.5073 -0.2129  0.0090
19476TIP3    H179843   1.196   3.157   4.075  0.1599 -0.1503  1.1515
19476TIP3    H279844   1.246   3.284   4.141 -0.0883  1.1151 -1.0431
19477TIP3   OH279845   5.536   4.072   3.769 -0.0125  0.4163  0.5279
19477TIP3    H179846   5.547   4.028   3.853  0.1365 -1.1384 -0.2920
19477TIP3    H279847   5.443   4.066   3.750 -0.2152  1.7025  1.0739
19478TIP3   OH279848   5.320   2.213  11.189  0.0550 -0.3391  0.4351
19478TIP3    H179849   5.406   2.185  11.156  0.7739 -0.1846  2.1354
19478TIP3    H279850   5.300   2.292  11.139  0.2408 -1.1527 -0.9694
19479TIP3   OH279851   1.028   6.017  13.693  0.2758  0.4507  0.3594
19479TIP3    H179852   1.027   5.969  13.610 -2.2912  0.2347  0.4704
19479TIP3    H279853   1.033   6.109  13.668  2.8777  0.2775  0.0869
19480TIP3   OH279854   2.165   4.222  12.063 -0.1038 -0.0457  0.4101
19480TIP3    H179855   2.244   4.229  12.010  0.4963 -1.0672  1.1658
19480TIP3    H279856   2.100   4.182  12.005 -0.4562  1.8938 -0.6001
19481TIP3   OH279857   4.794   2.378  14.090  0.1622 -0.3443 -0.2113
19481TIP3    H179858   4.852   2.305  14.071  1.0957  0.4809 -0.5992
19481TIP3    H279859   4.745   2.392  14.008  0.5089 -0.0737 -0.3748
19482TIP3   OH279860   5.863   2.709  13.055 -0.0970  0.4190 -0.0095
19482TIP3    H179861   5.771   2.732  13.045 -0.9280 -2.1859  1.3001
19482TIP3    H279862   5.869   2.668  13.141  2.0925 -0.4002 -0.5082
19483TIP3   OH279863   1.588   5.501   1.835 -0.0167  0.3241 -0.0357
19483TIP3    H179864   1.555   5.475   1.921  0.5747  0.5991  0.2762
19483TIP3    H279865   1.588   5.597   1.836  0.2146  0.3291 -0.2551
19484TIP3   OH279866   4.605   5.319   5.044 -0.2226 -0.4260  0.0878
19484TIP3    H179867   4.619   5.256   5.115  0.6138 -0.1959  0.1363
19484TIP3    H279868   4.520   5.358   5.063 -0.0088 -0.3717  0.9608
19485TIP3   OH279869   1.236   6.567  13.854  0.0590 -0.5311 -0.2544
19485TIP3    H179870   1.152   6.538  13.891 -1.6232  2.5927 -1.4621
19485TIP3    H279871   1.282   6.607  13.928 -0.5570 -0.0579 -0.1229
19486TIP3   OH279872   3.527   4.725  13.100  0.1245  0.8109 -0.2118
19486TIP3    H179873   3.506   4.635  13.074  2.2584  0.2988 -0.3011
19486TIP3    H279874   3.610   4.717  13.147 -0.8143  2.4586  1.7887
19487TIP3   OH279875   0.884   2.090   2.305  0.2760  0.2670  0.1431
19487TIP3    H179876   0.853   2.139   2.229  0.6362  0.8989  0.3975
19487TIP3    H279877   0.918   2.157   2.364 -0.6957 -0.1426  1.1951
19488TIP3   OH279878   3.875   1.029  13.672 -0.2538  0.0585 -1.0892
19488TIP3    H179879   3.879   0.964  13.602  1.2595  0.2141 -1.1501
19488TIP3    H279880   3.838   1.107  13.631  0.1652 -0.0093 -1.5968
19489TIP3   OH279881   0.671   1.721   2.459  0.3753  0.1619 -0.0209
19489TIP3    H179882   0.717   1.739   2.542  0.7040 -0.6081 -0.0315
19489TIP3    H279883   0.695   1.631   2.438 -0.3267  0.1044 -0.5658
19490TIP3   OH279884   0.718   3.761   4.433  0.2967  0.3056  0.1811
19490TIP3    H179885   0.739   3.678   4.476 -2.0511 -1.0406 -1.1903
19490TIP3    H279886   0.776   3.764   4.357  0.8524  0.2329  0.6024
19491TIP3   OH279887   4.776   1.241   1.385 -0.0432  0.6115  0.0980
19491TIP3    H179888   4.823   1.291   1.451  0.0464 -1.4883  1.6677
19491TIP3    H279889   4.815   1.154   1.388 -0.6672  0.2180 -2.0810
19492TIP3   OH279890   1.660   0.780  16.652 -0.6226 -0.0127 -0.2216
19492TIP3    H179891   1.745   0.824  16.654 -0.2871 -0.5926 -1.5702
19492TIP3    H279892   1.653   0.739  16.739 -0.2567  1.3870  0.4782
19493TIP3   OH279893   2.468   4.639   5.987 -0.5552  0.2024 -0.6213
19493TIP3    H179894   2.486   4.591   6.068  0.6173  2.5253  0.5337
19493TIP3    H279895   2.378   4.670   5.996 -0.6044  0.0135 -0.4583
19494TIP3   OH279896   5.432   5.238   2.243  0.0796  0.1795 -0.3518
19494TIP3    H179897   5.423   5.168   2.179  1.2095 -0.3309  0.0357
19494TIP3    H279898   5.507   5.289   2.212 -0.5386  1.0202 -0.4525
19495TIP3   OH279899   1.006   6.622  13.695 -0.7085  0.4277  0.3912
19495TIP3    H179900   1.028   6.713  13.718 -1.8685  1.4819 -2.4574
19495TIP3    H279901   1.061   6.602  13.619 -2.3531 -0.3290 -0.6234
19496TIP3   OH279902   1.896   1.374   0.136 -0.1772  0.6703  0.1077
19496TIP3    H179903   1.913   1.397   0.044 -1.4096  0.4802 -0.1835
19496TIP3    H279904   1.982   1.369   0.176  0.2708  2.7307 -0.5632
19497TIP3   OH279905   4.893   4.280   0.838  0.1407 -0.2110  0.1125
19497TIP3    H179906   4.929   4.274   0.750  0.7390 -0.3331  0.3630
19497TIP3    H279907   4.801   4.304   0.825  0.0072 -1.0745 -0.5813
19498TIP3   OH279908   4.708   4.772   3.052  0.2233 -0.2931 -0.1755
19498TIP3    H179909   4.658   4.791   2.973  1.0670  1.0128 -0.4024
19498TIP3    H279910   4.759   4.851   3.069  0.8976 -0.9620  1.0458
19499TIP3   OH279911   5.791   4.009  10.822 -0.3261 -0.2106  0.3545
19499TIP3    H179912   5.713   3.991  10.768 -1.2345  0.3951  1.4393
19499TIP3    H279913   5.777   3.957  10.901  0.8948 -0.9191  0.1083
19500TIP3   OH279914   6.074   6.611   2.325 -0.2188 -0.3706  0.2166
19500TIP3    H179915   6.136   6.635   2.257 -0.2412  1.0519  0.6798
19500TIP3    H279916   6.122   6.552   2.382  0.9194  1.1764  0.8992
19501TIP3   OH279917   1.634   1.283  17.015  0.5134  0.3285  0.9422
19501TIP3    H179918   1.602   1.193  17.020  1.8077 -0.1308  1.0445
19501TIP3    H279919   1.725   1.279  17.044  0.6030  1.6652  0.9156
19502TIP3   OH279920   4.002   2.718  17.239 -0.3431  0.1346 -0.4814
19502TIP3    H179921   3.909   2.705  17.257 -0.5049  0.8218 -0.7769
19502TIP3    H279922   4.048   2.675  17.311 -0.8673 -1.1039 -0.8856
19503TIP3   OH279923   4.408   1.675   6.570  0.2361  0.3012  0.2582
19503TIP3    H179924   4.437   1.652   6.658  0.1581 -1.2288 -0.0960
19503TIP3    H279925   4.486   1.707   6.525  0.4398  0.3607  0.6622
19504TIP3   OH279926   5.999   3.146  12.800 -0.4572 -0.2816  0.0445
19504TIP3    H179927   5.943   3.069  12.795  0.4280 -0.8891 -0.6716
19504TIP3    H279928   6.058   3.128  12.873 -2.2508  1.0762  1.8460
19505TIP3   OH279929   2.366   3.996  16.689  0.0419  0.5524  0.2359
19505TIP3    H179930   2.309   3.966  16.759 -0.1362  0.8953  0.2415
19505TIP3    H279931   2.379   4.089  16.708  0.1569  0.5986 -0.0712
19506TIP3   OH279932   3.021   6.303  11.216  0.4349  0.2500 -0.1379
19506TIP3    H179933   3.083   6.312  11.288  1.8481 -0.8940 -1.1864
19506TIP3    H279934   3.013   6.392  11.180  0.0779  0.7319  1.1199
19507TIP3   OH279935   5.195   1.792   0.630  0.1546 -0.4790 -0.2822
19507TIP3    H179936   5.273   1.758   0.586  1.4219 -0.0245  1.5502
19507TIP3    H279937   5.186   1.881   0.598  1.0208 -0.1806  0.2820
19508TIP3   OH279938   3.703   2.659  12.917 -0.0776 -0.3620 -0.2085
19508TIP3    H179939   3.686   2.629  13.007  1.2698  1.2598  0.6084
19508TIP3    H279940   3.693   2.754  12.921  0.5088 -0.2233 -1.6781
19509TIP3   OH279941   5.415   0.014   2.162 -0.0638  0.0487  0.5721
19509TIP3    H179942   5.500   0.029   2.203 -1.4228  0.5975  3.3111
19509TIP3    H279943   5.360   0.085   2.195 -1.7615 -0.6839 -0.6295
19510TIP3   OH279944   6.606   5.171   4.368 -0.1253  0.1530  0.2870
19510TIP3    H179945   6.641   5.179   4.280  0.2748 -0.8891  0.3427
19510TIP3    H279946   6.673   5.210   4.424 -0.5529  1.1628  0.0989
19511TIP3   OH279947   1.752   2.001  10.983  0.0028 -0.3048 -0.5568
19511TIP3    H179948   1.843   1.979  10.962  0.4046  0.7514  0.0137
19511TIP3    H279949   1.742   1.974  11.074 -0.1195 -0.0322 -0.4883
19512TIP3   OH279950   6.190   6.726  13.330  0.0409  0.0374  0.1250
19512TIP3    H179951   6.099   6.699  13.343  0.3490 -2.1054 -1.9115
19512TIP3    H279952   6.196   6.749  13.237  1.9799 -1.4852 -0.1550
19513TIP3   OH279953   3.249   4.731  14.614  0.0815 -0.0428 -0.6111
19513TIP3    H179954   3.185   4.661  14.602  0.2521  0.0579 -2.2735
19513TIP3    H279955   3.208   4.791  14.677 -0.0037 -1.6817  0.9246
19514TIP3   OH279956   1.502   5.963  16.428 -0.3350 -0.0055 -0.2217
19514TIP3    H179957   1.596   5.969  16.446 -0.3384 -0.5690 -0.0140
19514TIP3    H279958   1.493   5.992  16.337  0.0578 -0.1109 -0.2936
19515TIP3   OH279959   0.193   5.056  12.653 -0.1395 -0.1826  0.4526
19515TIP3    H179960   0.169   4.966  12.675  0.5967 -0.6170 -0.4706
19515TIP3    H279961   0.174   5.064  12.560  1.0384  0.1897  0.2318
19516TIP3   OH279962   1.704   5.386   6.040 -0.3570 -0.1457  0.3415
19516TIP3    H179963   1.634   5.440   6.078 -0.3838  1.1958 -1.5113
19516TIP3    H279964   1.779   5.399   6.098 -0.9740  0.2344  1.0632
19517TIP3   OH279965   2.234   3.623   1.103  0.3995 -1.1997  0.0385
19517TIP3    H179966   2.329   3.614   1.096  0.6314 -0.0316  1.3639
19517TIP3    H279967   2.221   3.683   1.177 -1.3246  0.3072 -1.4495
19518TIP3   OH279968   6.461   4.198   3.332 -0.2547 -0.0327  0.5930
19518TIP3    H179969   6.510   4.127   3.290  1.0107  1.7091 -0.9675
19518TIP3    H279970   6.369   4.179   3.311 -0.1000 -2.1529  1.7139
19519TIP3   OH279971   0.402   3.876  15.597  0.4374  0.2462 -0.7618
19519TIP3    H179972   0.477   3.931  15.621  0.3239  0.3129 -0.5567
19519TIP3    H279973   0.398   3.809  15.666  0.3117  0.2403 -0.7742
19520TIP3   OH279974   4.844   3.978  10.872 -0.2863  0.2251 -0.8976
19520TIP3    H179975   4.905   4.040  10.832 -0.0121  0.4376 -0.1585
19520TIP3    H279976   4.758   4.005  10.840 -0.2030  1.1962 -0.3057
19521TIP3   OH279977   6.550   6.505  12.148  0.2962 -0.5027 -0.3155
19521TIP3    H179978   6.472   6.518  12.094  0.6138  3.2024  0.0087
19521TIP3    H279979   6.611   6.574  12.120  1.9278 -0.8734  2.1709
19522TIP3   OH279980   2.596   2.840  13.326 -0.1973 -0.4623 -0.6821
19522TIP3    H179981   2.527   2.893  13.285 -0.7389 -0.7559 -0.1508
19522TIP3    H279982   2.590   2.755  13.281 -1.3058 -1.0384  0.5299
19523TIP3   OH279983   3.259   1.718   1.132 -0.4242 -0.0587  0.1613
19523TIP3    H179984   3.326   1.787   1.128 -1.2847  1.1823  4.1636
19523TIP3    H279985   3.233   1.716   1.225 -2.9236 -3.4107 -0.5237
19524TIP3   OH279986   6.691   6.603   1.414 -0.1307 -0.4173 -0.8271
19524TIP3    H179987   6.691   6.690   1.374 -0.1464 -0.0080  0.0542
19524TIP3    H279988   6.741   6.614   1.495  0.8291 -1.4902 -1.2769
19525TIP3   OH279989   1.357   1.384   4.775 -0.0763 -0.4082 -0.4668
19525TIP3    H179990   1.335   1.326   4.701 -1.4156 -2.2233  1.2871
19525TIP3    H279991   1.290   1.364   4.841  2.0135  0.0433  1.8377
19526TIP3   OH279992   2.534   5.082  14.250 -0.2761 -0.2097 -0.0094
19526TIP3    H179993   2.591   5.013  14.283  0.3395  0.1034 -0.3993
19526TIP3    H279994   2.477   5.105  14.324  1.0202  0.4289  0.8035
19527TIP3   OH279995   3.978   6.255  14.939 -0.4811  0.3782  0.2715
19527TIP3    H179996   4.051   6.223  14.992 -0.0972  0.2665 -0.3204
19527TIP3    H279997   3.925   6.308  15.000 -0.8413 -0.9474  1.1266
19528TIP3   OH279998   1.442   3.079  10.651 -0.2272 -0.6172 -0.7817
19528TIP3    H179999   1.380   3.007  10.646 -0.9297 -0.0362 -0.4629
19528TIP3    H280000   1.484   3.068  10.736  0.9678 -1.7012 -1.4933
19529TIP3   OH280001   0.654   5.968   6.813 -0.0441  0.4219  0.4071
19529TIP3    H180002   0.735   6.002   6.852  0.2286 -0.5411  0.6948
19529TIP3    H280003   0.622   6.040   6.758  1.1475  0.7166  0.0832
19530TIP3   OH280004   2.969   1.823  16.080 -0.0598  0.5315  0.3190
19530TIP3    H180005   2.984   1.859  16.167 -0.6010  1.5556  0.0020
19530TIP3    H280006   2.881   1.785  16.084  0.0913  0.1811  0.3447
19531TIP3   OH280007   0.031   2.179  17.089 -0.0907  0.5912  0.1794
19531TIP3    H180008   0.041   2.192  17.184  1.6924  1.1427 -0.0616
19531TIP3    H280009   0.080   2.252  17.050 -2.1233  1.2621 -1.1799
19532TIP3   OH280010   1.357   4.983   3.727 -0.2382 -0.3462  0.1747
19532TIP3    H180011   1.329   4.967   3.636 -1.9355 -1.0525  0.7851
19532TIP3    H280012   1.417   4.911   3.746 -1.2265 -1.2009  0.1488
19533TIP3   OH280013   3.479   1.177  14.532  0.1925  0.4006 -0.0753
19533TIP3    H180014   3.568   1.161  14.564  0.6749  3.3713  0.1813
19533TIP3    H280015   3.482   1.265  14.495 -2.3699  0.0936 -1.1157
19534TIP3   OH280016   0.326   1.968   2.574  0.1516 -0.4884 -0.0890
19534TIP3    H180017   0.277   2.035   2.622 -0.4883 -1.9736  1.4240
19534TIP3    H280018   0.259   1.912   2.536  0.6761 -0.3858 -1.1728
19535TIP3   OH280019   3.086   2.331   4.022  0.3431  0.4884  0.4330
19535TIP3    H180020   3.053   2.395   3.959  0.1572  0.2058  0.2433
19535TIP3    H280021   3.068   2.246   3.982 -1.6684  0.2256  1.7832
19536TIP3   OH280022   2.389   1.306  12.652 -0.1329 -0.2932 -0.1775
19536TIP3    H180023   2.404   1.353  12.734  0.3596 -0.4578 -0.1728
19536TIP3    H280024   2.458   1.240  12.649 -1.2567 -1.5197  0.1926
19537TIP3   OH280025   5.146   3.091  11.316 -0.7128  0.3135  0.3990
19537TIP3    H180026   5.137   3.103  11.221 -0.7661  1.7091  0.5659
19537TIP3    H280027   5.173   3.177  11.348  1.1709 -0.6273  1.4208
19538TIP3   OH280028   2.478   0.816  13.779  0.7250 -0.4176 -0.0454
19538TIP3    H180029   2.545   0.854  13.722  1.5479 -0.6437  0.7506
19538TIP3    H280030   2.528   0.773  13.848 -0.2633  0.0720  0.9873
19539TIP3   OH280031   1.605   1.717   0.994 -0.0629  0.3106 -0.0316
19539TIP3    H180032   1.602   1.781   0.922  1.7260  0.2384 -0.1867
19539TIP3    H280033   1.678   1.746   1.048  0.5024 -1.3664  0.1287
19540TIP3   OH280034   6.356   5.949  10.600 -0.3071 -0.1881  0.0453
19540TIP3    H180035   6.449   5.938  10.581 -0.1035  1.8668 -0.2911
19540TIP3    H280036   6.316   5.968  10.515 -1.6074 -4.2946 -0.3536
19541TIP3   OH280037   2.334   4.253   2.618 -0.3646  0.3809  0.0522
19541TIP3    H180038   2.409   4.263   2.560  0.1561  0.8469  0.8015
19541TIP3    H280039   2.368   4.205   2.693 -0.3330  2.3825  1.3282
19542TIP3   OH280040   0.893   2.127   5.104 -0.2958 -1.1725  0.0478
19542TIP3    H180041   0.980   2.104   5.138  0.1648  0.5746  0.0795
19542TIP3    H280042   0.853   2.177   5.175 -0.3254  0.2717 -0.9866
19543TIP3   OH280043   4.103   6.102   2.660  0.0154 -0.1406 -0.2664
19543TIP3    H180044   4.017   6.063   2.676 -0.2951  0.4227 -0.5767
19543TIP3    H280045   4.163   6.027   2.660 -0.6225 -0.6666 -1.1313
19544TIP3   OH280046   4.992   1.187   5.949 -0.1487  0.0335  0.4111
19544TIP3    H180047   5.077   1.198   5.992 -1.2229  1.8339  2.1596
19544TIP3    H280048   4.948   1.118   5.998 -1.3920  2.1180  2.3190
19545TIP3   OH280049   2.116   5.083   6.049  0.0238 -0.1635 -0.0978
19545TIP3    H180050   2.211   5.095   6.044 -0.2897  1.7391 -2.2755
19545TIP3    H280051   2.081   5.172   6.054 -1.7619 -0.7305 -1.9930
19546TIP3   OH280052   3.365   5.489   0.811  0.3749 -0.0007  0.3786
19546TIP3    H180053   3.284   5.438   0.809  0.9796 -0.9133 -2.0379
19546TIP3    H280054   3.347   5.567   0.758  1.1117 -0.2795 -0.2931
19547TIP3   OH280055   1.621   0.276  12.465 -0.4401  0.0915  0.0439
19547TIP3    H180056   1.573   0.322  12.397  0.2030 -1.0970 -1.2456
19547TIP3    H280057   1.710   0.268  12.431 -0.4919 -1.9041  0.3041
19548TIP3   OH280058   2.973   3.578  11.697 -0.0733  0.1382 -0.1536
19548TIP3    H180059   3.067   3.590  11.685  0.8912 -4.7411  1.2428
19548TIP3    H280060   2.942   3.549  11.611  0.1260 -0.3953 -0.0470
19549TIP3   OH280061   4.599   1.393   0.788 -0.3448  0.2761 -0.1840
19549TIP3    H180062   4.561   1.383   0.875  0.1276 -2.1095 -0.2185
19549TIP3    H280063   4.692   1.374   0.800 -0.3831 -0.7215 -1.2982
19550TIP3   OH280064   5.471   4.791   3.436 -0.1566 -0.1800  0.2344
19550TIP3    H180065   5.382   4.765   3.413 -0.0651  0.8859 -1.3747
19550TIP3    H280066   5.467   4.808   3.530 -1.7801  0.3293  0.0873
19551TIP3   OH280067   4.406   0.669   1.879 -0.3448  0.1695  0.4556
19551TIP3    H180068   4.320   0.704   1.857 -1.2850 -1.7877  0.8154
19551TIP3    H280069   4.423   0.602   1.813  0.6370  0.1379  0.7219
19552TIP3   OH280070   1.093   3.474  12.488  0.1855 -0.0719  0.0814
19552TIP3    H180071   1.062   3.527  12.415 -2.7827 -0.2697  1.1167
19552TIP3    H280072   1.105   3.387  12.450 -1.0297 -0.0970 -0.2746
19553TIP3   OH280073   4.152   4.583  16.314 -0.3106 -0.7873 -0.1465
19553TIP3    H180074   4.118   4.499  16.282  1.1233 -1.4665  0.0924
19553TIP3    H280075   4.101   4.601  16.392 -0.0485 -1.8683  0.2878
19554TIP3   OH280076   4.387   6.241   3.195 -0.1155 -0.1157 -0.1787
19554TIP3    H180077   4.403   6.164   3.249 -0.5199 -0.5105 -0.6123
19554TIP3    H280078   4.311   6.283   3.235 -0.1704 -0.1911 -0.2015
19555TIP3   OH280079   2.221   3.965  12.481  0.2308  0.5146 -0.3344
19555TIP3    H180080   2.148   3.920  12.524 -0.0633 -0.0898 -1.4262
19555TIP3    H280081   2.291   3.966  12.547 -0.2916 -0.1532  0.2413
19556TIP3   OH280082   0.849   3.374   2.114  0.4149  0.0807  0.8028
19556TIP3    H180083   0.937   3.353   2.143  0.6557 -0.4845 -0.3010
19556TIP3    H280084   0.797   3.296   2.131 -0.1700  0.8288  2.5712
19557TIP3   OH280085   0.534   2.414  16.777  0.0521 -0.2246 -0.5428
19557TIP3    H180086   0.473   2.466  16.829 -1.2281 -1.0620 -1.2025
19557TIP3    H280087   0.590   2.371  16.842  0.9449  1.7008  0.0244
19558TIP3   OH280088   6.711   2.469   0.083  0.1392 -0.0683 -0.0587
19558TIP3    H180089   6.700   2.375   0.091 -0.3603  0.0998  1.2431
19558TIP3    H280090   6.773   2.479   0.010  2.9701 -1.5480  2.0433
19559TIP3   OH280091   5.731   0.588   5.969 -0.6021  0.0867  0.0284
19559TIP3    H180092   5.645   0.546   5.968 -0.7764  0.4374  0.5323
19559TIP3    H280093   5.771   0.560   6.051  0.2169 -0.9782 -0.7033
19560TIP3   OH280094   1.409   2.827   6.470  0.0105  0.4588 -0.2001
19560TIP3    H180095   1.415   2.920   6.495 -1.4800  0.3909  0.4772
19560TIP3    H280096   1.488   2.788   6.506  0.3309  1.3533  0.0845
19561TIP3   OH280097   2.906   3.223   0.412  0.5519 -0.1956 -0.0737
19561TIP3    H180098   2.850   3.151   0.384  0.6851 -0.9934  1.6599
19561TIP3    H280099   2.908   3.217   0.508  3.4415 -0.0443 -0.0776
19562TIP3   OH280100   0.669   6.600   5.366 -0.0513 -0.2745  0.0076
19562TIP3    H180101   0.588   6.595   5.315  0.8668 -0.9725 -1.4287
19562TIP3    H280102   0.641   6.585   5.456 -1.7361  1.1832 -0.2504
19563TIP3   OH280103   5.939   6.268   5.244  0.4098 -0.5283  0.5383
19563TIP3    H180104   5.907   6.280   5.333  0.7448 -1.4402  0.7825
19563TIP3    H280105   5.919   6.177   5.223 -0.6209 -0.0508 -0.7062
19564TIP3   OH280106   0.126   0.918  16.849  0.8874  0.1676 -0.0478
19564TIP3    H180107   0.181   0.852  16.808  1.4162  0.7898 -0.3440
19564TIP3    H280108   0.038   0.879  16.850  0.5875  0.6601 -2.9693
19565TIP3   OH280109   0.463   1.587   5.256  0.1758 -0.0790 -0.5120
19565TIP3    H180110   0.523   1.660   5.272  1.1340 -1.0269  0.2928
19565TIP3    H280111   0.496   1.546   5.176  0.8494 -0.8513  0.1620
19566TIP3   OH280112   5.997   0.463   4.998 -0.7238 -0.1462  0.4957
19566TIP3    H180113   6.056   0.534   5.025 -0.8205 -0.3844  1.3633
19566TIP3    H280114   6.054   0.401   4.952 -0.9355  1.2635 -1.7309
19567TIP3   OH280115   2.093   1.806   2.115  0.2152  0.2730  0.1849
19567TIP3    H180116   2.127   1.754   2.188  1.2117  0.0097 -0.4553
19567TIP3    H280117   2.040   1.745   2.064  0.2948  0.2202  0.1657
19568TIP3   OH280118   6.291   2.545  14.336  0.3598  0.1944  0.4521
19568TIP3    H180119   6.218   2.591  14.295 -0.2272 -0.1070  1.1464
19568TIP3    H280120   6.328   2.610  14.397 -0.1254 -0.0701  1.0301
19569TIP3   OH280121   6.649   0.141   4.377 -0.0965  0.1550 -0.1150
19569TIP3    H180122   6.686   0.058   4.346 -0.5516  0.0776 -0.4537
19569TIP3    H280123   6.719   0.180   4.429  0.5139  0.0759 -0.8639
19570TIP3   OH280124   5.565   3.989   2.914  0.6318 -0.0469 -0.3612
19570TIP3    H180125   5.593   4.035   2.993 -0.8604  2.0381 -0.9926
19570TIP3    H280126   5.469   3.986   2.920  0.5322 -0.4034 -1.8052
19571TIP3   OH280127   0.229   0.279   1.372  0.4827 -0.3409  0.2647
19571TIP3    H180128   0.284   0.349   1.336  1.4690 -0.1824  2.0077
19571TIP3    H280129   0.283   0.240   1.441 -1.7747  0.1713  2.3970
19572TIP3   OH280130   4.480   2.615  16.385  0.0688  0.0180 -0.1023
19572TIP3    H180131   4.433   2.580  16.310  2.1987 -1.1168 -0.9237
19572TIP3    H280132   4.482   2.543  16.448 -0.2635  0.4299  0.3861
19573TIP3   OH280133   4.976   6.494   3.597 -0.1939  0.1743  0.5532
19573TIP3    H180134   4.900   6.437   3.606 -0.0968 -0.4301 -2.0196
19573TIP3    H280135   5.050   6.438   3.622 -0.3028 -0.1908  0.0642
19574TIP3   OH280136   1.867   2.702  17.099  0.0893  0.3334 -0.7238
19574TIP3    H180137   1.894   2.620  17.140  1.0628 -0.1591 -2.3268
19574TIP3    H280138   1.784   2.723  17.142  0.9170 -0.3253  1.2674
19575TIP3   OH280139   3.128   5.944  12.745  0.5344  0.1246  0.7019
19575TIP3    H180140   3.064   5.873  12.747  0.7185 -0.0588  0.1109
19575TIP3    H280141   3.088   6.014  12.797  0.6427 -0.6494  1.8545
19576TIP3   OH280142   6.732   1.725   2.231 -0.4300 -0.1412 -0.0374
19576TIP3    H180143   6.733   1.780   2.153 -1.3636 -0.5765 -0.3713
19576TIP3    H280144   6.775   1.644   2.205 -2.3209 -0.9772 -0.6470
19577TIP3   OH280145   0.719   3.904   5.137  0.2468 -0.4288 -0.1851
19577TIP3    H180146   0.778   3.977   5.154 -1.3519  0.8878 -0.2073
19577TIP3    H280147   0.663   3.933   5.065 -1.4939 -1.0156  0.8854
19578TIP3   OH280148   4.220   0.772  14.275 -0.0056  0.3570  0.4319
19578TIP3    H180149   4.214   0.792  14.182 -1.4537 -0.0376  0.4315
19578TIP3    H280150   4.243   0.855  14.316 -0.8846  0.8739 -0.1168
19579TIP3   OH280151   2.319   3.053  13.597  0.0682  0.0071 -0.4274
19579TIP3    H180152   2.354   3.126  13.546 -0.0053  0.5845  0.3337
19579TIP3    H280153   2.383   3.041  13.667  0.3834 -1.0525 -0.8956
19580TIP3   OH280154   2.569   1.862  15.330 -0.7180 -0.2029 -0.6288
19580TIP3    H180155   2.653   1.902  15.309 -0.6915  0.7067  1.1036
19580TIP3    H280156   2.504   1.927  15.304 -0.8322 -0.3656 -0.7562
19581TIP3   OH280157   1.613   5.211  14.762 -0.4977 -0.0142 -0.1544
19581TIP3    H180158   1.540   5.160  14.726 -0.2947  1.7522 -3.1504
19581TIP3    H280159   1.689   5.186  14.709  0.0259  1.8685 -0.2976
19582TIP3   OH280160   5.644   6.328  14.508  0.1109  0.0824 -0.1151
19582TIP3    H180161   5.657   6.237  14.481  0.7221  0.1591 -0.0866
19582TIP3    H280162   5.618   6.374  14.428  0.5807  0.0381 -0.2942
19583TIP3   OH280163   2.082   2.924   5.088 -0.5371 -0.4956  0.1198
19583TIP3    H180164   1.993   2.902   5.115 -1.1632 -0.7544 -2.0433
19583TIP3    H280165   2.071   2.978   5.009  1.2124 -0.8005 -0.3680
19584TIP3   OH280166   2.195   5.154   1.787 -0.5574  0.0685 -0.5398
19584TIP3    H180167   2.233   5.229   1.833 -0.0664  0.2080 -1.1592
19584TIP3    H280168   2.255   5.082   1.805  1.4322  0.8603 -3.5565
19585TIP3   OH280169   6.186   4.547   2.645 -0.0316 -0.7801  0.3503
19585TIP3    H180170   6.177   4.604   2.721 -1.3729 -0.2709 -0.1846
19585TIP3    H280171   6.148   4.463   2.673 -1.9710 -0.1210 -0.2650
19586TIP3   OH280172   2.133   1.113   3.521  0.3686 -0.2354 -0.0853
19586TIP3    H180173   2.166   1.079   3.604  3.6827  1.1637 -0.7333
19586TIP3    H280174   2.141   1.040   3.460  0.0471 -0.6008  0.3102
19587TIP3   OH280175   5.512   0.693  14.795 -0.5592  0.0908 -0.3439
19587TIP3    H180176   5.467   0.679  14.712  1.1365  1.1161 -1.4703
19587TIP3    H280177   5.510   0.788  14.807  0.8332  0.1065 -0.1624
19588TIP3   OH280178   1.956   5.749  14.306 -0.4518  0.4215  0.0892
19588TIP3    H180179   1.938   5.670  14.255  0.1998  0.1377  0.2803
19588TIP3    H280180   2.051   5.761  14.298 -0.7407  2.0661 -1.2053
19589TIP3   OH280181   3.693   4.671   6.168 -0.6521 -0.0732 -0.3393
19589TIP3    H180182   3.776   4.679   6.215 -0.1995 -1.6065 -0.8705
19589TIP3    H280183   3.645   4.603   6.214 -0.9187 -0.3709 -1.0412
19590TIP3   OH280184   2.646   4.945   2.024 -0.4027  0.1441 -0.6182
19590TIP3    H180185   2.689   5.026   1.997  0.6539 -1.0106 -2.4936
19590TIP3    H280186   2.661   4.940   2.118  1.0935  1.2340 -0.7795
19591TIP3   OH280187   2.569   4.831  15.940 -0.0832  0.2463  0.3803
19591TIP3    H180188   2.631   4.852  15.871  1.4005 -2.7397  0.7272
19591TIP3    H280189   2.524   4.753  15.908 -0.3878 -0.3159  2.1472
19592TIP3   OH280190   0.418   3.164  15.998 -0.0316  0.2847 -0.5229
19592TIP3    H180191   0.375   3.165  15.912 -2.8174 -1.0293  0.7996
19592TIP3    H280192   0.405   3.075  16.031  2.4901  0.2771  0.5769
19593TIP3   OH280193   3.819   3.881   5.028  0.5296 -0.0889  0.0856
19593TIP3    H180194   3.743   3.907   5.080 -0.4283  0.7550 -1.7189
19593TIP3    H280195   3.885   3.948   5.046  0.7199 -0.6075  1.3475
19594TIP3   OH280196   2.726   4.941  15.158  0.3625 -0.2229  0.0711
19594TIP3    H180197   2.696   4.911  15.073  1.1680  3.8781 -1.7841
19594TIP3    H280198   2.646   4.959  15.208 -0.1697  0.9157 -1.1800
19595TIP3   OH280199   0.564   6.349   4.135 -0.1273  0.2016  0.4458
19595TIP3    H180200   0.508   6.336   4.212  0.1035  2.3999  1.0096
19595TIP3    H280201   0.650   6.318   4.163 -0.1314  0.6374  0.9433
19596TIP3   OH280202   5.125   3.230   1.928  0.2426 -0.4296  0.4856
19596TIP3    H180203   5.148   3.143   1.960 -1.3785 -1.4985 -1.1297
19596TIP3    H280204   5.085   3.274   2.004 -1.0730 -1.9552  0.7003
19597TIP3   OH280205   0.442   4.654   1.947  0.2953 -0.0835 -0.3487
19597TIP3    H180206   0.471   4.725   1.889 -0.0068 -0.8006 -1.4000
19597TIP3    H280207   0.356   4.629   1.912  1.2669 -2.3072 -1.2525
19598TIP3   OH280208   2.263   2.101   6.094 -0.4548  0.7460  0.3877
19598TIP3    H180209   2.237   2.010   6.109  2.7777 -0.2165  0.4195
19598TIP3    H280210   2.281   2.136   6.181  1.5648  0.3591  0.1553
19599TIP3   OH280211   3.395   3.430  15.981 -0.4742  0.1281 -0.1699
19599TIP3    H180212   3.324   3.385  16.027 -0.0252  1.6429  2.1002
19599TIP3    H280213   3.455   3.458  16.050  2.2208 -0.8360 -2.0174
19600TIP3   OH280214   1.818   5.226  13.897 -0.0916 -0.0627 -0.0212
19600TIP3    H180215   1.908   5.231  13.929 -0.5020  0.6591  1.0820
19600TIP3    H280216   1.813   5.144  13.849  1.5749  0.6321 -1.4158
19601TIP3   OH280217   0.705   1.135  12.408  0.8416 -0.4273  0.1513
19601TIP3    H180218   0.746   1.054  12.439  0.0800 -1.3994 -1.3466
19601TIP3    H280219   0.655   1.109  12.331 -0.1354  1.3187  0.1754
19602TIP3   OH280220   0.271   4.348  13.661  0.0294 -0.3463 -0.1337
19602TIP3    H180221   0.224   4.431  13.666 -0.9090 -0.8422 -0.7509
19602TIP3    H280222   0.230   4.300  13.589  2.1469 -0.3685 -1.3653
19603TIP3   OH280223   0.197   3.047   2.409 -0.3482  0.1578 -0.1906
19603TIP3    H180224   0.116   3.059   2.360 -1.4390  0.3832  1.6118
19603TIP3    H280225   0.169   3.034   2.500  1.4722 -2.8310  0.0249
19604TIP3   OH280226   1.853   1.138  16.122 -0.2660 -0.2676 -0.1015
19604TIP3    H180227   1.932   1.088  16.103  1.2039  1.3963  1.4689
19604TIP3    H280228   1.847   1.202  16.051  0.1587  0.0180  0.1160
19605TIP3   OH280229   3.443   3.307   6.177 -0.3900 -0.2357  0.0057
19605TIP3    H180230   3.526   3.260   6.182 -0.6637 -0.7837 -0.6682
19605TIP3    H280231   3.463   3.394   6.213 -0.0485 -1.0647  1.9086
19606TIP3   OH280232   5.419   3.067   4.570  0.7810 -0.3177 -0.7739
19606TIP3    H180233   5.448   3.063   4.479 -0.2856  0.0748 -1.1363
19606TIP3    H280234   5.399   3.159   4.586  0.6181 -0.4361 -0.2595
19607TIP3   OH280235   2.338   0.341   0.452 -0.2235  0.0565  0.0039
19607TIP3    H180236   2.372   0.414   0.504 -0.1192 -1.2133  1.7709
19607TIP3    H280237   2.243   0.350   0.457 -0.2197 -0.4296  0.9503
19608TIP3   OH280238   0.106   4.419  15.307  0.1736 -0.3328 -0.2147
19608TIP3    H180239   0.079   4.354  15.242 -0.1194 -1.5225  1.0704
19608TIP3    H280240   0.027   4.433  15.360 -0.1242  2.0019 -1.2285
19609TIP3   OH280241   5.169   6.066  14.709  0.3545 -0.7183  0.6368
19609TIP3    H180242   5.128   6.128  14.648 -0.2851 -1.9536 -0.2157
19609TIP3    H280243   5.110   6.064  14.784  0.3875 -0.2873  0.6770
19610TIP3   OH280244   4.158   4.552  15.982  0.2595  0.2703 -0.0163
19610TIP3    H180245   4.150   4.460  16.007 -2.0572  0.2204 -0.8006
19610TIP3    H280246   4.241   4.557  15.935  0.1737 -1.5302 -0.3881
19611TIP3   OH280247   0.171   3.685  13.736  0.1111 -0.0273  0.8552
19611TIP3    H180248   0.172   3.589  13.736 -1.2743 -0.0883 -1.8147
19611TIP3    H280249   0.247   3.710  13.684 -2.0760  0.1631 -2.4017
19612TIP3   OH280250   6.103   4.294   1.336  0.0289 -0.2908 -0.0324
19612TIP3    H180251   6.025   4.288   1.391 -0.9036 -0.1976 -1.3245
19612TIP3    H280252   6.081   4.245   1.257  0.7992  0.8137 -0.9487
19613TIP3   OH280253   4.421   0.323   5.595  0.9163  0.0332  0.7620
19613TIP3    H180254   4.373   0.401   5.564  1.3481 -0.3175 -0.8218
19613TIP3    H280255   4.408   0.258   5.526  1.6716 -0.8697  1.4640
19614TIP3   OH280256   2.256   2.776   3.873 -0.0113 -0.3033  0.0811
19614TIP3    H180257   2.164   2.749   3.872 -0.0421 -0.3107  1.4319
19614TIP3    H280258   2.274   2.793   3.966  1.3668 -0.3481 -0.1745
19615TIP3   OH280259   0.679   0.344  11.359 -0.0440 -0.8540  0.2527
19615TIP3    H180260   0.747   0.286  11.393  0.0482 -0.8711  0.0388
19615TIP3    H280261   0.618   0.354  11.431  1.4461  1.1247  1.2896
19616TIP3   OH280262   0.741   1.341   1.581  0.1709  0.6768  0.6860
19616TIP3    H180263   0.698   1.425   1.571 -0.8805  0.2629  1.6428
19616TIP3    H280264   0.833   1.363   1.596  0.4475  1.5320 -1.9983
19617TIP3   OH280265   4.209   4.927   1.345 -0.2181 -0.0014  0.0028
19617TIP3    H180266   4.298   4.962   1.359  0.8044 -1.8674 -1.7173
19617TIP3    H280267   4.154   4.981   1.402  1.5820  3.1708 -1.1204
19618TIP3   OH280268   4.512   2.882  16.137  0.7583  0.5087  0.1657
19618TIP3    H180269   4.556   2.798  16.120 -0.3501  0.4937 -3.0811
19618TIP3    H280270   4.536   2.937  16.062  0.9944  2.9071  1.9631
19619TIP3   OH280271   6.681   5.398  14.418 -0.6346 -0.3301 -0.1485
19619TIP3    H180272   6.617   5.406  14.489  1.0682 -1.6299  1.5979
19619TIP3    H280273   6.700   5.304  14.414 -1.2124 -0.3760 -2.8172
19620TIP3   OH280274   2.524   5.904  12.242  0.1913  0.0539  0.0800
19620TIP3    H180275   2.521   5.951  12.159 -0.5138 -3.0554 -1.7191
19620TIP3    H280276   2.584   5.956  12.296  1.0268  1.8963 -2.5040
19621TIP3   OH280277   0.000   2.400  15.028 -0.2623  0.3613 -0.4489
19621TIP3    H180278  -0.023   2.316  14.987 -4.2613  0.9049  0.5615
19621TIP3    H280279  -0.025   2.466  14.964  1.0693  0.9143 -0.4245
19622TIP3   OH280280   3.597   0.298   4.538 -0.4821 -0.2705  0.3469
19622TIP3    H180281   3.686   0.270   4.515  0.4378  1.3716  1.7616
19622TIP3    H280282   3.555   0.218   4.570  1.5757 -0.4408  2.7777
19623TIP3   OH280283   6.184   4.030  10.763  0.3348 -0.3962 -0.0457
19623TIP3    H180284   6.243   4.005  10.692 -1.0812  1.4736 -1.9447
19623TIP3    H280285   6.219   4.112  10.795  0.4890 -0.8202  0.8829
19624TIP3   OH280286   1.074   5.678   4.417 -0.1000  0.1045 -0.6753
19624TIP3    H180287   1.130   5.731   4.361  0.9523 -0.3275 -0.0402
19624TIP3    H280288   1.067   5.729   4.498  1.4344 -1.0023  0.1762
19625TIP3   OH280289   5.209   3.127  12.929  0.8997 -0.5193 -0.2871
19625TIP3    H180290   5.262   3.207  12.922  1.0433 -0.3787  1.8332
19625TIP3    H280291   5.249   3.079  13.002 -1.9709 -0.3199  1.4949
19626TIP3   OH280292   3.626   4.457   4.613 -0.0935  0.2348 -0.0881
19626TIP3    H180293   3.623   4.466   4.708  2.1315  1.9405 -0.1390
19626TIP3    H280294   3.538   4.482   4.584 -0.0100  2.2856  1.3300
19627TIP3   OH280295   0.276   3.298   4.037 -0.1114 -0.6964  0.0001
19627TIP3    H180296   0.296   3.378   3.989 -0.9978 -0.0623  0.6652
19627TIP3    H280297   0.206   3.324   4.098  0.4098 -1.6798  1.0298
19628TIP3   OH280298   4.117   4.286  16.896  0.0857 -0.1773  0.0762
19628TIP3    H180299   4.188   4.271  16.959  1.4659 -0.2380 -1.4718
19628TIP3    H280300   4.057   4.213  16.910  1.7995 -1.7721 -0.5877
19629TIP3   OH280301   6.621   0.858  14.260 -0.0083 -0.1403  0.2585
19629TIP3    H180302   6.615   0.947  14.226 -1.5032 -0.1141  0.5546
19629TIP3    H280303   6.530   0.829  14.268  0.4586 -1.6975  0.1559
19630TIP3   OH280304   1.201   1.825   5.047 -0.1918 -0.4179 -0.7456
19630TIP3    H180305   1.209   1.834   5.142 -1.5141  0.6189 -0.7230
19630TIP3    H280306   1.260   1.892   5.011 -0.2180 -0.3474 -0.6555
19631TIP3   OH280307   3.276   6.458   0.914 -0.4629  0.0835 -0.2268
19631TIP3    H180308   3.265   6.473   1.008 -1.3962  1.1193 -0.4853
19631TIP3    H280309   3.324   6.375   0.908  0.9504  0.7809  1.1760
19632TIP3   OH280310   4.951   6.755  14.558  0.4200  0.2027  0.1000
19632TIP3    H180311   5.018   6.688  14.543  0.5672  0.1873  0.8125
19632TIP3    H280312   4.992   6.836  14.528 -0.2306 -0.2146 -1.9700
19633TIP3   OH280313   5.040   3.564   5.152 -0.0679  0.2070  0.0474
19633TIP3    H180314   5.053   3.525   5.238  2.8970  0.1419 -0.3977
19633TIP3    H280315   4.952   3.535   5.126 -0.8944  0.0266  2.8961
19634TIP3   OH280316   3.413   2.821  16.166  0.1061 -0.4743  0.0087
19634TIP3    H180317   3.363   2.771  16.101  1.6767  1.1202 -2.4914
19634TIP3    H280318   3.424   2.907  16.126  0.5881  0.7329  2.6756
19635TIP3   OH280319   4.367   2.015   1.843 -0.2176  0.0986  0.1981
19635TIP3    H180320   4.324   2.080   1.900 -0.6332 -0.2496  0.2815
19635TIP3    H280321   4.382   2.062   1.761  1.5550  0.9984  1.0174
19636TIP3   OH280322   2.595   4.393  12.145 -0.4068 -0.8654  0.3583
19636TIP3    H180323   2.598   4.302  12.175 -2.8463 -1.2679 -0.5281
19636TIP3    H280324   2.607   4.388  12.051  1.5954 -0.0644  0.5490
19637TIP3   OH280325   6.275   0.362  13.174  0.9435 -0.0474 -0.8753
19637TIP3    H180326   6.187   0.398  13.169  1.3252  1.4863  2.1229
19637TIP3    H280327   6.306   0.388  13.261  3.2916 -2.9734 -0.7713
19638TIP3   OH280328   1.464   5.192   5.516 -0.4238 -0.2360  0.1147
19638TIP3    H180329   1.383   5.235   5.487 -1.1186  0.0297  2.4108
19638TIP3    H280330   1.532   5.232   5.462 -1.6304  0.5772 -0.8518
19639TIP3   OH280331   5.891   3.363  15.832 -0.0454 -0.1292 -0.1119
19639TIP3    H180332   5.933   3.281  15.860  2.9096  0.8939 -1.3760
19639TIP3    H280333   5.887   3.356  15.736 -1.6861  0.3626 -0.1032
19640TIP3   OH280334   3.165   6.629   4.281  0.5034 -0.0905  0.0985
19640TIP3    H180335   3.118   6.711   4.269 -0.2046 -0.6053 -0.7067
19640TIP3    H280336   3.221   6.644   4.358 -1.2731  0.3766  1.3184
19641TIP3   OH280337   2.765   2.353  11.442  0.7295 -0.4675 -0.2673
19641TIP3    H180338   2.806   2.434  11.412 -0.5171 -0.4126 -1.9322
19641TIP3    H280339   2.725   2.316  11.363 -0.0309 -1.9200  0.7700
19642TIP3   OH280340   6.106   5.817   4.405 -0.1409 -0.3606  0.2394
19642TIP3    H180341   6.074   5.884   4.345 -2.3431 -0.5329  1.1845
19642TIP3    H280342   6.098   5.735   4.355 -0.4813 -0.3107  0.2105
19643TIP3   OH280343   0.963   5.543  13.719  0.0041  0.2448  0.0802
19643TIP3    H180344   0.983   5.582  13.804 -0.2638 -1.7799  1.0907
19643TIP3    H280345   0.933   5.455  13.739  1.3782 -0.8001 -2.2021
19644TIP3   OH280346   5.737   3.848   0.476  0.2374 -0.0008  0.5046
19644TIP3    H180347   5.671   3.782   0.453  0.7018 -0.2060 -0.2793
19644TIP3    H280348   5.706   3.928   0.435  0.5215 -0.1220  0.0438
19645TIP3   OH280349   1.070   4.022  13.199 -0.2985 -0.1661  0.2563
19645TIP3    H180350   0.982   4.006  13.163  0.4005 -2.6284 -0.4739
19645TIP3    H280351   1.055   4.077  13.276 -2.3100  0.9338 -0.8871
19646TIP3   OH280352   2.920   2.980  16.714  0.0476  0.5869 -0.0920
19646TIP3    H180353   2.900   2.909  16.653  0.9507 -0.5449  0.9183
19646TIP3    H280354   2.835   3.019  16.733 -0.5294 -0.5851 -0.2088
19647TIP3   OH280355   3.770   1.985   0.995  0.3311 -0.0584  0.1079
19647TIP3    H180356   3.717   2.044   1.049  0.2889  1.1258 -1.1930
19647TIP3    H280357   3.786   2.034   0.914  0.0023 -1.9505 -1.1654
19648TIP3   OH280358   5.190   4.006  11.315  0.1740  0.0387 -0.1885
19648TIP3    H180359   5.117   3.978  11.260  0.4981  0.4598 -0.8285
19648TIP3    H280360   5.198   4.100  11.298 -0.9040  0.5522  1.9276
19649TIP3   OH280361   3.913   1.506   2.807 -0.0463  0.3422  0.1802
19649TIP3    H180362   3.976   1.511   2.878  0.4403 -1.4595 -0.1048
19649TIP3    H280363   3.937   1.577   2.748  1.3584  0.0219  0.3651
19650TIP3   OH280364   3.136   0.884  11.609  0.0247  0.1960  0.1647
19650TIP3    H180365   3.083   0.813  11.572 -0.1222  0.2688  0.2359
19650TIP3    H280366   3.073   0.953  11.631  0.3391  0.9635 -1.3050
19651TIP3   OH280367   6.662   3.933  14.794 -0.0257 -0.1434 -0.0603
19651TIP3    H180368   6.603   4.007  14.802  0.2583  0.1426 -0.6636
19651TIP3    H280369   6.734   3.964  14.739  1.0284 -0.2700  1.2126
19652TIP3   OH280370   1.232   2.952   4.266  0.2129 -0.7538 -0.0519
19652TIP3    H180371   1.253   3.037   4.305  1.2444 -1.1528  0.2838
19652TIP3    H280372   1.286   2.889   4.315  0.0047 -1.5077 -0.7828
19653TIP3   OH280373   5.568   3.225   1.469 -0.0225 -0.5748  0.0017
19653TIP3    H180374   5.573   3.295   1.404 -0.0540  0.2930  0.9277
19653TIP3    H280375   5.516   3.157   1.426 -0.5360  0.2265 -0.6683
19654TIP3   OH280376   2.221   3.552  16.337 -0.0117 -0.2439 -0.4133
19654TIP3    H180377   2.278   3.620  16.302 -1.0655  0.8908  0.0731
19654TIP3    H280378   2.178   3.592  16.411 -0.2059 -1.6347  0.2412
19655TIP3   OH280379   0.342   3.565   3.923  0.4147 -0.2859 -0.7811
19655TIP3    H180380   0.395   3.644   3.912 -2.7596  2.0235 -0.3266
19655TIP3    H280381   0.313   3.542   3.835 -0.8591  0.7085 -0.6426
19656TIP3   OH280382   0.449   0.618  10.434 -0.5134 -0.5722  0.2303
19656TIP3    H180383   0.538   0.649  10.454 -0.6688 -0.0280  0.0963
19656TIP3    H280384   0.423   0.669  10.357 -0.3403 -1.8807 -0.7075
19657TIP3   OH280385   6.763   3.199   2.292  0.0454 -0.1394  0.0942
19657TIP3    H180386   6.682   3.203   2.241  0.5377  1.4173 -0.5808
19657TIP3    H280387   6.735   3.215   2.382 -0.3079  1.3216 -0.2563
19658TIP3   OH280388   0.009   3.269   0.520  0.2827 -0.4920  0.5396
19658TIP3    H180389  -0.031   3.224   0.594  1.5789 -2.4605  0.0796
19658TIP3    H280390  -0.002   3.209   0.446  1.1965  0.3590 -0.3046
19659TIP3   OH280391   5.558   0.398   1.803  0.0287  0.3524 -0.3959
19659TIP3    H180392   5.548   0.451   1.724  0.2548 -0.0013 -0.6596
19659TIP3    H280393   5.635   0.344   1.787  0.6739  1.0008  0.4781
19660TIP3   OH280394   3.579   6.350   2.703 -0.0015 -0.5979 -0.0946
19660TIP3    H180395   3.667   6.384   2.687 -0.0611 -0.7157 -0.6642
19660TIP3    H280396   3.537   6.418   2.756 -0.2851  0.4528 -1.6333
19661TIP3   OH280397   6.191   5.907  11.162  0.2837  0.1943 -0.2364
19661TIP3    H180398   6.238   5.936  11.240  0.5315  0.5763 -0.5249
19661TIP3    H280399   6.255   5.914  11.092 -0.7306  2.6102 -1.0055
19662TIP3   OH280400   5.323   3.351  11.042  0.1306  0.5755 -0.2954
19662TIP3    H180401   5.360   3.371  10.955  0.3588  1.2860 -0.0393
19662TIP3    H280402   5.349   3.425  11.096 -1.3348  0.8921 -0.0003
19663TIP3   OH280403   1.090   1.626  12.597 -0.0589 -0.4656 -0.0700
19663TIP3    H180404   1.140   1.620  12.678  0.2833  0.3341 -0.2195
19663TIP3    H280405   1.004   1.589  12.619  0.0013 -0.1722  0.6769
19664TIP3   OH280406   4.210   4.935  11.226 -0.3522 -0.2347 -0.2909
19664TIP3    H180407   4.121   4.915  11.199 -0.3645  0.0001 -0.4213
19664TIP3    H280408   4.254   4.963  11.146 -0.0200 -0.8357 -0.3263
19665TIP3   OH280409   6.210   2.942  13.657 -0.3156  0.2749 -0.3108
19665TIP3    H180410   6.201   3.013  13.593 -0.8657  0.1396 -0.3803
19665TIP3    H280411   6.193   2.862  13.607 -0.4995  0.1517 -0.0506
19666TIP3   OH280412   4.228   5.054  13.065  0.5195 -0.1063 -0.0600
19666TIP3    H180413   4.196   4.978  13.113 -0.4007  1.1931  1.4694
19666TIP3    H280414   4.149   5.091  13.025  0.5890  1.3050  1.0711
19667TIP3   OH280415   4.665   5.641  12.225 -0.0483 -0.7132 -0.1348
19667TIP3    H180416   4.618   5.705  12.171  2.0377  0.3305 -0.7476
19667TIP3    H280417   4.730   5.693  12.273 -0.4178 -1.9456  1.7498
19668TIP3   OH280418   6.022   2.812  14.667  0.2728 -0.1232  0.1596
19668TIP3    H180419   6.094   2.858  14.709  2.0133 -1.9739 -0.7387
19668TIP3    H280420   6.021   2.725  14.708 -1.0192 -0.3507 -0.3145
19669TIP3   OH280421   3.966   3.918   5.741  0.4017 -0.2388 -0.0053
19669TIP3    H180422   4.051   3.959   5.754  1.9175 -3.0200 -0.7067
19669TIP3    H280423   3.909   3.989   5.713  2.5035  1.6612  0.4056
19670TIP3   OH280424   6.217   6.621  12.839  0.3565  0.3812 -0.5624
19670TIP3    H180425   6.274   6.605  12.915  0.7623  1.7004 -0.5780
19670TIP3    H280426   6.266   6.683  12.785  0.6545 -1.5580 -2.5790
19671TIP3   OH280427   3.636   2.239   4.241  0.3959 -0.3868 -0.6062
19671TIP3    H180428   3.650   2.334   4.237  0.9900 -0.4731 -0.5580
19671TIP3    H280429   3.663   2.214   4.329 -1.3986 -0.3403 -0.0131
19672TIP3   OH280430   3.645   4.272   2.432  0.0533 -0.6311 -0.0413
19672TIP3    H180431   3.705   4.347   2.429 -0.1208 -0.5622 -2.4303
19672TIP3    H280432   3.625   4.253   2.341 -3.7590 -0.5557  0.6954
19673TIP3   OH280433   2.590   5.264   5.124 -0.3618  0.0597 -0.5818
19673TIP3    H180434   2.577   5.282   5.031  0.6994 -0.1120 -0.7724
19673TIP3    H280435   2.576   5.348   5.167  0.8787  0.5376 -1.0865
19674TIP3   OH280436   1.914   5.772   6.629 -0.1958  0.7347  0.5068
19674TIP3    H180437   1.904   5.678   6.647 -1.2272  0.1833 -2.6781
19674TIP3    H280438   1.834   5.811   6.663  0.5849  0.6124  2.5618
19675TIP3   OH280439   0.421   0.682  15.605 -0.4518 -0.0767 -0.6778
19675TIP3    H180440   0.368   0.606  15.627 -1.7037  0.8083 -0.5706
19675TIP3    H280441   0.406   0.744  15.676  1.3151 -0.0873 -0.2681
19676TIP3   OH280442   5.498   3.091   3.511 -0.0738 -0.4454  0.0297
19676TIP3    H180443   5.414   3.135   3.521 -0.1137 -0.7002  0.8601
19676TIP3    H280444   5.562   3.161   3.502 -0.3212 -0.2448 -0.1591
19677TIP3   OH280445   2.515   1.731  16.052 -0.2091  0.3579  0.3448
19677TIP3    H180446   2.474   1.679  16.121  1.0091 -1.0457  0.0342
19677TIP3    H280447   2.445   1.788  16.020 -0.7535  1.1691  2.8419
19678TIP3   OH280448   5.171   4.944   1.961 -0.0515 -0.5090  0.5273
19678TIP3    H180449   5.131   4.858   1.977 -2.1921 -0.0058 -1.8903
19678TIP3    H280450   5.207   4.937   1.872 -0.3700  1.1428  0.2551
19679TIP3   OH280451   5.301   5.890   0.209  0.4160  0.5231  0.3334
19679TIP3    H180452   5.229   5.954   0.209  0.5585  0.6891  1.6033
19679TIP3    H280453   5.257   5.805   0.200  0.0870  0.6446  0.7889
19680TIP3   OH280454   0.292   5.650   5.396 -0.1200  0.1020 -0.2178
19680TIP3    H180455   0.337   5.710   5.456 -0.4967  0.1847 -0.0180
19680TIP3    H280456   0.269   5.575   5.449 -2.7338  1.2815  0.3640
19681TIP3   OH280457   1.039   2.323  13.928 -0.0568 -0.0181  0.2494
19681TIP3    H180458   1.068   2.232  13.923 -0.7295 -0.3150  1.6755
19681TIP3    H280459   1.114   2.369  13.966 -0.7757 -0.5005  2.3334
19682TIP3   OH280460   6.028   0.496  13.212 -0.6354  0.5892  0.3604
19682TIP3    H180461   6.087   0.570  13.227  0.6655 -0.5928  1.3004
19682TIP3    H280462   5.956   0.510  13.274 -1.2921  1.9642 -0.6900
19683TIP3   OH280463   6.675   1.629  11.769  0.3577 -0.4242 -0.2791
19683TIP3    H180464   6.746   1.601  11.712  2.4081  2.3970  0.8052
19683TIP3    H280465   6.616   1.554  11.773  2.0566 -1.9705 -3.1003
19684TIP3   OH280466   2.536   5.429   3.543 -0.2510  0.3966 -0.2554
19684TIP3    H180467   2.590   5.367   3.494  0.2083  0.5339  0.0751
19684TIP3    H280468   2.448   5.392   3.539 -0.2906  0.5961 -1.4946
19685TIP3   OH280469   4.476   1.122  15.633 -0.0067 -0.8541 -0.2870
19685TIP3    H180470   4.540   1.108  15.564 -1.4166 -2.8248 -1.2458
19685TIP3    H280471   4.475   1.040  15.682 -0.6937 -0.2936  0.6595
19686TIP3   OH280472   1.538   2.933  12.282  0.1681  0.3745 -0.5641
19686TIP3    H180473   1.466   2.885  12.322  1.5124 -1.9279 -0.7896
19686TIP3    H280474   1.511   2.947  12.191  0.4098 -1.3790 -0.9177
19687TIP3   OH280475   0.710   0.798   5.233  0.5048 -0.2575 -0.1505
19687TIP3    H180476   0.696   0.893   5.238 -0.2758 -0.4797  2.6909
19687TIP3    H280477   0.624   0.762   5.212  1.0680 -0.2748 -2.5281
19688TIP3   OH280478   4.029   2.472   5.739 -0.0560 -1.0297  0.4845
19688TIP3    H180479   4.074   2.412   5.800  0.1719 -0.2922  1.0467
19688TIP3    H280480   3.969   2.521   5.795 -0.7999 -1.2712 -0.1005
19689TIP3   OH280481   6.721   5.630   1.100 -0.6278  0.7009  0.4481
19689TIP3    H180482   6.793   5.617   1.039 -0.7269  1.8179  0.0964
19689TIP3    H280483   6.651   5.573   1.067  0.2715 -0.8321  1.1218
19690TIP3   OH280484   5.650   3.612  10.306 -0.1225  0.1590 -0.8188
19690TIP3    H180485   5.638   3.705  10.326 -0.1264 -0.1280  0.5096
19690TIP3    H280486   5.745   3.600  10.307 -0.1699 -0.1088  0.1523
19691TIP3   OH280487   0.851   2.194   5.362  0.2915 -0.5553  0.1171
19691TIP3    H180488   0.922   2.235   5.412  1.0758 -0.4539 -1.0593
19691TIP3    H280489   0.778   2.256   5.369  0.5763 -0.2796  0.6651
19692TIP3   OH280490   1.140   1.687   6.524 -0.3037  0.2171  0.1913
19692TIP3    H180491   1.200   1.739   6.471  1.8948 -0.6525  1.7387
19692TIP3    H280492   1.155   1.597   6.495 -2.6772  0.2131 -1.1136
19693TIP3   OH280493   4.963   6.405   4.621  0.0423 -0.1434  0.3178
19693TIP3    H180494   5.010   6.489   4.622  1.2990 -0.7908 -1.7200
19693TIP3    H280495   4.880   6.425   4.577 -0.0511  0.2103  0.6471
19694TIP3   OH280496   0.634   5.183  13.058  0.0018  0.1708  0.6774
19694TIP3    H180497   0.687   5.167  12.980  0.5738  0.9079  0.9106
19694TIP3    H280498   0.617   5.096  13.094  0.5551 -0.1099  0.2655
19695TIP3   OH280499   2.209   0.684   4.399 -0.3227  0.0785 -0.0189
19695TIP3    H180500   2.283   0.647   4.351 -1.4611 -0.2566 -1.5604
19695TIP3    H280501   2.136   0.624   4.381 -1.4943  1.5379 -0.2626
19696TIP3   OH280502   5.662   2.820   5.465 -0.9505  0.3190 -0.0903
19696TIP3    H180503   5.650   2.855   5.553 -0.9222 -0.9207  0.4124
19696TIP3    H280504   5.574   2.817   5.427 -0.6603  3.6239 -1.2083
19697TIP3   OH280505   2.294   4.122   3.921  0.2248  0.0538 -0.0194
19697TIP3    H180506   2.323   4.201   3.966 -1.0836  0.7530 -0.3860
19697TIP3    H280507   2.263   4.152   3.835 -0.7370 -0.7700  0.0177
19698TIP3   OH280508   1.984   0.367   4.123 -0.4424 -0.2809  0.7223
19698TIP3    H180509   2.004   0.283   4.164 -0.8890 -1.9876 -2.3838
19698TIP3    H280510   1.891   0.363   4.103 -0.0400  0.0104 -1.3906
19699TIP3   OH280511   5.369   2.082  15.748 -0.1107 -0.8731 -0.2389
19699TIP3    H180512   5.459   2.090  15.781 -0.4566  0.1441  0.5090
19699TIP3    H280513   5.328   2.165  15.772 -1.1823 -1.2322 -0.8009
19700TIP3   OH280514   2.149   0.953   0.098 -0.1175  0.6004  0.3477
19700TIP3    H180515   2.153   0.954   0.002 -0.1171  2.3614  0.3495
19700TIP3    H280516   2.227   1.002   0.125  0.4611 -0.8185  1.2762
19701TIP3   OH280517   2.036   6.688  13.177 -0.0232 -0.0272 -0.0785
19701TIP3    H180518   2.011   6.757  13.238 -2.6629  0.0497 -1.1648
19701TIP3    H280519   2.129   6.674  13.193 -0.2884  1.1388  2.7845
19702TIP3   OH280520   3.956   5.226   5.888 -0.1771  0.6609  0.3637
19702TIP3    H180521   3.966   5.131   5.882  0.0861  0.6926  0.2563
19702TIP3    H280522   3.897   5.249   5.816 -0.9096  0.4858  0.9033
19703TIP3   OH280523   6.245   0.565   2.987 -0.4597 -0.6326 -0.2054
19703TIP3    H180524   6.176   0.517   3.033 -1.8970  1.7445  0.1972
19703TIP3    H280525   6.298   0.497   2.947 -1.5870 -2.6166  1.5467
19704TIP3   OH280526   5.667   0.212  15.754  0.0141 -0.1351  1.2014
19704TIP3    H180527   5.632   0.301  15.758  0.1692  0.0439 -1.0433
19704TIP3    H280528   5.646   0.174  15.840 -2.3349  1.2165  1.2596
19705TIP3   OH280529   5.776   6.022   2.374 -0.5040 -0.2702 -0.1184
19705TIP3    H180530   5.766   5.931   2.403 -1.9603 -0.0803  0.0088
19705TIP3    H280531   5.774   6.017   2.278  0.9427 -0.5255 -0.1498
19706TIP3   OH280532   0.535   6.443  12.221 -0.0939  0.5348 -0.5080
19706TIP3    H180533   0.561   6.353  12.239  0.3145  0.5871 -0.8396
19706TIP3    H280534   0.616   6.493  12.225 -0.5349  1.1182  1.1221
19707TIP3   OH280535   0.970   2.617   1.943  0.1456 -0.1746  0.5660
19707TIP3    H180536   0.940   2.535   1.905  1.3937 -0.9396  1.2013
19707TIP3    H280537   1.057   2.598   1.977  0.9527  1.7199 -0.3322
19708TIP3   OH280538   2.877   0.539  12.769  0.0777 -0.5637 -0.1634
19708TIP3    H180539   2.931   0.580  12.703  1.0628 -0.2374  0.8259
19708TIP3    H280540   2.876   0.446  12.746 -1.4047 -0.1465 -1.8787
19709TIP3   OH280541   4.227   6.125  12.746  0.2021 -0.5140  0.2807
19709TIP3    H180542   4.308   6.092  12.786  0.5499 -0.2404 -0.1876
19709TIP3    H280543   4.157   6.080  12.792  0.6400 -1.0588  0.4167
19710TIP3   OH280544   1.758   3.517   1.797  0.4054  0.3291  0.2673
19710TIP3    H180545   1.716   3.580   1.856  3.2892  3.0671 -0.4480
19710TIP3    H280546   1.719   3.535   1.711  0.8061  0.7636  0.1731
19711TIP3   OH280547   3.182   0.389  17.095  0.4882  0.0995  0.9114
19711TIP3    H180548   3.109   0.327  17.093  0.6196 -0.0313  0.2794
19711TIP3    H280549   3.146   0.466  17.140  0.0468 -0.0734  0.8607
19712TIP3   OH280550   5.860   1.007  13.413  0.4580  0.6724  0.1225
19712TIP3    H180551   5.875   0.979  13.323  0.7560 -0.9446  0.6560
19712TIP3    H280552   5.940   0.985  13.459  0.9983  3.1441  0.4291
19713TIP3   OH280553   1.628   5.646  14.023 -0.1769  0.1357  0.0419
19713TIP3    H180554   1.549   5.696  14.003 -0.9397 -1.2701 -0.5835
19713TIP3    H280555   1.700   5.699  13.990 -0.8695  1.3317  0.4125
19714TIP3   OH280556   2.480   3.685   4.324  0.1744  0.1081 -0.2338
19714TIP3    H180557   2.414   3.657   4.388  2.2206 -0.6981  1.5638
19714TIP3    H280558   2.479   3.615   4.258 -1.2150  0.4339 -0.5863
19715TIP3   OH280559   3.665   2.692   2.857  0.5294  0.6956  0.4347
19715TIP3    H180560   3.623   2.671   2.774 -0.1229  0.0881  0.9011
19715TIP3    H280561   3.731   2.623   2.869  1.2138  1.2751  0.0135
19716TIP3   OH280562   3.778   2.059  15.731 -0.4128 -0.8336  0.1205
19716TIP3    H180563   3.683   2.066  15.722 -0.4254 -0.5722  0.4298
19716TIP3    H280564   3.807   2.149  15.746 -0.1816 -0.9871  0.6079
19717TIP3   OH280565   2.335   0.610   0.171 -0.0327 -1.1310  0.0974
19717TIP3    H180566   2.286   0.675   0.221  1.1204  0.6483 -1.0356
19717TIP3    H280567   2.375   0.554   0.238 -0.5139 -0.2741  1.1144
19718TIP3   OH280568   2.263   4.222   1.459 -0.1765  0.0250 -0.2378
19718TIP3    H180569   2.253   4.271   1.377 -2.5465  0.0267  0.0341
19718TIP3    H280570   2.357   4.228   1.478  0.2117  1.1107 -2.2714
19719TIP3   OH280571   0.411   2.673   2.365 -0.4561  0.8347  0.2112
19719TIP3    H180572   0.342   2.626   2.318  0.8633 -0.2653 -0.6339
19719TIP3    H280573   0.468   2.706   2.296 -1.4171  3.8301  0.7661
19720TIP3   OH280574   0.496   2.143  12.238  0.7177  0.4161  0.1925
19720TIP3    H180575   0.483   2.191  12.320 -0.9993  0.0417  0.1619
19720TIP3    H280576   0.479   2.208  12.170 -0.8984 -0.0330  0.1509
19721TIP3   OH280577   4.227   3.683   2.437 -0.6493 -0.3038  0.0739
19721TIP3    H180578   4.313   3.714   2.409  0.2566 -2.7101  0.0356
19721TIP3    H280579   4.209   3.607   2.382 -1.8182 -1.1313  1.5316
19722TIP3   OH280580   4.745   1.110  16.450 -0.3842 -0.1946  0.3167
19722TIP3    H180581   4.652   1.103  16.428 -0.4775 -1.1152  0.9893
19722TIP3    H280582   4.785   1.032  16.411  0.3584  0.9372 -1.2292
19723TIP3   OH280583   4.092   4.503  12.362  0.3773 -0.3236 -1.1173
19723TIP3    H180584   4.173   4.454  12.378  0.6320 -0.2526 -2.1528
19723TIP3    H280585   4.033   4.475  12.432  0.5085 -2.1325 -1.6830
19724TIP3   OH280586   2.960   4.565  16.231 -0.3593 -0.3144 -0.1418
19724TIP3    H180587   2.903   4.585  16.157 -2.9121  0.0658  1.8737
19724TIP3    H280588   2.958   4.470  16.238 -2.4166 -0.2205  1.1261
19725TIP3   OH280589   2.191   6.631  17.184  0.2167 -0.0054  0.3187
19725TIP3    H180590   2.122   6.612  17.247  0.8651 -3.7752 -0.0227
19725TIP3    H280591   2.232   6.711  17.217 -2.0816  0.3958  2.3734
19726TIP3   OH280592   4.035   6.344   2.997  0.0578 -0.5511  0.1093
19726TIP3    H180593   4.049   6.416   3.059 -2.3160  1.2105 -1.3492
19726TIP3    H280594   3.985   6.279   3.047 -0.8094  0.3339  0.4065
19727TIP3   OH280595   2.535   6.128   3.413 -0.5240 -0.0255 -0.2191
19727TIP3    H180596   2.473   6.107   3.483 -1.2662  1.9943 -0.2374
19727TIP3    H280597   2.609   6.169   3.458 -0.7966  0.8514 -0.5756
19728TIP3   OH280598   2.198   3.891   0.971  0.1602  0.5382 -0.3930
19728TIP3    H180599   2.225   3.810   1.015  0.7862  1.6160  1.2717
19728TIP3    H280600   2.280   3.933   0.947  0.0612  2.9541  3.0581
19729TIP3   OH280601   6.500   3.907   4.933  0.2708  0.1228 -0.0273
19729TIP3    H180602   6.592   3.915   4.958 -0.0055  1.3905  0.6085
19729TIP3    H280603   6.492   3.962   4.855 -0.2542  1.1303  0.7292
19730TIP3   OH280604   6.328   5.789   3.614  0.0944 -0.7033  0.6923
19730TIP3    H180605   6.310   5.700   3.584  0.4022 -0.8500  0.9428
19730TIP3    H280606   6.365   5.833   3.537  0.9409 -1.0962  0.8697
19731TIP3   OH280607   2.785   0.485   2.318 -0.0570 -0.2244 -0.0199
19731TIP3    H180608   2.694   0.483   2.346 -0.4698  1.6344 -1.1434
19731TIP3    H280609   2.783   0.452   2.228  0.3673 -0.2264 -0.0278
19732TIP3   OH280610   5.923   5.288   1.170 -0.3674 -0.1866  0.5857
19732TIP3    H180611   5.928   5.207   1.221 -1.4637 -0.8341 -0.3271
19732TIP3    H280612   5.858   5.341   1.216 -0.2049 -0.1214  0.7447
19733TIP3   OH280613   5.680   0.838   4.129  0.1092  0.0523  0.0220
19733TIP3    H180614   5.769   0.818   4.157  0.1122  1.8822  1.4061
19733TIP3    H280615   5.690   0.916   4.073 -0.4344 -0.8132 -1.3231
19734TIP3   OH280616   0.409   0.393  15.243  0.1585 -0.0531  0.1302
19734TIP3    H180617   0.376   0.463  15.299  0.0258  0.5443 -0.6748
19734TIP3    H280618   0.503   0.389  15.262 -0.0189 -0.3666  0.9371
19735TIP3   OH280619   0.883   2.816   0.537 -0.1010  0.4962 -0.5965
19735TIP3    H180620   0.880   2.752   0.607  2.3726 -1.0315 -1.8125
19735TIP3    H280621   0.955   2.875   0.560 -1.5873  2.1770 -0.0876
19736TIP3   OH280622   3.913   2.704   5.162  0.0440 -0.5512  0.9368
19736TIP3    H180623   3.860   2.747   5.095 -0.2328 -1.2866  0.6858
19736TIP3    H280624   3.943   2.776   5.218 -0.3130 -0.0149  0.4443
19737TIP3   OH280625   5.136   1.843   5.510 -0.6446 -0.3545 -0.0850
19737TIP3    H180626   5.180   1.812   5.431 -2.3565 -0.8361 -0.8860
19737TIP3    H280627   5.146   1.771   5.572  0.1182 -0.2572 -0.0914
19738TIP3   OH280628   6.678   3.200   3.861  0.3884  0.3369 -0.4193
19738TIP3    H180629   6.653   3.143   3.789 -0.1165  1.0976 -0.8646
19738TIP3    H280630   6.675   3.288   3.823  0.6473  0.6956  0.3854
19739TIP3   OH280631   3.796   0.230  10.925 -0.1419  0.1113  0.0564
19739TIP3    H180632   3.820   0.317  10.958 -0.8739  0.8242 -1.2632
19739TIP3    H280633   3.868   0.173  10.953 -0.6788  0.6961  2.7836
19740TIP3   OH280634   0.676   4.840  16.816 -0.3184 -0.1936 -0.0409
19740TIP3    H180635   0.662   4.845  16.911 -1.4309 -0.2741 -0.1882
19740TIP3    H280636   0.603   4.891  16.779  0.2349  0.0264 -0.8435
19741TIP3   OH280637   4.718   3.202   2.415  0.4116  0.4058  0.1102
19741TIP3    H180638   4.651   3.135   2.417  0.2413  0.5944  0.8748
19741TIP3    H280639   4.730   3.228   2.506  0.3446  1.5350 -0.1857
19742TIP3   OH280640   3.576   6.136  14.243  0.0351  0.4817 -0.3693
19742TIP3    H180641   3.667   6.137  14.213  0.1865  1.2901  0.1053
19742TIP3    H280642   3.575   6.194  14.319 -0.7102 -0.1990  0.1361
19743TIP3   OH280643   0.828   0.302  16.059  0.2797  0.0539 -0.1419
19743TIP3    H180644   0.876   0.221  16.039 -0.1852 -0.0117 -1.0062
19743TIP3    H280645   0.883   0.371  16.023  0.7846  0.1495  0.7877
19744TIP3   OH280646   5.683   0.338  14.180  0.4372  0.6166  0.1561
19744TIP3    H180647   5.588   0.344  14.167  0.5968  1.6202 -0.5758
19744TIP3    H280648   5.706   0.251  14.146 -0.1405  0.5659 -0.1238
19745TIP3   OH280649   0.816   2.963   2.771  0.6866 -0.7950 -1.0750
19745TIP3    H180650   0.881   2.919   2.827  1.0584  1.2920  0.1723
19745TIP3    H280651   0.865   3.029   2.723 -0.4980  0.9318  0.0105
19746TIP3   OH280652   4.353   3.074  13.790 -0.0489 -0.1885  0.0569
19746TIP3    H180653   4.271   3.112  13.823  0.3279  0.1646  0.5787
19746TIP3    H280654   4.395   3.145  13.741  1.1043  0.3568  1.8151
19747TIP3   OH280655   1.417   6.753   4.702  0.4182 -0.2345 -0.2753
19747TIP3    H180656   1.450   6.801   4.779  0.8887  0.4235 -0.8834
19747TIP3    H280657   1.436   6.661   4.722  1.5728  0.0310 -0.0940
19748TIP3   OH280658   2.354   3.262  13.405  0.0541  0.5067  0.0679
19748TIP3    H180659   2.394   3.213  13.332 -1.2291  1.8894 -1.6000
19748TIP3    H280660   2.403   3.344  13.409  0.1143  0.4399  0.7633
19749TIP3   OH280661   2.159   2.101  13.301 -0.2835 -0.5490 -0.8562
19749TIP3    H180662   2.111   2.085  13.220 -2.2013 -0.8689  0.3153
19749TIP3    H280663   2.127   2.033  13.361  1.5192 -0.6649  0.0031
19750TIP3   OH280664   0.554   6.111  12.969 -0.1678 -0.6964 -0.1376
19750TIP3    H180665   0.459   6.127  12.968 -0.4060 -2.0974 -0.1715
19750TIP3    H280666   0.563   6.017  12.980  1.2419 -0.5082  0.4498
19751TIP3   OH280667   5.550   4.016  16.966  0.0430  0.2229 -0.5378
19751TIP3    H180668   5.597   3.945  17.011  1.7426  1.3177 -0.5571
19751TIP3    H280669   5.585   4.015  16.877  1.4085  2.2644 -0.0441
19752TIP3   OH280670   5.789   6.574  13.489 -0.4752 -0.3529 -0.3482
19752TIP3    H180671   5.693   6.579  13.490 -0.3776  1.7974  0.4113
19752TIP3    H280672   5.815   6.609  13.574  0.9767 -1.5132 -0.3008
19753TIP3   OH280673   1.551   4.994   1.124 -0.0712 -0.1652 -0.3234
19753TIP3    H180674   1.502   5.025   1.049  0.4270 -0.4237 -0.7594
19753TIP3    H280675   1.511   5.038   1.199 -0.7859 -0.1705 -0.7001
19754TIP3   OH280676   0.322   1.839  12.190 -0.6451 -0.4241 -0.3200
19754TIP3    H180677   0.297   1.811  12.278  0.6713  0.9998  0.5363
19754TIP3    H280678   0.414   1.863  12.198 -0.9076  1.1706 -1.7177
19755TIP3   OH280679   0.888   4.234  13.066 -0.7455 -0.1348  0.1860
19755TIP3    H180680   0.823   4.273  13.124 -0.2750 -0.1485  0.7301
19755TIP3    H280681   0.878   4.140  13.078 -1.6118 -0.1899 -0.8312
19756TIP3   OH280682   0.157   4.969   3.366 -0.4947 -0.2626  0.6563
19756TIP3    H180683   0.200   5.054   3.382  1.9461 -0.8994 -2.1044
19756TIP3    H280684   0.195   4.911   3.432  0.2817  0.0287  0.4738
19757TIP3   OH280685   1.246   4.006   2.125 -0.4830  0.1392 -0.6865
19757TIP3    H180686   1.205   4.082   2.167  0.2678 -0.1798  0.6554
19757TIP3    H280687   1.334   4.035   2.104 -0.3117 -0.2490 -0.5002
19758TIP3   OH280688   1.629   3.146  12.431 -0.5501  0.3203 -0.4900
19758TIP3    H180689   1.621   3.128  12.525 -0.6538  1.6303 -0.2317
19758TIP3    H280690   1.582   3.075  12.388  0.5490 -0.9635  0.4025
19759TIP3   OH280691   6.475   0.194  12.119  0.1553  0.1519  0.1563
19759TIP3    H180692   6.397   0.143  12.099  1.3521 -1.6288 -0.0897
19759TIP3    H280693   6.462   0.278  12.074 -1.8846  0.1313  0.6666
19760TIP3   OH280694   5.263   0.582   4.942 -0.0048 -0.5716 -0.7615
19760TIP3    H180695   5.248   0.511   4.881 -1.3981 -0.8288 -0.1404
19760TIP3    H280696   5.296   0.539   5.021 -1.7451 -0.6344 -0.0623
19761TIP3   OH280697   2.723   1.483  13.914  0.6390 -0.2130  0.4188
19761TIP3    H180698   2.770   1.559  13.879  0.1769  0.1776  0.6460
19761TIP3    H280699   2.755   1.475  14.004  2.8706 -2.0509 -0.4702
19762TIP3   OH280700   0.355   6.605   2.667 -0.3645  0.2480 -0.3868
19762TIP3    H180701   0.414   6.577   2.597 -1.8030 -1.3731 -0.9848
19762TIP3    H280702   0.398   6.577   2.748 -0.7274 -1.7309 -0.8630
19763TIP3   OH280703   3.269   2.607   6.072 -0.1049 -0.7139  0.0973
19763TIP3    H180704   3.317   2.534   6.033  0.2434 -1.1976  1.4228
19763TIP3    H280705   3.275   2.593   6.166  0.7250  1.5042  0.4098
19764TIP3   OH280706   6.258   6.682   1.167 -0.1479 -0.0048  0.2101
19764TIP3    H180707   6.286   6.771   1.144  0.3854  0.3366  2.1317
19764TIP3    H280708   6.240   6.686   1.261 -1.6083 -1.5518  0.0124
19765TIP3   OH280709   2.489   0.538  16.616 -0.2918 -0.1348 -0.0569
19765TIP3    H180710   2.548   0.472  16.579 -0.0763  0.3718 -0.6140
19765TIP3    H280711   2.542   0.618  16.622 -0.5269 -0.0260  0.6978
19766TIP3   OH280712   6.137   5.750   3.806  0.3421 -0.4917  0.2578
19766TIP3    H180713   6.195   5.770   3.732 -0.6767 -1.6298 -0.8917
19766TIP3    H280714   6.185   5.779   3.883  1.2407  1.1458 -0.8868
19767TIP3   OH280715   4.596   2.252   5.517  0.5730  0.5507  0.1221
19767TIP3    H180716   4.519   2.292   5.475  1.2352  0.4916 -1.1547
19767TIP3    H280717   4.561   2.175   5.562 -0.3094  1.1861  0.5530
19768TIP3   OH280718   3.695   1.581   3.278 -0.3145  0.1274  0.0319
19768TIP3    H180719   3.619   1.638   3.290 -0.3791  0.3760 -1.3913
19768TIP3    H280720   3.657   1.497   3.252 -0.2000 -0.4454  1.6701
19769TIP3   OH280721   3.136   0.123  13.399 -0.5405  0.4181  0.5691
19769TIP3    H180722   3.101   0.205  13.364  1.6159  1.5482  0.9364
19769TIP3    H280723   3.224   0.116  13.361 -0.8300 -1.9272  0.2462
19770TIP3   OH280724   3.040   2.615  12.852 -0.3085  0.1235 -0.1872
19770TIP3    H180725   2.988   2.693  12.874 -0.7983  0.2510 -1.7604
19770TIP3    H280726   2.999   2.580  12.773  1.5902 -0.1755 -1.0643
19771TIP3   OH280727   6.523   4.986  16.031  0.1252  0.3833 -0.0535
19771TIP3    H180728   6.446   4.939  16.000 -0.3313  0.6118  0.7383
19771TIP3    H280729   6.560   5.025  15.952 -1.1298  1.1016 -0.2962
19772TIP3   OH280730   3.764   1.805   1.219  0.2621  0.2195  0.0071
19772TIP3    H180731   3.719   1.738   1.167  0.7776 -0.8514  0.9099
19772TIP3    H280732   3.781   1.876   1.157 -0.9353 -0.1758 -0.7944
19773TIP3   OH280733   4.743   0.456  11.662 -0.7546  0.4445  0.3032
19773TIP3    H180734   4.660   0.503  11.668 -1.0269  0.2086 -1.2581
19773TIP3    H280735   4.789   0.499  11.590 -0.4537 -0.8126 -0.2727
19774TIP3   OH280736   3.280   4.197  11.074 -0.6534  0.4860  0.2282
19774TIP3    H180737   3.352   4.258  11.089 -1.7581  1.5367  1.4547
19774TIP3    H280738   3.282   4.180  10.980  1.5649  0.0040  0.3322
19775TIP3   OH280739   5.579   0.666  12.437  0.4004 -0.2462  0.6235
19775TIP3    H180740   5.510   0.642  12.499 -0.0455 -0.1478  0.1584
19775TIP3    H280741   5.551   0.750  12.401  1.5693  0.6169  1.6612
19776TIP3   OH280742   3.840   6.118   5.221 -0.3311  0.2706  0.1418
19776TIP3    H180743   3.756   6.132   5.266 -0.1507  1.3793  0.1385
19776TIP3    H280744   3.883   6.203   5.224  0.3305 -0.0269 -0.8225
19777TIP3   OH280745   5.639   1.835  14.080  0.1626  0.9284 -0.6786
19777TIP3    H180746   5.584   1.833  14.001 -0.1208  1.0097 -0.4838
19777TIP3    H280747   5.579   1.815  14.151  0.8332 -1.4987 -0.7231
19778TIP3   OH280748   6.130   2.952   2.012 -0.4124 -0.0594  0.1553
19778TIP3    H180749   6.044   2.956   2.054 -0.6624  0.0336 -0.3552
19778TIP3    H280750   6.192   2.979   2.080 -0.9122  1.1579  0.1423
19779TIP3   OH280751   4.532   6.132  12.357 -0.3173  0.6854  0.2753
19779TIP3    H180752   4.571   6.215  12.383 -0.9589  1.1476 -0.2045
19779TIP3    H280753   4.438   6.146  12.364 -0.4643  0.3728 -0.8896
19780TIP3   OH280754   0.098   5.793   1.734 -0.3552 -0.4730 -0.0252
19780TIP3    H180755   0.037   5.812   1.805  0.6755 -0.5053  0.8769
19780TIP3    H280756   0.176   5.757   1.777  0.7056  0.5075 -1.0651
19781TIP3   OH280757   1.347   4.103   5.891  0.5377  0.4690  0.2611
19781TIP3    H180758   1.297   4.183   5.875 -0.9054 -0.4485  0.1038
19781TIP3    H280759   1.428   4.116   5.842  0.2091  1.7150  0.0132
19782TIP3   OH280760   0.017   6.558   5.478  0.0546  0.3827 -0.3248
19782TIP3    H180761   0.063   6.516   5.405  0.6114 -1.3277  0.9545
19782TIP3    H280762   0.083   6.613   5.519  1.0552 -2.0759  1.5142
19783TIP3   OH280763   5.973   3.046  16.820 -0.3467  0.3832  0.2510
19783TIP3    H180764   5.938   3.026  16.733 -1.6778 -1.3020  1.1480
19783TIP3    H280765   5.915   3.113  16.855  0.0624  0.9062 -0.0571
19784TIP3   OH280766   3.821   6.126   0.823 -0.6359  0.0207 -0.0425
19784TIP3    H180767   3.907   6.138   0.783 -0.3297  0.5810  0.7764
19784TIP3    H280768   3.803   6.032   0.813 -0.2705  0.0399 -0.8954
19785TIP3   OH280769   0.930   2.428   3.132  0.5496 -0.3664  0.8646
19785TIP3    H180770   1.000   2.376   3.094 -1.1672  0.1965 -3.3081
19785TIP3    H280771   0.861   2.365   3.152 -0.4481 -0.0656 -1.5804
19786TIP3   OH280772   0.798   5.775   2.301 -0.4622 -0.7503 -0.0392
19786TIP3    H180773   0.885   5.806   2.328 -0.0338 -1.8672 -0.0780
19786TIP3    H280774   0.806   5.761   2.207 -0.8968 -0.1911 -0.1585
19787TIP3   OH280775   0.885   6.145  13.084 -0.1134 -0.2996  0.2694
19787TIP3    H180776   0.891   6.095  13.003 -0.9400 -0.0710  0.0587
19787TIP3    H280777   0.831   6.221  13.061  0.2259  0.1246  0.8592
19788TIP3   OH280778   0.398   4.710  15.879  0.0607 -0.4188  0.5454
19788TIP3    H180779   0.483   4.751  15.895  0.1870 -0.6729  0.5347
19788TIP3    H280780   0.401   4.684  15.786 -0.8664  1.5131 -0.0479
19789TIP3   OH280781   0.480   4.282  12.339  0.4676  0.1248 -0.4794
19789TIP3    H180782   0.420   4.356  12.332  1.2943  0.8069 -0.3822
19789TIP3    H280783   0.423   4.205  12.342 -0.4663  0.8647  1.2122
19790TIP3   OH280784   3.552   4.772  11.581  1.0820 -0.2115 -0.4154
19790TIP3    H180785   3.527   4.777  11.489 -1.5729 -0.0391  0.2566
19790TIP3    H280786   3.539   4.861  11.614  2.5456 -0.1400  0.0191
19791TIP3   OH280787   1.737   5.454  13.543 -0.6432 -0.0550 -0.3343
19791TIP3    H180788   1.688   5.431  13.622 -1.2639  1.5597 -0.2465
19791TIP3    H280789   1.755   5.548  13.552 -0.2000  0.0152 -1.8296
19792TIP3   OH280790   5.116   2.418  14.103  0.0511  0.1899  0.4104
19792TIP3    H180791   5.204   2.379  14.111 -0.3569 -0.6113  1.1735
19792TIP3    H280792   5.092   2.440  14.193 -0.2109  1.1447  0.1145
19793TIP3   OH280793   0.093   2.114   1.268  0.0148 -0.5941 -0.2827
19793TIP3    H180794   0.127   2.183   1.211 -0.5674  0.4093  0.5467
19793TIP3    H280795   0.155   2.042   1.259  0.3986 -0.1148 -1.4973
19794TIP3   OH280796   4.662   4.417   5.337 -0.0659  0.6361  0.0916
19794TIP3    H180797   4.739   4.440   5.285 -1.0005 -1.0208 -2.1109
19794TIP3    H280798   4.638   4.498   5.381  1.6416  1.7231 -0.8950
19795TIP3   OH280799   4.922   2.373  15.751 -0.4262 -0.3100  0.0980
19795TIP3    H180800   5.000   2.396  15.700 -1.8379  0.6031 -1.6733
19795TIP3    H280801   4.937   2.415  15.836  0.0060  1.7399 -0.9609
19796TIP3   OH280802   3.942   1.220   5.488  0.0269  0.0726  0.4409
19796TIP3    H180803   3.858   1.239   5.529 -1.0251 -5.3279  1.2560
19796TIP3    H280804   3.924   1.221   5.394 -0.5174  0.7855  0.5558
19797TIP3   OH280805   1.429   2.165  13.219  0.5746  0.6579  0.4751
19797TIP3    H180806   1.362   2.212  13.169 -0.6453 -1.0345  0.4870
19797TIP3    H280807   1.391   2.154  13.306  0.8694 -0.3096  0.4851
19798TIP3   OH280808   1.015   3.439   2.642 -0.4158  0.7297  0.1160
19798TIP3    H180809   1.001   3.516   2.698 -0.9564  0.0283  0.9545
19798TIP3    H280810   0.982   3.466   2.557 -0.4222  1.5011  0.3541
19799TIP3   OH280811   4.602   0.688   3.702  1.1694 -0.2135  0.2944
19799TIP3    H180812   4.572   0.778   3.705  0.0220 -0.6182  1.4954
19799TIP3    H280813   4.604   0.660   3.794  0.6902 -1.6655 -0.1186
19800TIP3   OH280814   1.571   0.245   3.764 -0.6127 -0.1134  0.3728
19800TIP3    H180815   1.534   0.259   3.852  0.5405  0.5365  0.7646
19800TIP3    H280816   1.502   0.275   3.705 -0.6933  1.1649  1.0939
19801TIP3   OH280817   2.047   2.301   6.077  0.1061  0.5375 -0.0366
19801TIP3    H180818   1.954   2.277   6.070  0.2035 -0.5673  2.1903
19801TIP3    H280819   2.092   2.217   6.091  1.6980  0.8118 -3.0186
19802TIP3   OH280820   6.108   6.306   0.713  0.6858 -0.4542  0.1137
19802TIP3    H180821   6.182   6.308   0.773  0.6463  0.0968  0.1477
19802TIP3    H280822   6.146   6.309   0.626  0.6855  0.4910  0.1399
19803TIP3   OH280823   3.271   5.931  12.362 -0.3259 -0.3868 -0.2018
19803TIP3    H180824   3.335   5.913  12.292 -0.2669 -0.4353 -0.1369
19803TIP3    H280825   3.262   5.847  12.407 -1.1578 -0.6233 -0.7992
19804TIP3   OH280826   4.451   1.658   2.144 -0.0652  0.5120 -0.1363
19804TIP3    H180827   4.488   1.707   2.071 -0.4560  2.5076  0.9749
19804TIP3    H280828   4.359   1.684   2.147 -0.5007 -0.9757 -0.0724
19805TIP3   OH280829   0.297   5.268  12.165  0.1240 -0.9779 -0.8342
19805TIP3    H180830   0.279   5.207  12.092  1.4875 -2.0265 -0.3097
19805TIP3    H280831   0.388   5.253  12.187 -0.2637 -0.6436  1.0942
19806TIP3   OH280832   5.215   0.328   0.473 -0.7050 -0.6170 -0.1791
19806TIP3    H180833   5.177   0.250   0.433 -1.7586 -0.5849  0.7517
19806TIP3    H280834   5.140   0.381   0.501 -0.0053 -0.2730  1.1265
19807TIP3   OH280835   1.267   4.778   2.421 -0.1136 -0.5527  0.0893
19807TIP3    H180836   1.333   4.831   2.376 -0.9126 -0.2116 -0.6945
19807TIP3    H280837   1.210   4.746   2.351 -0.9500 -0.6158  0.7890
19808TIP3   OH280838   5.979   1.280  11.504 -0.3509  0.0646 -0.7428
19808TIP3    H180839   5.917   1.316  11.442 -1.0149 -0.7362 -0.5535
19808TIP3    H280840   5.997   1.352  11.565 -1.7098  0.0666 -0.3265
19809TIP3   OH280841   0.807   1.056  16.552  0.0936 -0.2676  0.1125
19809TIP3    H180842   0.794   0.990  16.484 -0.7274 -1.0806  1.0544
19809TIP3    H280843   0.808   1.008  16.634 -1.1145  0.9308  0.8618
19810TIP3   OH280844   4.863   3.394  16.001  0.0531  0.1035  0.0150
19810TIP3    H180845   4.887   3.411  16.092  1.1578  1.5395 -0.5155
19810TIP3    H280846   4.859   3.481  15.961 -1.6396 -0.4265 -1.0191
19811TIP3   OH280847   5.513   5.618   2.249  0.3767  0.1912 -0.2265
19811TIP3    H180848   5.535   5.666   2.330 -2.0184  2.1826 -0.7116
19811TIP3    H280849   5.425   5.583   2.265  0.0270  0.3167 -1.8522
19812TIP3   OH280850   4.982   3.245   5.649  0.8293 -0.7840 -0.1754
19812TIP3    H180851   4.915   3.312   5.640  1.1242 -0.4588  0.0261
19812TIP3    H280852   5.065   3.292   5.640  1.1087 -0.6713  2.7291
19813TIP3   OH280853   6.630   6.011  13.853  0.2450  0.0612 -0.0651
19813TIP3    H180854   6.662   5.934  13.807 -0.1467  0.0110 -0.2551
19813TIP3    H280855   6.535   6.000  13.856  0.1663  0.6602 -0.3157
19814TIP3   OH280856   4.573   4.142  12.659  0.0975 -0.4230  0.1184
19814TIP3    H180857   4.588   4.126  12.566 -0.2558 -0.4774  0.0684
19814TIP3    H280858   4.622   4.073  12.703  1.4728  0.4743  0.0285
19815TIP3   OH280859   6.139   1.849  13.473 -0.2301  0.0801  0.7351
19815TIP3    H180860   6.165   1.879  13.386 -0.1690  0.2739  0.8206
19815TIP3    H280861   6.051   1.813  13.461  0.1579 -0.7812  0.3980
19816TIP3   OH280862   6.542   5.606   1.430 -0.1517  0.3493 -0.3974
19816TIP3    H180863   6.463   5.633   1.385 -0.1589  0.1378 -0.5093
19816TIP3    H280864   6.527   5.515   1.453 -0.3254  0.5775  0.4098
19817TIP3   OH280865   0.768   1.090  11.827  0.3920 -0.0673  0.4659
19817TIP3    H180866   0.710   1.048  11.764  1.1600  0.1974 -0.4159
19817TIP3    H280867   0.815   1.018  11.868  1.9578 -0.0591 -1.2860
19818TIP3   OH280868   4.424   2.780  15.281  0.4413  0.1418  0.2034
19818TIP3    H180869   4.478   2.703  15.263  1.8065  1.3030 -0.6730
19818TIP3    H280870   4.469   2.825  15.353  0.0264  0.5101  0.2333
19819TIP3   OH280871   4.644   6.233  15.397 -0.4376  0.0069  0.0623
19819TIP3    H180872   4.587   6.249  15.473 -0.9584 -0.6997 -0.1788
19819TIP3    H280873   4.620   6.302  15.335  1.6503  2.0668  1.4446
19820TIP3   OH280874   4.251   1.973   5.412  0.1856  0.5375 -0.0900
19820TIP3    H180875   4.222   2.038   5.476 -0.8671 -0.8650  0.8994
19820TIP3    H280876   4.206   1.998   5.331  0.3453  1.4577  0.1052
19821TIP3   OH280877   3.687   5.617   2.048 -0.2335  0.0688  0.8540
19821TIP3    H180878   3.750   5.600   2.118  0.2551 -1.5108  0.0497
19821TIP3    H280879   3.635   5.537   2.042 -0.0265  0.0343 -0.8312
19822TIP3   OH280880   3.966   4.445  13.692  0.2845 -0.1725  0.0501
19822TIP3    H180881   4.013   4.423  13.772  0.3730  1.7480  0.5473
19822TIP3    H280882   3.970   4.540  13.687 -0.7785 -0.1908 -1.6000
19823TIP3   OH280883   2.259   6.465   3.518  0.1812 -0.8555 -0.1428
19823TIP3    H180884   2.316   6.461   3.441  0.0635  0.8322 -0.3311
19823TIP3    H280885   2.270   6.380   3.560  0.2605 -1.7815 -2.0041
19824TIP3   OH280886   3.573   5.938   5.470  0.4636  0.6309  0.1410
19824TIP3    H180887   3.617   5.982   5.542  0.9121 -1.7760  1.3851
19824TIP3    H280888   3.489   5.910   5.507  0.2310  0.3435 -0.6010
19825TIP3   OH280889   2.984   3.472  15.067  0.6230 -0.3887 -0.3834
19825TIP3    H180890   3.057   3.411  15.064  0.7446 -0.2956  0.5114
19825TIP3    H280891   2.912   3.421  15.104  0.8009  0.0847  0.6291
19826TIP3   OH280892   6.564   4.495  14.263 -0.4484  0.1247 -0.2885
19826TIP3    H180893   6.605   4.431  14.206  1.2414 -0.9699  2.0592
19826TIP3    H280894   6.492   4.447  14.305 -0.4028  0.3326  0.0285
19827TIP3   OH280895   5.397   1.488  13.979  0.2129 -0.5062 -0.0899
19827TIP3    H180896   5.482   1.455  14.008  1.2239  0.4440 -1.9563
19827TIP3    H280897   5.336   1.417  14.000  1.5482 -1.4332  0.7072
19828TIP3   OH280898   5.287   0.809   2.750  0.1329 -0.8003  0.3946
19828TIP3    H180899   5.269   0.827   2.658  0.5550 -1.0348  0.2648
19828TIP3    H280900   5.361   0.748   2.749  0.2145 -0.7135  0.8907
19829TIP3   OH280901   5.074   4.515   5.071  0.4013 -0.1102  0.1502
19829TIP3    H180902   5.103   4.595   5.116 -0.3503  0.4646 -0.3638
19829TIP3    H280903   5.043   4.546   4.985 -0.2729 -0.9016  0.1019
19830TIP3   OH280904   6.453   2.590   1.809  0.1654 -0.4653  0.2202
19830TIP3    H180905   6.487   2.502   1.825 -1.7364 -1.1760  0.5123
19830TIP3    H280906   6.417   2.586   1.721  1.3727  0.4605 -0.3286
19831TIP3   OH280907   0.944   5.212   5.855 -0.0808 -0.3227  0.3698
19831TIP3    H180908   0.894   5.232   5.934 -0.2366  0.2257  0.1305
19831TIP3    H280909   1.017   5.159   5.886  2.2280  3.3314  1.5099
19832TIP3   OH280910   2.586   2.821  15.546  0.5744  0.5325 -0.5844
19832TIP3    H180911   2.649   2.805  15.476  0.6491 -1.3760 -0.1142
19832TIP3    H280912   2.554   2.910  15.530  3.4985  1.5984 -0.7331
19833TIP3   OH280913   2.521   4.542  17.061  0.0974 -0.3015  0.2096
19833TIP3    H180914   2.586   4.574  16.999  0.9630  1.7664  2.1142
19833TIP3    H280915   2.571   4.491  17.124 -0.6165 -1.4743 -0.1646
19834TIP3   OH280916   4.359   3.744   1.498  0.2784  0.4589 -0.7263
19834TIP3    H180917   4.323   3.771   1.583 -1.5271  0.9597 -1.6203
19834TIP3    H280918   4.454   3.739   1.512 -0.0053  0.4385  1.3379
19835TIP3   OH280919   3.377   4.859  13.960  0.0479 -0.0180 -0.6124
19835TIP3    H180920   3.444   4.802  13.922 -0.2698  1.0184 -2.7808
19835TIP3    H280921   3.359   4.820  14.046  2.0180 -1.4240 -0.7930
19836TIP3   OH280922   0.539   6.475   0.096  0.0047  0.0293 -0.5592
19836TIP3    H180923   0.579   6.508   0.015  1.4732 -0.0407  0.1118
19836TIP3    H280924   0.446   6.491   0.085  0.2535  0.5994 -2.0045
19837TIP3   OH280925   0.782   2.722  14.112 -0.2123  0.0588  0.4168
19837TIP3    H180926   0.751   2.664  14.182 -2.4522 -0.1905 -0.7297
19837TIP3    H280927   0.815   2.799  14.158 -0.0919 -0.8243  1.8278
19838TIP3   OH280928   3.958   1.504  13.386 -0.0969 -0.1328  0.2320
19838TIP3    H180929   3.938   1.580  13.331 -1.4047  0.0312  0.9126
19838TIP3    H280930   3.983   1.435  13.324 -1.3349  0.1244 -0.5764
19839TIP3   OH280931   1.587   2.660   3.649  0.3757  0.0458 -0.4049
19839TIP3    H180932   1.634   2.663   3.566  1.4380 -0.9516  0.1422
19839TIP3    H280933   1.534   2.580   3.643  3.2695 -2.0980  1.3173
19840TIP3   OH280934   1.101   4.834  15.410  0.0913 -0.1325 -0.2027
19840TIP3    H180935   1.162   4.765  15.437  0.4579 -0.4788 -1.8573
19840TIP3    H280936   1.146   4.916  15.431  0.1768 -0.3933  0.6385
19841TIP3   OH280937   2.242   2.309   2.104 -0.2205  0.4151 -0.4266
19841TIP3    H180938   2.246   2.340   2.013 -1.1210  0.6483 -0.3922
19841TIP3    H280939   2.238   2.214   2.097 -0.1040  0.4254 -0.6306
19842TIP3   OH280940   3.866   6.726   1.940  0.0787  0.2888  0.5687
19842TIP3    H180941   3.926   6.653   1.928  1.3048  1.1660  1.2033
19842TIP3    H280942   3.845   6.755   1.851  0.6097 -0.0212  0.3431
19843TIP3   OH280943   0.530   6.093   3.618 -0.2795 -0.2163  0.2276
19843TIP3    H180944   0.481   6.011   3.607 -0.9889  0.0247  1.4892
19843TIP3    H280945   0.585   6.077   3.695  1.2980 -0.3088 -0.8768
19844TIP3   OH280946   6.264   1.432  17.204  0.0607 -0.2301  0.5726
19844TIP3    H180947   6.306   1.495  17.263 -0.6758  1.8284 -1.0490
19844TIP3    H280948   6.283   1.465  17.117  0.5401 -2.8644 -0.3578
19845TIP3   OH280949   3.450   0.972  14.334 -0.0233  0.0537  0.0757
19845TIP3    H180950   3.482   1.004  14.250  0.3661  1.2650  0.6824
19845TIP3    H280951   3.453   1.048  14.392 -0.4110 -0.7406  1.1551
19846TIP3   OH280952   4.487   3.648  12.983  0.5038 -0.0606 -0.3046
19846TIP3    H180953   4.409   3.691  13.016 -1.1929 -2.8513 -0.4893
19846TIP3    H280954   4.554   3.665  13.049 -0.7647  0.8089  0.7867
19847TIP3   OH280955   2.740   5.943   4.502 -0.5138  0.7637  0.0245
19847TIP3    H180956   2.706   5.909   4.585 -1.0895 -0.0493 -0.5318
19847TIP3    H280957   2.753   6.036   4.517 -2.4628  0.9823  0.4273
19848TIP3   OH280958   1.904   5.493  16.214  0.1490  0.2325 -0.0267
19848TIP3    H180959   1.859   5.574  16.189 -0.2674 -0.6739 -2.3459
19848TIP3    H280960   1.905   5.494  16.310 -2.1231  1.7526  0.0131
19849TIP3   OH280961   2.417   5.457  10.802  0.3116  0.3785  0.6406
19849TIP3    H180962   2.445   5.370  10.830  0.6069  1.3667  3.6300
19849TIP3    H280963   2.459   5.470  10.717  2.1627 -1.4852  1.2341
19850TIP3   OH280964   1.191   3.045   2.768  0.3971  0.4649  0.5625
19850TIP3    H180965   1.264   2.991   2.739  0.3533  0.7167 -0.0282
19850TIP3    H280966   1.143   2.990   2.830  0.3774 -0.1629 -0.0008
19851TIP3   OH280967   4.641   0.880  15.087  0.0824 -0.1434 -0.2767
19851TIP3    H180968   4.691   0.849  15.163  0.6168 -1.5305 -1.1710
19851TIP3    H280969   4.704   0.876  15.014 -0.6717  0.3370 -0.9635
19852TIP3   OH280970   4.145   2.856  11.404  0.4922  0.2347 -0.1447
19852TIP3    H180971   4.075   2.806  11.444  0.0137 -0.4518 -1.8415
19852TIP3    H280972   4.145   2.940  11.452  1.1933 -1.2441  2.5766
19853TIP3   OH280973   4.844   0.664   4.199  0.1425  0.4069  0.1825
19853TIP3    H180974   4.877   0.645   4.111 -1.5561  1.5531 -0.7438
19853TIP3    H280975   4.835   0.578   4.240 -0.9057 -0.3251 -1.4925
19854TIP3   OH280976   5.596   2.119  13.022  0.3677  0.5931 -0.2089
19854TIP3    H180977   5.614   2.213  13.027  0.4688  0.5701 -0.1482
19854TIP3    H280978   5.634   2.091  12.939  0.2012  0.6360 -0.3007
19855TIP3   OH280979   0.232   3.739  16.894 -0.3746 -1.1421 -0.1692
19855TIP3    H180980   0.259   3.811  16.837  0.9405  0.9070  2.9109
19855TIP3    H280981   0.188   3.677  16.836  0.2425  1.2033 -3.2386
19856TIP3   OH280982   6.605   5.404   2.220  0.6649 -0.6788  0.2324
19856TIP3    H180983   6.515   5.438   2.221  0.5099 -0.9781 -1.5362
19856TIP3    H280984   6.615   5.360   2.304  0.3893  2.4723  1.9756
19857TIP3   OH280985   4.421   4.322   1.445  0.2248 -0.5312 -0.0554
19857TIP3    H180986   4.451   4.382   1.513 -1.6912  1.0296 -0.5440
19857TIP3    H280987   4.494   4.316   1.383  1.4887 -0.9559  1.4629
19858TIP3   OH280988   4.121   0.835  16.207 -0.2082 -0.4743 -0.0004
19858TIP3    H180989   4.053   0.897  16.181 -0.0784 -0.1811  0.3541
19858TIP3    H280990   4.148   0.865  16.294 -1.1908 -1.8889  0.8209
19859TIP3   OH280991   3.087   1.075  10.815  0.1996  0.2082 -0.1730
19859TIP3    H180992   3.152   1.107  10.752 -0.7690 -0.9641 -1.7942
19859TIP3    H280993   3.028   1.150  10.829 -0.8931 -0.1993 -2.4133
19860TIP3   OH280994   1.343   2.282  17.115  0.1573  0.0479 -0.0763
19860TIP3    H180995   1.416   2.229  17.146  0.0569  0.0933  0.2330
19860TIP3    H280996   1.312   2.329  17.193 -0.1431  0.0992 -0.2265
19861TIP3   OH280997   5.043   4.995  14.469  0.6216 -0.0907 -0.0449
19861TIP3    H180998   5.059   5.089  14.465 -4.1945  0.9391  0.9716
19861TIP3    H280999   5.066   4.970  14.558 -1.9204  1.0710  1.0011
19862TIP3   OH281000   2.303   3.289   4.298  0.4295 -0.5104  0.5547
19862TIP3    H181001   2.311   3.286   4.394  2.2400  0.1727  0.4503
19862TIP3    H281002   2.384   3.248   4.267  0.1367 -0.1486 -0.6891
19863TIP3   OH281003   5.845   1.716   2.825 -0.0680  0.1709 -0.2757
19863TIP3    H181004   5.925   1.728   2.875 -0.7412 -1.5221  1.2612
19863TIP3    H281005   5.799   1.800   2.833  0.3037  0.2566  1.0951
19864TIP3   OH281006   1.314   1.222  15.927 -0.7488  0.5535 -0.6885
19864TIP3    H181007   1.407   1.235  15.945 -0.5633 -1.1581 -0.3906
19864TIP3    H281008   1.301   1.261  15.840  0.5266 -0.3597 -1.2977
19865TIP3   OH281009   3.914   0.918  15.734  0.5533 -0.0521 -0.3355
19865TIP3    H181010   3.858   0.843  15.755  2.8263 -1.5854  0.4234
19865TIP3    H281011   3.880   0.989  15.789 -1.3720 -0.6061 -0.7665
19866TIP3   OH281012   3.188   6.369   3.818 -0.1075  0.1566 -1.1024
19866TIP3    H181013   3.214   6.390   3.907 -1.3333  2.1260 -1.1646
19866TIP3    H281014   3.266   6.331   3.778  1.3258  1.8630 -0.0113
19867TIP3   OH281015   2.770   2.269  16.112 -0.0734  0.9168  0.8072
19867TIP3    H181016   2.849   2.255  16.163 -0.2921  0.2328  0.9729
19867TIP3    H281017   2.718   2.189  16.126 -0.7989  1.3682  0.7271
19868TIP3   OH281018   1.338   3.990  13.259  0.0083 -0.6437  0.1234
19868TIP3    H181019   1.254   4.016  13.222  0.1499 -0.8027 -0.3124
19868TIP3    H281020   1.316   3.951  13.343 -0.4592 -1.8445 -0.5495
19869TIP3   OH281021   0.098   4.050  14.639  0.7145  0.0473 -0.0080
19869TIP3    H181022   0.015   4.096  14.627  0.3264 -0.3187  1.2222
19869TIP3    H281023   0.136   4.046  14.551 -0.5495  0.2471 -0.5745
19870TIP3   OH281024   5.085   4.497  15.951  0.4452  0.1467  0.6946
19870TIP3    H181025   5.126   4.473  16.034 -1.5658 -1.6716  1.1825
19870TIP3    H281026   5.110   4.589  15.938  1.6829  0.1207  2.7455
19871TIP3   OH281027   4.527   6.072  17.003  0.2507  0.4941 -0.2714
19871TIP3    H181028   4.529   6.139  17.071 -0.0464  1.1001 -0.8567
19871TIP3    H281029   4.513   6.120  16.922  0.5089 -0.2326 -0.7541
19872TIP3   OH281030   6.017   3.439  16.529  0.2715 -0.0019 -0.0605
19872TIP3    H181031   6.030   3.486  16.447 -0.3196  0.5565  0.1537
19872TIP3    H281032   6.028   3.506  16.597 -3.5149  0.5490  0.1565
19873TIP3   OH281033   0.043   5.004  16.685  0.1968 -0.3545 -0.1288
19873TIP3    H181034   0.073   4.935  16.744  0.6283  0.0729  0.1446
19873TIP3    H281035   0.123   5.036  16.643 -0.2326 -1.6418 -2.0281
19874TIP3   OH281036   4.773   5.560   5.154  0.8286  0.0063  0.2984
19874TIP3    H181037   4.776   5.465   5.140  0.4997  0.2545 -1.4710
19874TIP3    H281038   4.684   5.576   5.186  0.6728 -0.1940 -0.0312
19875TIP3   OH281039   0.517   1.594  12.230  0.4906 -0.4077  0.7273
19875TIP3    H181040   0.602   1.586  12.187  1.4425 -0.3653  2.5381
19875TIP3    H281041   0.520   1.680  12.272 -0.2628 -0.5994  1.1759
19876TIP3   OH281042   4.605   6.264   3.853  0.0262 -0.8488  0.2443
19876TIP3    H181043   4.593   6.330   3.785  1.3909  0.2353  1.0296
19876TIP3    H281044   4.674   6.207   3.821  0.9484 -0.1016  0.8767
19877TIP3   OH281045   3.586   3.220   2.520 -0.2755 -0.1996 -0.5892
19877TIP3    H181046   3.647   3.256   2.584  0.4145 -1.8776 -0.2717
19877TIP3    H281047   3.499   3.241   2.553  0.1089  0.6345 -0.1142
19878TIP3   OH281048   1.922   6.188   4.505  0.4148 -0.1058  0.1886
19878TIP3    H181049   2.009   6.154   4.483  1.5296  1.7617  1.5567
19878TIP3    H281050   1.867   6.162   4.432  2.2492 -0.8455 -0.9714
19879TIP3   OH281051   4.743   2.638   2.938  0.7315  0.4425  0.3377
19879TIP3    H181052   4.696   2.695   2.876  0.2321 -2.6042 -2.2558
19879TIP3    H281053   4.689   2.640   3.017 -2.8822 -1.4749 -1.9211
19880TIP3   OH281054   3.869   6.263  11.879 -0.1878 -0.3737 -0.2042
19880TIP3    H181055   3.797   6.295  11.933  0.5609 -1.2570  1.3542
19880TIP3    H281056   3.830   6.196  11.823 -1.1422  1.1442 -1.3920
19881TIP3   OH281057   4.595   2.834  12.373 -0.1579  0.2680  0.2981
19881TIP3    H181058   4.626   2.835  12.283 -0.6109  1.1738  0.1481
19881TIP3    H281059   4.664   2.877  12.423 -0.1669  0.2893  0.2929
19882TIP3   OH281060   0.459   5.027  16.392  0.3095  0.5515  0.0363
19882TIP3    H181061   0.516   4.962  16.350 -0.8519 -0.8315  0.5705
19882TIP3    H281062   0.406   5.063  16.321  0.1739  0.1076 -0.0850
19883TIP3   OH281063   3.119   0.214   4.664 -0.3772 -0.0875  0.5777
19883TIP3    H181064   3.105   0.307   4.651 -0.8200 -0.4813 -1.9467
19883TIP3    H281065   3.169   0.208   4.746 -0.4198  2.3276  0.8017
19884TIP3   OH281066   3.060   4.956  14.153 -0.5793 -0.3732  0.2965
19884TIP3    H181067   3.117   5.032  14.162 -0.2873 -0.8020  2.2225
19884TIP3    H281068   3.118   4.886  14.121 -0.4890 -0.2467  0.1816
19885TIP3   OH281069   1.342   3.134   5.372 -0.0582  0.4179 -0.1132
19885TIP3    H181070   1.370   3.141   5.463 -0.9382 -1.7585  0.3766
19885TIP3    H281071   1.393   3.200   5.326  1.3538  0.6739  1.7366
19886TIP3   OH281072   6.689   5.391   3.475  0.4066 -0.8141 -0.2502
19886TIP3    H181073   6.644   5.459   3.525  1.9635 -0.2999  0.4741
19886TIP3    H281074   6.661   5.309   3.515 -0.1065 -0.5211 -0.0021
19887TIP3   OH281075   5.612   3.491  13.112  0.0162  0.1428  0.2205
19887TIP3    H181076   5.566   3.542  13.179 -2.3214  0.3466 -1.4977
19887TIP3    H281077   5.612   3.402  13.146 -1.2037  0.2302  0.4829
19888TIP3   OH281078   5.432   1.995  13.297  0.7009  0.1332  0.0762
19888TIP3    H181079   5.405   2.054  13.227 -0.0473  1.2829  1.3081
19888TIP3    H281080   5.351   1.957  13.329  0.9982 -0.0748  0.5815
19889TIP3   OH281081   6.465   5.206  11.857 -0.9149 -0.2884 -0.5590
19889TIP3    H181082   6.496   5.137  11.798 -0.7814 -1.1215  0.4607
19889TIP3    H281083   6.385   5.239  11.817 -1.7367 -1.9944 -0.3676
19890TIP3   OH281084   1.965   2.535   5.403 -0.4828  0.4438 -0.2393
19890TIP3    H181085   1.981   2.495   5.318  1.6255  2.2386 -0.7344
19890TIP3    H281086   2.027   2.493   5.461 -1.8564 -0.7131  0.4246
19891TIP3   OH281087   1.151   1.409   3.171  0.2747  0.6777  0.4140
19891TIP3    H181088   1.090   1.471   3.213  1.1905  2.7182 -1.1740
19891TIP3    H281089   1.134   1.420   3.077  2.8947  1.1030 -0.0354
19892TIP3   OH281090   4.430   5.171  15.904  0.7266  0.0069 -0.1750
19892TIP3    H181091   4.424   5.175  16.000 -2.7445  1.6721 -0.4130
19892TIP3    H281092   4.397   5.084  15.882 -0.2612  0.3281  0.0248
19893TIP3   OH281093   4.730   3.128   6.852  0.3094 -0.2943 -0.1937
19893TIP3    H181094   4.668   3.167   6.790  1.6054  0.2947 -1.1295
19893TIP3    H281095   4.724   3.034   6.834  0.2831 -0.1726 -0.8349
19894TIP3   OH281096   6.301   0.043   4.859 -0.2997  0.1153  0.0482
19894TIP3    H181097   6.374   0.104   4.870 -0.2814  0.0420  0.3462
19894TIP3    H281098   6.318  -0.002   4.777 -0.4133  0.6507 -0.2668
19895TIP3   OH281099   4.153   5.400  12.078 -0.3400  0.1145 -0.6043
19895TIP3    H181100   4.193   5.325  12.122 -2.1371 -0.0309  0.8923
19895TIP3    H281101   4.170   5.387  11.985  0.6199 -1.3863 -0.2180
19896TIP3   OH281102   1.153   2.713   6.516  0.3818 -0.2867 -0.2353
19896TIP3    H181103   1.234   2.763   6.516  0.4180 -0.3029 -2.2916
19896TIP3    H281104   1.095   2.762   6.573  0.3753  2.2586 -2.3259
19897TIP3   OH281105   3.426   4.721  11.840  0.0713 -0.4108 -0.1639
19897TIP3    H181106   3.427   4.769  11.757  0.7624 -2.5956 -1.4544
19897TIP3    H281107   3.339   4.681  11.843  1.1203 -2.8153 -1.3111
19898TIP3   OH281108   0.394   2.973   1.944  0.1756  0.1002 -0.3329
19898TIP3    H181109   0.390   2.991   2.038 -2.2774 -0.4510 -0.2851
19898TIP3    H281110   0.391   2.878   1.937 -1.3378  0.1800 -0.9986
19899TIP3   OH281111   3.543   0.704  10.774  0.4341 -0.4026  0.0704
19899TIP3    H181112   3.566   0.795  10.793  0.9373 -0.6217  0.5175
19899TIP3    H281113   3.627   0.657  10.776 -0.0434 -1.2158  1.7715
19900TIP3   OH281114   6.147   2.205  13.620 -0.5367  0.5991  0.1093
19900TIP3    H181115   6.192   2.199  13.704  1.2269  2.4721 -0.6333
19900TIP3    H281116   6.204   2.156  13.560 -1.8387 -0.8199  0.0164
19901TIP3   OH281117   6.038   6.757   1.718 -0.0597  0.1108 -0.2309
19901TIP3    H181118   6.115   6.793   1.761  0.0579  0.9184 -1.1070
19901TIP3    H281119   6.069   6.677   1.676 -0.0968 -0.4966  0.8607
19902TIP3   OH281120   0.519   2.035  13.092 -0.8071  0.1541 -0.5199
19902TIP3    H181121   0.477   2.086  13.022 -0.2566  0.7028 -0.4536
19902TIP3    H281122   0.509   2.088  13.170 -0.1089  0.2216 -0.4766
19903TIP3   OH281123   5.251   4.053  11.966  0.2090 -0.0186  0.2175
19903TIP3    H181124   5.161   4.025  11.977  0.0610 -0.3478 -1.6455
19903TIP3    H281125   5.259   4.074  11.873  2.3062 -0.9172  0.1547
19904TIP3   OH281126   5.103   5.176   9.946  1.0326  0.2512 -0.2880
19904TIP3    H181127   5.055   5.230   9.883  0.8663 -0.1626 -0.5216
19904TIP3    H281128   5.150   5.238  10.001 -1.2221  0.7367  1.1255
19905TIP3   OH281129   5.193   3.010   0.746  0.2064  0.4975  0.4448
19905TIP3    H181130   5.246   2.945   0.792  1.5634 -0.4679 -2.3270
19905TIP3    H281131   5.107   2.969   0.736  0.5501 -0.1684  0.2016
19906TIP3   OH281132   3.768   1.228   1.713 -0.2716  0.0127 -0.6043
19906TIP3    H181133   3.862   1.232   1.733 -0.9235  0.4716  2.5610
19906TIP3    H281134   3.727   1.286   1.777 -2.5380  1.8223 -3.5544
19907TIP3   OH281135   2.775   4.658   0.870  0.2724 -0.1096  0.7221
19907TIP3    H181136   2.869   4.645   0.883  0.5231  1.3721  0.4887
19907TIP3    H281137   2.769   4.731   0.808 -1.0153 -1.3112 -0.6201
19908TIP3   OH281138   2.513   0.027   6.324 -0.0539 -0.4838  0.8314
19908TIP3    H181139   2.579  -0.033   6.288 -0.1118  0.0823 -0.2289
19908TIP3    H281140   2.442   0.026   6.259  0.8359  2.3357 -0.2393
19909TIP3   OH281141   2.620   1.544   0.662  1.0531  0.1261 -0.1786
19909TIP3    H181142   2.549   1.490   0.628  0.1065  1.4541 -0.3246
19909TIP3    H281143   2.637   1.509   0.749  2.4624 -2.3174 -1.3751
19910TIP3   OH281144   3.885   4.032   5.450  0.0691  0.5886 -0.0893
19910TIP3    H181145   3.826   4.054   5.522  1.5166  0.6067  1.1180
19910TIP3    H281146   3.833   3.976   5.392 -0.6351 -0.7463  1.7838
19911TIP3   OH281147   0.823   5.736  15.503  0.2248 -0.4809 -0.3708
19911TIP3    H181148   0.862   5.819  15.474 -0.3822 -0.3357 -0.7878
19911TIP3    H281149   0.785   5.755  15.588  1.6704 -0.8056  0.3643
19912TIP3   OH281150   6.646   0.587  14.163  0.1485 -0.0784 -0.0202
19912TIP3    H181151   6.634   0.681  14.168 -0.2642 -0.2171  2.2092
19912TIP3    H281152   6.720   0.568  14.220  1.6920 -0.8852 -2.2131
19913TIP3   OH281153   3.512   6.192   0.122  0.0537 -0.5739  0.1375
19913TIP3    H181154   3.485   6.108   0.159  0.9842 -0.3179  1.4502
19913TIP3    H281155   3.529   6.174   0.030  1.3761 -2.0847  0.6648
19914TIP3   OH281156   3.299   2.204   6.456 -0.1085  0.7716  0.8175
19914TIP3    H181157   3.233   2.182   6.522 -0.6881  0.2516  0.0901
19914TIP3    H281158   3.364   2.257   6.502  0.7208 -1.5190  2.3532
19915TIP3   OH281159   5.516   1.328   0.577  0.3704  0.1138  0.7329
19915TIP3    H181160   5.451   1.273   0.620  1.5073 -0.4652  1.7536
19915TIP3    H281161   5.596   1.315   0.629  1.4471  0.3480 -0.8424
19916TIP3   OH281162   4.669   3.995  16.891  0.1658 -0.2896 -0.3052
19916TIP3    H181163   4.671   3.972  16.984  1.2600  0.2716 -0.1793
19916TIP3    H281164   4.610   3.930  16.852 -1.1627  0.1194  0.9483
19917TIP3   OH281165   0.551   2.739  16.667  0.1148  0.6832 -0.2360
19917TIP3    H181166   0.471   2.710  16.710  0.5131 -0.4850 -0.2674
19917TIP3    H281167   0.522   2.772  16.582 -0.3642  0.4080 -0.1798
19918TIP3   OH281168   2.314   5.240   3.256  0.2438  0.1483 -0.3153
19918TIP3    H181169   2.317   5.271   3.346 -0.7163  0.4538 -0.3836
19918TIP3    H281170   2.405   5.243   3.226  0.3105  1.8346  0.0339
19919TIP3   OH281171   3.995   4.053  17.089  0.4617  0.7652 -0.3658
19919TIP3    H181172   4.006   3.976  17.032 -0.8318  0.0378  0.3555
19919TIP3    H281173   3.926   4.028  17.150  0.8391  2.0796  0.6225
19920TIP3   OH281174   6.513   5.906   3.820  0.0616  0.0875  0.1738
19920TIP3    H181175   6.544   5.844   3.886 -1.2822  0.8956  1.5796
19920TIP3    H281176   6.447   5.858   3.770 -0.4635  0.1507  0.8033
19921TIP3   OH281177   6.399   4.215   2.496 -0.2875  0.3850  0.5124
19921TIP3    H181178   6.337   4.156   2.452 -0.1652  0.2679  0.4965
19921TIP3    H281179   6.425   4.168   2.575  0.3050  0.1425  0.1747
19922TIP3   OH281180   1.960   6.446  14.109 -0.0840 -0.6530  0.1405
19922TIP3    H181181   1.915   6.453  14.025  2.4101  1.7051 -1.0720
19922TIP3    H281182   1.940   6.357  14.140 -2.4429 -0.9463 -2.0880
19923TIP3   OH281183   0.476   0.314  14.276  0.0943  0.0252 -0.3302
19923TIP3    H181184   0.513   0.300  14.363 -1.2076 -1.7557 -0.0263
19923TIP3    H281185   0.544   0.285  14.215  0.5892  0.2188  0.1333
19924TIP3   OH281186   2.602   0.946   5.648 -0.2805  0.2006 -0.7656
19924TIP3    H181187   2.576   1.021   5.701 -1.0539  1.0307 -2.2983
19924TIP3    H281188   2.523   0.892   5.642 -0.6381  0.8613 -2.3021
19925TIP3   OH281189   3.959   2.363   3.658  0.2193  0.4936 -0.2590
19925TIP3    H181190   3.974   2.293   3.722  1.0158  1.2257  0.3640
19925TIP3    H281191   3.865   2.360   3.642  0.2732 -0.8468 -0.3823
19926TIP3   OH281192   5.376   1.057   0.352  0.3192  0.3289  0.1007
19926TIP3    H181193   5.377   1.152   0.341 -0.0001  0.5242  1.6329
19926TIP3    H281194   5.341   1.044   0.440 -0.8277 -1.2544 -0.5727
19927TIP3   OH281195   2.366   2.357   3.954 -0.1360 -0.4632  0.8152
19927TIP3    H181196   2.314   2.362   4.034  0.0464  0.5693  0.8836
19927TIP3    H281197   2.441   2.304   3.977 -0.5650 -0.9656  1.0578
19928TIP3   OH281198   6.082   1.998   1.175 -0.3252 -0.0119  0.1527
19928TIP3    H181199   6.090   2.070   1.112 -1.5082 -0.4388 -0.5027
19928TIP3    H281200   6.171   1.962   1.181 -0.1426  0.1886 -1.1026
19929TIP3   OH281201   1.045   4.640  13.579 -0.3713  0.1089 -0.2973
19929TIP3    H181202   1.112   4.707  13.564 -0.0684  0.0959  0.9537
19929TIP3    H281203   0.974   4.663  13.519 -0.5923  2.0243  0.6539
19930TIP3   OH281204   2.031   1.292  14.951 -0.0261  0.1111  0.4332
19930TIP3    H181205   1.967   1.334  15.008 -0.8889  0.3141 -0.6628
19930TIP3    H281206   1.983   1.276  14.870  1.2122 -0.0671 -0.2678
19931TIP3   OH281207   5.978   4.892  16.531 -0.2242 -0.1820 -0.4634
19931TIP3    H181208   5.951   4.902  16.440  1.3604  0.7221 -0.8485
19931TIP3    H281209   5.973   4.980  16.568 -0.8256 -0.5372  0.3170
19932TIP3   OH281210   2.573   1.755   0.073 -0.0831  0.1299 -0.3724
19932TIP3    H181211   2.527   1.704   0.139 -0.0678  1.5452  0.7523
19932TIP3    H281212   2.588   1.694   0.001 -0.5640 -1.2830  0.7205
19933TIP3   OH281213   0.195   0.898   5.752  0.1386  0.3089 -0.1314
19933TIP3    H181214   0.216   0.982   5.794 -0.8069  1.2613 -1.5100
19933TIP3    H281215   0.266   0.886   5.688  0.4919 -0.1548  0.3416
19934TIP3   OH281216   6.727   3.386  11.296  0.2733 -0.1664 -0.1465
19934TIP3    H181217   6.660   3.339  11.346  0.4650 -0.1143  0.1649
19934TIP3    H281218   6.736   3.470  11.343  1.6934 -0.8112  0.7519
19935TIP3   OH281219   2.803   6.307  16.399  0.4186 -0.0499  0.3872
19935TIP3    H181220   2.756   6.335  16.478  0.2056 -0.0184  0.2523
19935TIP3    H281221   2.747   6.239  16.361  0.2863  0.2636  0.0149
19936TIP3   OH281222   5.790   2.593   4.100  0.7010 -0.2612  0.1054
19936TIP3    H181223   5.785   2.571   4.007  1.5428 -0.7975  0.1801
19936TIP3    H281224   5.714   2.550   4.138  0.5245 -0.3002 -0.2893
19937TIP3   OH281225   0.507   6.258   2.858  0.0208 -0.7543  0.6906
19937TIP3    H181226   0.597   6.262   2.825 -0.4485 -2.8485 -0.9704
19937TIP3    H281227   0.464   6.335   2.820  0.4878 -1.0872 -0.5417
19938TIP3   OH281228   5.750   1.800  12.495  0.0378  0.1932  0.3133
19938TIP3    H181229   5.669   1.750  12.487 -0.7048  1.4315  0.0884
19938TIP3    H281230   5.723   1.886  12.525  1.4283  0.1321  1.8828
19939TIP3   OH281231   3.870   2.819   1.792  0.4008 -0.1633  0.3142
19939TIP3    H181232   3.863   2.825   1.697 -1.0102 -3.8694  0.0943
19939TIP3    H281233   3.962   2.799   1.809  0.5820  0.1690 -0.2606
19940TIP3   OH281234   5.789   0.522   1.503 -0.0820 -0.5450 -0.5243
19940TIP3    H181235   5.785   0.443   1.449 -0.7579 -0.8550 -0.0292
19940TIP3    H281236   5.706   0.523   1.550 -0.3089  0.7580 -0.9300
19941TIP3   OH281237   0.306   1.260  12.280 -0.4065 -0.1353  0.3032
19941TIP3    H181238   0.323   1.340  12.230 -1.0546  0.2233  0.6400
19941TIP3    H281239   0.217   1.272  12.313 -0.3143 -0.7716  0.7836
19942TIP3   OH281240   0.142   5.766  12.976 -0.2478 -0.2172  0.0855
19942TIP3    H181241   0.100   5.687  13.010  0.0153 -1.3201 -2.0748
19942TIP3    H281242   0.229   5.737  12.948  0.0315  0.9500 -0.2725
19943TIP3   OH281243   2.632   4.444  16.037 -0.5942  0.0850  0.0498
19943TIP3    H181244   2.676   4.385  16.098 -0.8593 -0.7075 -0.5251
19943TIP3    H281245   2.702   4.502  16.004 -0.1320 -0.6407 -0.2480
19944TIP3   OH281246   2.649   6.035  11.246 -0.5810 -0.3242  0.9307
19944TIP3    H181247   2.635   5.989  11.164  0.6825  1.4489 -0.3157
19944TIP3    H281248   2.744   6.035  11.258 -0.6435  0.8729  1.5152
19945TIP3   OH281249   0.816   4.789  14.295 -0.5952 -0.1096  0.4814
19945TIP3    H181250   0.774   4.725  14.238  1.2995 -1.1215  0.1819
19945TIP3    H281251   0.853   4.854  14.235 -0.1484 -0.2097  0.6492
19946TIP3   OH281252   4.988   1.902   6.270  0.1882 -0.2522  0.3127
19946TIP3    H181253   5.016   1.989   6.300 -0.5115  0.8575 -2.0801
19946TIP3    H281254   4.907   1.919   6.222 -1.4482 -2.6275  2.1555
19947TIP3   OH281255   4.164   1.852   0.762 -0.3292  0.0408 -0.5075
19947TIP3    H181256   4.248   1.806   0.770 -0.1709  0.3349 -0.4763
19947TIP3    H281257   4.182   1.924   0.701 -1.1186 -1.2207 -2.2549
19948TIP3   OH281258   3.689   1.511  12.373 -0.4358  0.0490 -0.1361
19948TIP3    H181259   3.778   1.548  12.371 -0.0451 -0.8537  0.2999
19948TIP3    H281260   3.685   1.463  12.455 -1.9695  1.5979  0.7139
19949TIP3   OH281261   1.023   4.177   3.712 -0.4409 -0.0100 -0.6069
19949TIP3    H181262   1.020   4.082   3.699 -1.6577 -0.0475 -0.1119
19949TIP3    H281263   1.003   4.189   3.805  1.3973  0.6433 -0.2785
19950TIP3   OH281264   1.669   4.020  12.022 -0.1015 -0.1220  0.1156
19950TIP3    H181265   1.605   4.073  12.069  1.1619  1.8841 -0.3318
19950TIP3    H281266   1.659   4.046  11.930  0.2611 -0.9733 -0.1720
19951TIP3   OH281267   1.811   5.139   0.192  0.4201  0.8089 -1.1398
19951TIP3    H181268   1.724   5.128   0.231  0.6342  3.9994  0.3416
19951TIP3    H281269   1.860   5.062   0.220 -0.8185  0.8165  1.0987
19952TIP3   OH281270   5.751   5.558   2.420  0.3102 -0.0302 -0.5459
19952TIP3    H181271   5.685   5.493   2.443  0.6350 -0.5812 -1.1695
19952TIP3    H281272   5.802   5.571   2.500 -1.9315  2.0396  0.6023
19953TIP3   OH281273   4.867   5.065   3.991 -0.3062 -0.2780 -0.2125
19953TIP3    H181274   4.798   5.017   3.944  0.4929  1.1325 -2.9457
19953TIP3    H281275   4.929   4.997   4.017 -2.7134 -1.5887  2.3923
19954TIP3   OH281276   0.929   4.740   0.072  0.3509  0.4949 -0.4058
19954TIP3    H181277   1.000   4.704   0.125  1.0387  0.6375 -1.2300
19954TIP3    H281278   0.875   4.789   0.134  1.1891  0.7082  0.1532
19955TIP3   OH281279   1.447   4.108   3.357 -0.0372  0.0760 -0.1355
19955TIP3    H181280   1.477   4.066   3.438 -1.0198  0.1942  0.3014
19955TIP3    H281281   1.372   4.162   3.384 -0.4019  0.0807 -1.1240
19956TIP3   OH281282   5.147   3.752   3.791  0.4316 -0.1669 -0.0424
19956TIP3    H181283   5.138   3.659   3.807  0.1447 -0.4319 -1.7173
19956TIP3    H281284   5.085   3.793   3.851 -0.1535 -1.0954 -0.0094
19957TIP3   OH281285   5.397   6.332   4.449  0.2401 -0.2604  0.2485
19957TIP3    H181286   5.395   6.350   4.354  1.4043 -0.4255  0.1884
19957TIP3    H281287   5.485   6.358   4.476  0.4604 -1.7427  0.9854
19958TIP3   OH281288   4.300   2.557  16.164 -0.2978 -0.7602  0.0751
19958TIP3    H181289   4.208   2.531  16.152  0.0273 -1.3101 -1.4041
19958TIP3    H281290   4.347   2.474  16.173  0.2548 -0.5562 -0.8180
19959TIP3   OH281291   6.091   1.609   5.626  0.7735  0.4215  0.8389
19959TIP3    H181292   6.003   1.588   5.593 -0.1544  0.9033  2.9089
19959TIP3    H281293   6.140   1.636   5.549 -1.0336  0.5752 -0.2866
19960TIP3   OH281294   3.257   5.721  14.068 -0.9864  0.4011 -0.4920
19960TIP3    H181295   3.275   5.665  13.992 -2.8217 -1.1973  0.1953
19960TIP3    H281296   3.291   5.807  14.043  0.5582 -0.6548 -2.1705
19961TIP3   OH281297   5.735   2.834   3.840  0.8505 -0.3700 -0.2658
19961TIP3    H181298   5.718   2.770   3.910  0.1835  1.3935  1.2416
19961TIP3    H281299   5.650   2.845   3.797  0.9631 -0.5109 -0.5195
19962LIG      O81300   1.720   1.859  16.676  0.0013  0.2480  0.5258
19962LIG      N81301   1.748   1.833  16.177 -0.2071  0.6869  0.3023
19962LIG     C181302   1.895   1.712  16.599 -0.2061 -0.3015  0.6594
19962LIG     C281303   1.825   1.845  16.577  0.2820 -0.3666 -0.1462
19962LIG     C381304   1.965   1.719  16.743 -0.0006  0.4420 -0.8403
19962LIG     C481305   1.805   1.584  16.597  0.1220  0.8474 -0.0958
19962LIG     C581306   1.764   1.854  16.427 -0.0809 -0.3458  0.7233
19962LIG     C681307   2.046   1.585  16.768 -0.1963  0.2227 -0.3338
19962LIG     C781308   1.883   1.453  16.639  0.2292 -0.3885 -0.9493
19962LIG     C881309   1.946   1.464  16.776 -0.3155  0.3694  0.2650
19962LIG     C981310   1.843   1.838  16.302 -0.2606 -0.2420 -0.1729
19962LIG    C1081311   1.933   1.959  16.598  0.2278  0.0356  0.1277
19962LIG    C1181312   1.678   1.706  16.161 -0.7842  1.1234 -0.3334
19962LIG    C1281313   1.840   1.852  16.058 -0.2212 -0.2931 -0.4442
19962LIG    C1381314   1.567   1.719  16.055 -0.2158 -0.5853  0.0695
19962LIG    C1481315   1.739   1.869  15.944  0.1764 -1.1525 -0.2327
19962LIG    C1581316   1.630   1.760  15.921 -0.6303 -1.4162 -0.7001
19962LIG    C1681317   2.050   1.959  16.519 -1.1000  1.2675 -0.0709
19962LIG    C1781318   1.931   2.051  16.710  0.3423  0.1823  0.1729
19962LIG    C1881319   2.161   2.048  16.534 -0.2569  0.4460 -0.1586
19962LIG    C1981320   2.045   2.134  16.730  0.0450 -0.6691 -0.1491
19962LIG    C2081321   2.157   2.130  16.642  0.2711  0.4719 -0.6955
19962LIG     H181322   1.972   1.699  16.521 -0.8804 -1.7348  0.2292
19962LIG     H281323   1.889   1.738  16.821  3.3271  2.1144  2.1065
19962LIG     H381324   2.048   1.793  16.750  1.9296 -1.8847  1.7767
19962LIG     H481325   1.773   1.572  16.492  1.3727 -1.6021 -0.2287
19962LIG     H581326   1.711   1.600  16.654  2.0246  0.5469  3.2715
19962LIG     H681327   1.715   1.953  16.428  1.0628  0.2294  0.8925
19962LIG     H781328   1.690   1.771  16.429  0.5335 -0.9277 -0.0244
19962LIG     H881329   2.102   1.586  16.864  1.1037 -0.5731 -1.0694
19962LIG     H981330   2.126   1.575  16.691 -0.3329  0.7600 -0.5501
19962LIG    H1081331   1.958   1.432  16.559  1.6550  0.1264  0.2166
19962LIG    H1181332   1.806   1.374  16.640  1.4641 -1.6783  2.6826
19962LIG    H1281333   1.869   1.473  16.855  1.5366 -1.0477  2.3148
19962LIG    H1381334   2.006   1.371  16.790 -0.4393  0.1674 -0.5145
19962LIG    H1481335   1.907   1.928  16.297 -1.9331  0.9976  0.3966
19962LIG    H1581336   1.905   1.746  16.298 -0.0086 -0.1845  1.9956
19962LIG    H1681337   1.631   1.676  16.257 -0.9500  0.3760 -0.6473
19962LIG    H1781338   1.746   1.622  16.134  0.5395  2.3999 -1.0632
19962LIG    H1881339   1.902   1.763  16.038 -0.4188 -0.6275  0.3996
19962LIG    H1981340   1.899   1.946  16.069 -0.4406 -0.4412  2.3793
19962LIG    H2081341   1.760   1.853  16.763 -0.0060 -0.4178  0.4858
19962LIG    H2181342   1.493   1.794  16.092  0.0951  0.1318 -0.7295
19962LIG    H2281343   1.527   1.617  16.039 -0.6325 -0.5508  0.8493
19962LIG    H2381344   1.799   1.866  15.851  1.2886  1.1084  0.3924
19962LIG    H2481345   1.694   1.970  15.946  1.2057 -0.7198  1.9547
19962LIG    H2581346   1.552   1.794  15.849 -1.2255 -2.8895 -0.7587
19962LIG    H2681347   1.667   1.665  15.879  0.8886  0.1616 -3.0377
19962LIG    H2781348   2.073   1.885  16.444 -0.6898  0.0115  1.2744
19962LIG    H2881349   1.845   2.056  16.775  0.3153  0.6691  0.0985
19962LIG    H2981350   2.259   2.035  16.489  1.2345 -0.2337  3.1712
19962LIG    H3081351   2.036   2.209  16.807 -1.6201  0.0309 -0.9930
19962LIG    H3181352   2.240   2.196  16.662 -2.6144  3.5103  1.8815
   6.78697   6.78697  17.23950
